<event>
12    1  0.1659650E+000  0.4138694E+03  0.7818608E-02  0.1039108E+00
         21   -1    0    0  503  502  0.00000000000E+00  0.00000000000E+00  0.31893514013E+03  0.31893514013E+03  0.00000000000E+00 0. -1.
         21   -1    0    0  501  503 -0.00000000000E+00 -0.00000000000E+00 -0.26758495563E+04  0.26758495563E+04  0.00000000000E+00 0. -1.
          6    2    1    2  501    0  0.11327593120E+03  0.35899022751E+03  0.16049411854E+03  0.44358231795E+03  0.17117678194E+03 0.  0.
         24    2    3    3    0    0  0.93135724661E+02  0.30868086836E+03  0.18910365238E+03  0.38212294141E+03  0.79370078173E+02 0.  0.
         -6    2    1    2    0  502 -0.11327593120E+03 -0.35899022751E+03 -0.25174085347E+04  0.25512023784E+04  0.17199542217E+03 0.  0.
        -24    2    5    5    0    0 -0.11145223390E+03 -0.35931580831E+03 -0.21712210794E+04  0.22049780638E+04  0.78726333259E+02 0.  0.
          5    1    3    3  501    0  0.20140206542E+02  0.50309359158E+02 -0.28609533843E+02  0.61459376544E+02  0.47000000000E+01 0. -1.
        -11    1    4    4    0    0  0.40720684698E+02  0.79025592008E+02  0.90185271429E+02  0.12663570404E+03  0.00000000000E+00 0.  1.
         12    1    4    4    0    0  0.52415039963E+02  0.22965527635E+03  0.98918380953E+02  0.25548723737E+03  0.00000000000E+00 0. -1.
         -5    1    5    5    0  502 -0.18236973070E+01  0.32558079651E+00 -0.34618745528E+03  0.34622431467E+03  0.47000000000E+01 0.  1.
         13    1    6    6    0    0 -0.47508085634E+02 -0.22940483219E+03 -0.15120613297E+04  0.15301023038E+04  0.00000000000E+00 0. -1.
        -14    1    6    6    0    0 -0.63944148262E+02 -0.12991097612E+03 -0.65915974970E+03  0.67487576000E+03  0.00000000000E+00 0.  1.
</event>
<event>
12    1  0.1035051E+000  0.3415386E+03  0.7818608E-02  0.1066234E+00
         21   -1    0    0  501  502  0.00000000000E+00  0.00000000000E+00  0.42073141396E+03  0.42073141396E+03  0.00000000000E+00 0. -1.
         21   -1    0    0  502  503 -0.00000000000E+00 -0.00000000000E+00 -0.47791392067E+03  0.47791392067E+03  0.00000000000E+00 0. -1.
         -6    2    1    2    0  503  0.71813943112E+02 -0.28520101696E+03  0.26304551966E+03  0.43109348636E+03  0.17364269656E+03 0.  0.
        -24    2    3    3    0    0  0.60286500200E+02 -0.21415443995E+03  0.26988176789E+03  0.35864127912E+03  0.79314640441E+02 0.  0.
          6    2    1    2  501    0 -0.71813943112E+02  0.28520101696E+03 -0.32022802637E+03  0.46755184827E+03  0.17193568404E+03 0.  0.
         24    2    5    5    0    0 -0.70613283666E+02  0.23655076023E+03 -0.32766850035E+03  0.41809742768E+03  0.80599720316E+02 0.  0.
          5    1    5    5  501    0 -0.12006594462E+01  0.48650256728E+02  0.74404739800E+01  0.49454420589E+02  0.47000000000E+01 0. -1.
        -13    1    6    6    0    0 -0.55482371513E+02  0.10998781166E+03 -0.10657233463E+03  0.16289037655E+03  0.00000000000E+00 0.  1.
         14    1    6    6    0    0 -0.15130912153E+02  0.12656294858E+03 -0.22109616571E+03  0.25520705113E+03  0.00000000000E+00 0. -1.
         -5    1    3    3    0  503  0.11527442912E+02 -0.71046577010E+02 -0.68362482310E+01  0.72452207246E+02  0.47000000000E+01 0.  1.
         11    1    4    4    0    0 -0.19045747311E+02 -0.55569164414E+02  0.62093550258E+02  0.85476789294E+02  0.00000000000E+00 0. -1.
        -12    1    4    4    0    0  0.79332247511E+02 -0.15858527554E+03  0.20778821764E+03  0.27316448982E+03  0.00000000000E+00 0.  1.
</event>
<event>
12    1  0.1035051E+000  0.1833472E+03  0.7818608E-02  0.1165193E+00
         21   -1    0    0  503  502  0.00000000000E+00  0.00000000000E+00  0.83868794683E+02  0.83868794683E+02  0.00000000000E+00 0. -1.
         21   -1    0    0  501  503 -0.00000000000E+00 -0.00000000000E+00 -0.39677794618E+03  0.39677794618E+03  0.00000000000E+00 0. -1.
          6    2    1    2  501    0 -0.18455953802E+02 -0.55091315153E+02 -0.14339088681E+03  0.23275987725E+03  0.17389807016E+03 0.  0.
         24    2    3    3    0    0 -0.14180695993E+02  0.35258750604E+02 -0.37103769833E+02  0.93115853228E+02  0.76482682704E+02 0.  0.
         -6    2    1    2    0  502  0.18455953802E+02  0.55091315153E+02 -0.16951826469E+03  0.24788686361E+03  0.17127690986E+03 0.  0.
        -24    2    5    5    0    0 -0.12486888255E+02 -0.20291734083E+02 -0.17999136933E+02  0.75781664201E+02  0.69650662943E+02 0.  0.
          5    1    3    3  501    0 -0.42752578086E+01 -0.90350065757E+02 -0.10628711697E+03  0.13964402403E+03  0.47000000000E+01 0. -1.
        -13    1    4    4    0    0 -0.34995947179E+01 -0.21294827857E+02  0.45697589039E+01  0.22059001634E+02  0.00000000000E+00 0.  1.
         14    1    4    4    0    0 -0.10681101275E+02  0.56553578460E+02 -0.41673528737E+02  0.71056851594E+02  0.00000000000E+00 0. -1.
         -5    1    5    5    0  502  0.30942842056E+02  0.75383049237E+02 -0.15151912776E+03  0.17210519941E+03  0.47000000000E+01 0.  1.
         11    1    6    6    0    0 -0.11169400441E+02 -0.44662355035E+02 -0.22042722086E+02  0.51042757180E+02  0.00000000000E+00 0. -1.
        -12    1    6    6    0    0 -0.13174878132E+01  0.24370620952E+02  0.40435851527E+01  0.24738907022E+02  0.00000000000E+00 0.  1.
</event>
<event>
12    1  0.1035051E+000  0.1790116E+03  0.7818608E-02  0.1168978E+00
         21   -1    0    0  501  502  0.00000000000E+00  0.00000000000E+00  0.60200524057E+02  0.60200524057E+02  0.00000000000E+00 0.  1.
         21   -1    0    0  502  503 -0.00000000000E+00 -0.00000000000E+00 -0.52992681779E+03  0.52992681779E+03  0.00000000000E+00 0.  1.
         -6    2    1    2    0  503  0.30833190378E+02 -0.35117088237E+02 -0.24045517545E+03  0.29924865614E+03  0.17189290645E+03 0.  0.
        -24    2    3    3    0    0  0.24258003854E+02  0.46090334919E+02 -0.14804268759E+03  0.17596022779E+03  0.79577601690E+02 0.  0.
          6    2    1    2  501    0 -0.30833190378E+02  0.35117088237E+02 -0.22927111828E+03  0.29087868570E+03  0.17280413364E+03 0.  0.
         24    2    5    5    0    0 -0.84993369231E+02  0.36238677902E+02 -0.14634380317E+03  0.19171411276E+03  0.82466221652E+02 0.  0.
          5    1    5    5  501    0  0.54160178853E+02 -0.11215896654E+01 -0.82927315110E+02  0.99164572949E+02  0.47000000000E+01 0. -1.
        -13    1    6    6    0    0 -0.16330113910E+02 -0.13833554447E+02  0.12119883981E+01  0.21436155552E+02  0.00000000000E+00 0.  1.
         14    1    6    6    0    0 -0.68663255321E+02  0.50072232349E+02 -0.14755579157E+03  0.17027795720E+03  0.00000000000E+00 0. -1.
         -5    1    3    3    0  503  0.65751865235E+01 -0.81207423156E+02 -0.92412487860E+02  0.12328842835E+03  0.47000000000E+01 0.  1.
         11    1    4    4    0    0 -0.22599642895E+02  0.59868449538E+01 -0.11331321326E+02  0.25980473715E+02  0.00000000000E+00 0. -1.
        -12    1    4    4    0    0  0.46857646749E+02  0.40103489965E+02 -0.13671136627E+03  0.14997975407E+03  0.00000000000E+00 0.  1.
</event>
<event>
12    1  0.1035051E+000  0.2638829E+03  0.7818608E-02  0.1105360E+00
         21   -1    0    0  501  502  0.00000000000E+00  0.00000000000E+00  0.12530094171E+04  0.12530094171E+04  0.00000000000E+00 0. -1.
         21   -1    0    0  502  503 -0.00000000000E+00 -0.00000000000E+00 -0.68044252312E+02  0.68044252312E+02  0.00000000000E+00 0. -1.
         -6    2    1    2    0  503 -0.15935860146E+03 -0.11966913588E+03  0.30461598587E+03  0.40301996090E+03  0.17296914203E+03 0.  0.
        -24    2    3    3    0    0 -0.81682053909E+02 -0.77622032263E+02  0.27771110139E+03  0.31056690378E+03  0.81432229875E+02 0.  0.
          6    2    1    2  501    0  0.15935860146E+03  0.11966913588E+03  0.88034917891E+03  0.91803370850E+03  0.16749730502E+03 0.  0.
         24    2    5    5    0    0  0.15666347924E+03  0.43719095610E+02  0.60238838604E+03  0.62983245126E+03  0.85804102307E+02 0.  0.
          5    1    5    5  501    0  0.26951222194E+01  0.75950040274E+02  0.27796079287E+03  0.28820125724E+03  0.47000000000E+01 0. -1.
        -13    1    6    6    0    0  0.12808868539E+03 -0.34638925224E+01  0.44361496594E+03  0.46174987589E+03  0.00000000000E+00 0.  1.
         14    1    6    6    0    0  0.28574793850E+02  0.47182988133E+02  0.15877342010E+03  0.16808257537E+03  0.00000000000E+00 0. -1.
         -5    1    3    3    0  503 -0.77676547556E+02 -0.42047103622E+02  0.26904884475E+02  0.92453057125E+02  0.47000000000E+01 0.  1.
         13    1    4    4    0    0 -0.13558255555E+02 -0.59159266456E+02  0.18052869029E+03  0.19045800881E+03  0.00000000000E+00 0. -1.
        -14    1    4    4    0    0 -0.68123798353E+02 -0.18462765806E+02  0.97182411104E+02  0.12010889497E+03  0.00000000000E+00 0.  1.
</event>
<event>
12    1  0.1035051E+000  0.2543313E+03  0.7818608E-02  0.1110626E+00
         21   -1    0    0  501  502  0.00000000000E+00  0.00000000000E+00  0.13120698905E+03  0.13120698905E+03  0.00000000000E+00 0. -1.
         21   -1    0    0  502  503 -0.00000000000E+00 -0.00000000000E+00 -0.55954043332E+03  0.55954043332E+03  0.00000000000E+00 0. -1.
         -6    2    1    2    0  503 -0.11353016587E+03  0.14841555661E+03 -0.33351873642E+03  0.41931745879E+03  0.17226754685E+03 0.  0.
        -24    2    3    3    0    0 -0.10949941019E+02  0.36312183197E+02 -0.18770340491E+03  0.20866592245E+03  0.82888015536E+02 0.  0.
          6    2    1    2  501    0  0.11353016587E+03 -0.14841555661E+03 -0.94814707855E+02  0.27142996358E+03  0.17253440323E+03 0.  0.
         24    2    5    5    0    0  0.25945534159E+02 -0.10048708345E+03 -0.11018319946E+03  0.17030387009E+03  0.78052841339E+02 0.  0.
          5    1    5    5  501    0  0.87584631707E+02 -0.47928473157E+02  0.15368491600E+02  0.10112609349E+03  0.47000000000E+01 0. -1.
        -13    1    6    6    0    0  0.45730217025E+02 -0.78803446100E+02 -0.51425642440E+02  0.10462233302E+03  0.00000000000E+00 0.  1.
         14    1    6    6    0    0 -0.19784682866E+02 -0.21683637350E+02 -0.58757557015E+02  0.65681537065E+02  0.00000000000E+00 0. -1.
         -5    1    3    3    0  503 -0.10258022485E+03  0.11210337341E+03 -0.14581533151E+03  0.21065153634E+03  0.47000000000E+01 0.  1.
         11    1    4    4    0    0 -0.38175972492E+02  0.47659838681E+02 -0.11500146795E+03  0.13020830515E+03  0.00000000000E+00 0. -1.
        -12    1    4    4    0    0  0.27226031473E+02 -0.11347655484E+02 -0.72701936963E+02  0.78457617303E+02  0.00000000000E+00 0.  1.
</event>
<event>
12    1  0.1035051E+000  0.3150557E+03  0.7818608E-02  0.1078054E+00
         21   -1    0    0  501  502  0.00000000000E+00  0.00000000000E+00  0.10715093008E+03  0.10715093008E+03  0.00000000000E+00 0.  1.
         21   -1    0    0  502  503 -0.00000000000E+00 -0.00000000000E+00 -0.12334574445E+04  0.12334574445E+04  0.00000000000E+00 0.  1.
         -6    2    1    2    0  503 -0.36866788076E+02 -0.26162352595E+03 -0.22784702891E+03  0.38881151064E+03  0.17162194741E+03 0.  0.
        -24    2    3    3    0    0 -0.86121598108E+02 -0.21771027128E+03 -0.19508521555E+03  0.31498850162E+03  0.79654396889E+02 0.  0.
          6    2    1    2  501    0  0.36866788076E+02  0.26162352595E+03 -0.89845948550E+03  0.95179686392E+03  0.16994644361E+03 0.  0.
         24    2    5    5    0    0  0.44655572511E+02  0.17704561606E+03 -0.78565584776E+03  0.81051403166E+03  0.79615413596E+02 0.  0.
          5    1    5    5  501    0 -0.77887844351E+01  0.84577909883E+02 -0.11280363774E+03  0.14128283226E+03  0.47000000000E+01 0. -1.
        -11    1    6    6    0    0  0.23568402161E+01  0.99335204699E+01 -0.19371232319E+03  0.19398116837E+03  0.00000000000E+00 0.  1.
         12    1    6    6    0    0  0.42298732295E+02  0.16711209559E+03 -0.59194352457E+03  0.61653286330E+03  0.00000000000E+00 0. -1.
         -5    1    3    3    0  503  0.49254810032E+02 -0.43913254664E+02 -0.32761813366E+02  0.73823009025E+02  0.47000000000E+01 0.  1.
         11    1    4    4    0    0 -0.29027066828E+02 -0.91247959673E+02 -0.32214590176E+02  0.10102742486E+03  0.00000000000E+00 0. -1.
        -12    1    4    4    0    0 -0.57094531280E+02 -0.12646231161E+03 -0.16287062537E+03  0.21396107676E+03  0.00000000000E+00 0.  1.
</event>
<event>
12    1  0.1035051E+000  0.2022421E+03  0.7818608E-02  0.1148888E+00
         21   -1    0    0  501  502  0.00000000000E+00  0.00000000000E+00  0.51250902725E+02  0.51250902725E+02  0.00000000000E+00 0. -1.
         21   -1    0    0  502  503 -0.00000000000E+00 -0.00000000000E+00 -0.93536168786E+03  0.93536168786E+03  0.00000000000E+00 0. -1.
         -6    2    1    2    0  503 -0.64960924078E+02 -0.81179171496E+02 -0.24483218643E+03  0.31756051716E+03  0.17347017901E+03 0.  0.
        -24    2    3    3    0    0 -0.93964009297E+02 -0.10242768494E+03 -0.22959836746E+03  0.27823066188E+03  0.73322746725E+02 0.  0.
          6    2    1    2  501    0  0.64960924078E+02  0.81179171496E+02 -0.63927859870E+03  0.66905207342E+03  0.16776045615E+03 0.  0.
         24    2    5    5    0    0  0.10230944436E+03  0.83197799512E+02 -0.56700203135E+03  0.58753533272E+03  0.79481868320E+02 0.  0.
          5    1    5    5  501    0 -0.37348520279E+02 -0.20186280157E+01 -0.72276567352E+02  0.81516740699E+02  0.47000000000E+01 0. -1.
        -11    1    6    6    0    0  0.67929958489E+02  0.79553045400E+02 -0.28820297685E+03  0.30660091676E+03  0.00000000000E+00 0.  1.
         12    1    6    6    0    0  0.34379485867E+02  0.36447541119E+01 -0.27879905450E+03  0.28093441596E+03  0.00000000000E+00 0. -1.
         -5    1    3    3    0  503  0.29003085220E+02  0.21248513444E+02 -0.15233818974E+02  0.39329855281E+02  0.47000000000E+01 0.  1.
         13    1    4    4    0    0  0.99029872841E+01 -0.27076211575E+02 -0.41669718983E+02  0.50671055549E+02  0.00000000000E+00 0. -1.
        -14    1    4    4    0    0 -0.10386699658E+03 -0.75351473366E+02 -0.18792864848E+03  0.22755960633E+03  0.00000000000E+00 0.  1.
</event>
<event>
12    1  0.1035051E+000  0.2014137E+03  0.7818608E-02  0.1149606E+00
         21   -1    0    0  503  502  0.00000000000E+00  0.00000000000E+00  0.37892984085E+02  0.37892984085E+02  0.00000000000E+00 0.  1.
         21   -1    0    0  501  503 -0.00000000000E+00 -0.00000000000E+00 -0.12722731208E+04  0.12722731208E+04  0.00000000000E+00 0.  1.
          6    2    1    2  501    0 -0.94098456756E+02 -0.12112221540E+02 -0.33356800681E+03  0.38711140474E+03  0.17200697380E+03 0.  0.
         24    2    3    3    0    0  0.58604753016E+01 -0.26825599752E+02 -0.21644893621E+03  0.23236245225E+03  0.79926273894E+02 0.  0.
         -6    2    1    2    0  502  0.94098456756E+02  0.12112221540E+02 -0.90081212994E+03  0.92305470018E+03  0.17766896354E+03 0.  0.
        -24    2    5    5    0    0  0.58697907576E+02 -0.29221071390E+02 -0.26241068076E+03  0.28232063655E+03  0.80908967837E+02 0.  0.
          5    1    3    3  501    0 -0.99958932057E+02  0.14713378212E+02 -0.11711907060E+03  0.15474895248E+03  0.47000000000E+01 0. -1.
        -11    1    4    4    0    0  0.80847318728E+01 -0.32715755959E+02 -0.22164918017E+03  0.22419643764E+03  0.00000000000E+00 0.  1.
         12    1    4    4    0    0 -0.22242565712E+01  0.58901562074E+01  0.52002439641E+01  0.81660146173E+01  0.00000000000E+00 0. -1.
         -5    1    5    5    0  502  0.35400549180E+02  0.41333292930E+02 -0.63840144918E+03  0.64073406363E+03  0.47000000000E+01 0.  1.
         13    1    6    6    0    0  0.20555243607E+01 -0.44904559608E+02 -0.10135383782E+03  0.11087490741E+03  0.00000000000E+00 0. -1.
        -14    1    6    6    0    0  0.56642383215E+02  0.15683488218E+02 -0.16105684295E+03  0.17144572914E+03  0.00000000000E+00 0.  1.
</event>
<event>
12    1  0.1035051E+000  0.1817849E+03  0.7818608E-02  0.1166207E+00
         21   -1    0    0  501  502  0.00000000000E+00  0.00000000000E+00  0.12079959503E+03  0.12079959503E+03  0.00000000000E+00 0. -1.
         21   -1    0    0  502  503 -0.00000000000E+00 -0.00000000000E+00 -0.28699979988E+03  0.28699979988E+03  0.00000000000E+00 0. -1.
         -6    2    1    2    0  503  0.11399589137E+02  0.58604969786E+02 -0.37643835579E+02  0.18515062305E+03  0.17117009593E+03 0.  0.
        -24    2    3    3    0    0  0.44686096769E+02 -0.44310922670E+01 -0.65248050249E+02  0.10856329134E+03  0.74244180533E+02 0.  0.
          6    2    1    2  501    0 -0.11399589137E+02 -0.58604969786E+02 -0.12855636927E+03  0.22264877186E+03  0.17170102626E+03 0.  0.
         24    2    5    5    0    0 -0.61537378217E+02 -0.78598152207E+02 -0.97093807155E+02  0.15999489687E+03  0.78782239043E+02 0.  0.
          5    1    5    5  501    0  0.50137789080E+02  0.19993182420E+02 -0.31462562111E+02  0.62653874994E+02  0.47000000000E+01 0. -1.
        -11    1    6    6    0    0 -0.35878587412E+02 -0.91538742277E+02 -0.77867347072E+02  0.12541905004E+03  0.00000000000E+00 0.  1.
         12    1    6    6    0    0 -0.25658790805E+02  0.12940590070E+02 -0.19226460083E+02  0.34575846833E+02  0.00000000000E+00 0. -1.
         -5    1    3    3    0  503 -0.33286507633E+02  0.63036062053E+02  0.27604214671E+02  0.76587331702E+02  0.47000000000E+01 0.  1.
         11    1    4    4    0    0 -0.15791544337E+02 -0.14532983767E+02 -0.38727465805E+01  0.21807765952E+02  0.00000000000E+00 0. -1.
        -12    1    4    4    0    0  0.60477641107E+02  0.10101891500E+02 -0.61375303669E+02  0.86755525393E+02  0.00000000000E+00 0.  1.
</event>
<event>
12    1  0.1035051E+000  0.4053683E+03  0.7818608E-02  0.1042031E+00
         21   -1    0    0  501  502  0.00000000000E+00  0.00000000000E+00  0.57372823482E+03  0.57372823482E+03  0.00000000000E+00 0. -1.
         21   -1    0    0  502  503 -0.00000000000E+00 -0.00000000000E+00 -0.37046438715E+03  0.37046438715E+03  0.00000000000E+00 0. -1.
         -6    2    1    2    0  503  0.83212685529E+01 -0.36620113564E+03  0.32765536266E+03  0.52123072295E+03  0.17364018723E+03 0.  0.
        -24    2    3    3    0    0  0.44854326009E+02 -0.98928843840E+02  0.12806825218E+03  0.18563238130E+03  0.79114329089E+02 0.  0.
          6    2    1    2  501    0 -0.83212685529E+01  0.36620113564E+03 -0.12439151498E+03  0.42296189901E+03  0.17102924828E+03 0.  0.
         24    2    5    5    0    0 -0.12106338395E+01  0.14780496503E+03 -0.11512962308E+03  0.20420330809E+03  0.81218148231E+02 0.  0.
          5    1    5    5  501    0 -0.71106347135E+01  0.21839617060E+03 -0.92618919002E+01  0.21875859092E+03  0.47000000000E+01 0. -1.
        -13    1    6    6    0    0 -0.31540515221E+02  0.12108748235E+03 -0.69076773859E+02  0.14292859465E+03  0.00000000000E+00 0.  1.
         14    1    6    6    0    0  0.30329881382E+02  0.26717482682E+02 -0.46052849225E+02  0.61274713441E+02  0.00000000000E+00 0. -1.
         -5    1    3    3    0  503 -0.36533057456E+02 -0.26727229180E+03  0.19958711048E+03  0.33559834165E+03  0.47000000000E+01 0.  1.
         11    1    4    4    0    0 -0.11803080692E+01  0.13108084825E+02  0.10569540264E+02  0.16879875483E+02  0.00000000000E+00 0. -1.
        -12    1    4    4    0    0  0.46034634078E+02 -0.11203692866E+03  0.11749871191E+03  0.16875250582E+03  0.00000000000E+00 0.  1.
</event>
<event>
12    1  0.1035051E+000  0.1994061E+03  0.7818608E-02  0.1150461E+00
         21   -1    0    0  501  502  0.00000000000E+00  0.00000000000E+00  0.53402139931E+03  0.53402139931E+03  0.00000000000E+00 0.  1.
         21   -1    0    0  502  503 -0.00000000000E+00 -0.00000000000E+00 -0.84437268363E+02  0.84437268363E+02  0.00000000000E+00 0.  1.
         -6    2    1    2    0  503 -0.12983530423E+02 -0.10201492972E+03  0.33261626980E+03  0.38727846758E+03  0.16963316471E+03 0.  0.
        -24    2    3    3    0    0  0.41943316982E+02 -0.10791015212E+03  0.26464333671E+03  0.29956232399E+03  0.79357718737E+02 0.  0.
          6    2    1    2  501    0  0.12983530423E+02  0.10201492972E+03  0.11696786115E+03  0.23118020010E+03  0.17084257790E+03 0.  0.
         24    2    5    5    0    0  0.71457151069E+02  0.45705517650E+02  0.83829271163E+02  0.14337262442E+03  0.79581680977E+02 0.  0.
          5    1    5    5  501    0 -0.58473620646E+02  0.56309412071E+02  0.33138589990E+02  0.87807575674E+02  0.47000000000E+01 0. -1.
        -13    1    6    6    0    0  0.23714776984E+02  0.24535868910E+02 -0.10370437868E+02  0.35664344830E+02  0.00000000000E+00 0.  1.
         14    1    6    6    0    0  0.47742374086E+02  0.21169648740E+02  0.94199709031E+02  0.10770827959E+03  0.00000000000E+00 0. -1.
         -5    1    3    3    0  503 -0.54926847406E+02  0.58952223945E+01  0.67972933088E+02  0.87716143586E+02  0.47000000000E+01 0.  1.
         11    1    4    4    0    0  0.27569414099E+02 -0.77306276951E+02  0.24924309507E+03  0.26240894324E+03  0.00000000000E+00 0. -1.
        -12    1    4    4    0    0  0.14373902883E+02 -0.30603875165E+02  0.15400241637E+02  0.37153380757E+02  0.00000000000E+00 0.  1.
</event>
<event>
12    1  0.1035051E+000  0.2294412E+03  0.7818608E-02  0.1127238E+00
         21   -1    0    0  503  502  0.00000000000E+00  0.00000000000E+00  0.13741674018E+03  0.13741674018E+03  0.00000000000E+00 0. -1.
         21   -1    0    0  501  503 -0.00000000000E+00 -0.00000000000E+00 -0.63302572502E+03  0.63302572502E+03  0.00000000000E+00 0. -1.
          6    2    1    2  501    0 -0.94196251382E+02 -0.11809369613E+03 -0.49116385686E+03  0.54211179570E+03  0.17269687291E+03 0.  0.
         24    2    3    3    0    0 -0.30920296292E+02 -0.70939285091E+01 -0.11188459300E+03  0.14186231737E+03  0.81242639027E+02 0.  0.
         -6    2    1    2    0  502  0.94196251382E+02  0.11809369613E+03 -0.44451279805E+01  0.22833066951E+03  0.17116097872E+03 0.  0.
        -24    2    5    5    0    0  0.10051448994E+03  0.50894465861E+02 -0.50103471784E+02  0.14670695331E+03  0.79493162744E+02 0.  0.
          5    1    3    3  501    0 -0.63275955090E+02 -0.11099976762E+03 -0.37927926386E+03  0.40024947832E+03  0.47000000000E+01 0. -1.
        -13    1    4    4    0    0 -0.12834648462E+02 -0.42172205792E+02 -0.38451339184E+02  0.58495543655E+02  0.00000000000E+00 0.  1.
         14    1    4    4    0    0 -0.18085647830E+02  0.35078277283E+02 -0.73433253812E+02  0.83366773717E+02  0.00000000000E+00 0. -1.
         -5    1    5    5    0  502 -0.63182385554E+01  0.67199230266E+02  0.45658343803E+02  0.81623716196E+02  0.47000000000E+01 0.  1.
         13    1    6    6    0    0  0.39060656147E+01 -0.10635730191E+02 -0.27795256634E+02  0.30015869081E+02  0.00000000000E+00 0. -1.
        -14    1    6    6    0    0  0.96608424323E+02  0.61530196052E+02 -0.22308215150E+02  0.11669108423E+03  0.00000000000E+00 0.  1.
</event>
<event>
12    1  0.1035051E+000  0.1884105E+03  0.7818608E-02  0.1159933E+00
         21   -1    0    0  501  502  0.00000000000E+00  0.00000000000E+00  0.13272249505E+03  0.13272249505E+03  0.00000000000E+00 0. -1.
         21   -1    0    0  502  503 -0.00000000000E+00 -0.00000000000E+00 -0.27366064966E+03  0.27366064966E+03  0.00000000000E+00 0. -1.
         -6    2    1    2    0  503  0.49045378642E+01  0.75706111644E+02 -0.39403002676E+02  0.19235532786E+03  0.17231513486E+03 0.  0.
        -24    2    3    3    0    0  0.56595568147E+01 -0.18817908339E+02  0.15564801581E+02  0.82907121327E+02  0.79026473165E+02 0.  0.
          6    2    1    2  501    0 -0.49045378642E+01 -0.75706111644E+02 -0.10153515193E+03  0.21402781686E+03  0.17246173338E+03 0.  0.
         24    2    5    5    0    0  0.10225387602E+02 -0.87234335230E+02 -0.12997873987E+03  0.17948882037E+03  0.87220273028E+02 0.  0.
          5    1    5    5  501    0 -0.15129925467E+02  0.11528223586E+02  0.28443587935E+02  0.34538996486E+02  0.47000000000E+01 0. -1.
        -13    1    6    6    0    0  0.38704549401E+02 -0.80828814676E+02 -0.73463857492E+02  0.11588044608E+03  0.00000000000E+00 0.  1.
         14    1    6    6    0    0 -0.28479161799E+02 -0.64055205542E+01 -0.56514882376E+02  0.63608374294E+02  0.00000000000E+00 0. -1.
         -5    1    3    3    0  503 -0.75501895043E+00  0.94524019983E+02 -0.54967804257E+02  0.10944820653E+03  0.47000000000E+01 0.  1.
         13    1    4    4    0    0  0.23209919550E+02  0.21270817311E+02  0.22367655493E+02  0.38619425770E+02  0.00000000000E+00 0. -1.
        -14    1    4    4    0    0 -0.17550362735E+02 -0.40088725650E+02 -0.68028539127E+01  0.44287695557E+02  0.00000000000E+00 0.  1.
</event>
<event>
12    1  0.1035051E+000  0.1957830E+03  0.7818608E-02  0.1153579E+00
         21   -1    0    0  503  502  0.00000000000E+00  0.00000000000E+00  0.22608553455E+03  0.22608553455E+03  0.00000000000E+00 0. -1.
         21   -1    0    0  501  503 -0.00000000000E+00 -0.00000000000E+00 -0.17086666285E+03  0.17086666285E+03  0.00000000000E+00 0. -1.
          6    2    1    2  501    0  0.91077605048E+02  0.12121069495E+02  0.50315697724E+02  0.20110779500E+03  0.17167010603E+03 0.  0.
         24    2    3    3    0    0  0.12898718746E+03 -0.13582779670E+01  0.54432398919E+02  0.16039088849E+03  0.78248396860E+02 0.  0.
         -6    2    1    2    0  502 -0.91077605048E+02 -0.12121069495E+02  0.49031739767E+01  0.19584440241E+03  0.17288417618E+03 0.  0.
        -24    2    5    5    0    0  0.13621314500E+02 -0.24282554316E+02 -0.11068073241E+02  0.89134814247E+02  0.83948378261E+02 0.  0.
          5    1    3    3  501    0 -0.37909582414E+02  0.13479347462E+02 -0.41167011953E+01  0.40716906507E+02  0.47000000000E+01 0. -1.
        -11    1    4    4    0    0  0.18490740955E+02  0.21905468986E+02 -0.10026618736E+02  0.30369230413E+02  0.00000000000E+00 0.  1.
         12    1    4    4    0    0  0.11049644651E+03 -0.23263746953E+02  0.64459017656E+02  0.13002165808E+03  0.00000000000E+00 0. -1.
         -5    1    5    5    0  502 -0.10469891955E+03  0.12161484821E+02  0.15971247217E+02  0.10670958816E+03  0.47000000000E+01 0.  1.
         11    1    6    6    0    0  0.30676195320E+02 -0.26879012458E+02  0.25917195029E+02  0.48324023717E+02  0.00000000000E+00 0. -1.
        -12    1    6    6    0    0 -0.17054880820E+02  0.25964581420E+01 -0.36985268270E+02  0.40810790530E+02  0.00000000000E+00 0.  1.
</event>
<event>
12    1  0.1035051E+000  0.2119630E+03  0.7818608E-02  0.1140977E+00
         21   -1    0    0  503  502  0.00000000000E+00  0.00000000000E+00  0.17713077364E+04  0.17713077364E+04  0.00000000000E+00 0.  1.
         21   -1    0    0  501  503 -0.00000000000E+00 -0.00000000000E+00 -0.35484253846E+02  0.35484253846E+02  0.00000000000E+00 0.  1.
          6    2    1    2  501    0  0.58753023082E+02  0.11037782486E+03  0.36500053165E+03  0.41967848233E+03  0.16513466773E+03 0.  0.
         24    2    3    3    0    0 -0.42356906173E+01  0.10411027188E+03  0.30730890538E+03  0.33390392891E+03  0.78715821959E+02 0.  0.
         -6    2    1    2    0  502 -0.58753023082E+02 -0.11037782486E+03  0.13708229509E+04  0.13871135079E+04  0.17115238581E+03 0.  0.
        -24    2    5    5    0    0 -0.33825003620E+02 -0.87692870221E+02  0.48187687305E+03  0.49751627733E+03  0.80516799955E+02 0.  0.
          5    1    3    3  501    0  0.62988713699E+02  0.62675529850E+01  0.57691626267E+02  0.85774553425E+02  0.47000000000E+01 0. -1.
        -13    1    4    4    0    0 -0.10497200672E+02  0.36769900428E+02  0.22084832454E+03  0.22413433305E+03  0.00000000000E+00 0.  1.
         14    1    4    4    0    0  0.62615100550E+01  0.67340371451E+02  0.86460580847E+02  0.10976959586E+03  0.00000000000E+00 0. -1.
         -5    1    5    5    0  502 -0.24928019462E+02 -0.22684954643E+02  0.88894607788E+03  0.88959723060E+03  0.47000000000E+01 0.  1.
         13    1    6    6    0    0  0.55476249679E+00 -0.47114016500E+02  0.37691825742E+03  0.37985182781E+03  0.00000000000E+00 0. -1.
        -14    1    6    6    0    0 -0.34379766117E+02 -0.40578853721E+02  0.10495861563E+03  0.11766444953E+03  0.00000000000E+00 0.  1.
</event>
<event>
12    1  0.1035051E+000  0.1786377E+03  0.7818608E-02  0.1170441E+00
         21   -1    0    0  503  502  0.00000000000E+00  0.00000000000E+00  0.50838631783E+03  0.50838631783E+03  0.00000000000E+00 0.  1.
         21   -1    0    0  501  503 -0.00000000000E+00 -0.00000000000E+00 -0.61450434128E+02  0.61450434128E+02  0.00000000000E+00 0.  1.
          6    2    1    2  501    0 -0.43273059492E+02 -0.20012905804E+02  0.20046514087E+03  0.26851013984E+03  0.17215791708E+03 0.  0.
         24    2    3    3    0    0  0.32109297363E+02 -0.42797317469E+02  0.11470075750E+03  0.15198010682E+03  0.84137219694E+02 0.  0.
         -6    2    1    2    0  502  0.43273059492E+02  0.20012905804E+02  0.24647074283E+03  0.30132661212E+03  0.16666381139E+03 0.  0.
        -24    2    5    5    0    0  0.51916134035E+02  0.62980944416E+02  0.22475933532E+03  0.25218975940E+03  0.80131339681E+02 0.  0.
          5    1    3    3  501    0 -0.75382356854E+02  0.22784411665E+02  0.85764383369E+02  0.11653003302E+03  0.47000000000E+01 0. -1.
        -13    1    4    4    0    0  0.10286404354E+02  0.22252853224E+02  0.93122136235E+01  0.26224357260E+02  0.00000000000E+00 0.  1.
         14    1    4    4    0    0  0.21822893008E+02 -0.65050170693E+02  0.10538854388E+03  0.12575574956E+03  0.00000000000E+00 0. -1.
         -5    1    5    5    0  502 -0.86430745431E+01 -0.42968038612E+02  0.21711407510E+02  0.49136852725E+02  0.47000000000E+01 0.  1.
         13    1    6    6    0    0  0.14661701005E+02  0.38527550064E+01  0.14644304056E+03  0.14722558652E+03  0.00000000000E+00 0. -1.
        -14    1    6    6    0    0  0.37254433029E+02  0.59128189409E+02  0.78316294761E+02  0.10496417288E+03  0.00000000000E+00 0.  1.
</event>
<event>
12    1  0.1035051E+000  0.2373964E+03  0.7818608E-02  0.1121877E+00
         21   -1    0    0  503  502  0.00000000000E+00  0.00000000000E+00  0.10700203552E+03  0.10700203552E+03  0.00000000000E+00 0. -1.
         21   -1    0    0  501  503 -0.00000000000E+00 -0.00000000000E+00 -0.52329783174E+03  0.52329783174E+03  0.00000000000E+00 0. -1.
          6    2    1    2  501    0 -0.11390868567E+03  0.11346098239E+03 -0.19519474798E+03  0.30734026556E+03  0.17466672838E+03 0.  0.
         24    2    3    3    0    0  0.65093010240E+01  0.13725649054E+02 -0.61406538980E+02  0.10150294363E+03  0.79380854705E+02 0.  0.
         -6    2    1    2    0  502  0.11390868567E+03 -0.11346098239E+03 -0.22110104825E+03  0.32295960170E+03  0.17195536513E+03 0.  0.
        -24    2    5    5    0    0  0.12259607162E+03 -0.30510531310E+02 -0.16829479407E+03  0.22413228519E+03  0.77145669050E+02 0.  0.
          5    1    3    3  501    0 -0.12041798669E+03  0.99735333333E+02 -0.13378820900E+03  0.20583732193E+03  0.47000000000E+01 0. -1.
        -11    1    4    4    0    0  0.28904281865E+02  0.36879160982E+02 -0.46483967161E+02  0.66002191084E+02  0.00000000000E+00 0.  1.
         12    1    4    4    0    0 -0.22394980841E+02 -0.23153511928E+02 -0.14922571819E+02  0.35500752544E+02  0.00000000000E+00 0. -1.
         -5    1    5    5    0  502 -0.86873859566E+01 -0.82950451077E+02 -0.52806254178E+02  0.98827316511E+02  0.47000000000E+01 0.  1.
         13    1    6    6    0    0  0.68241348382E+02 -0.51415268457E+02 -0.12566414848E+03  0.15196015818E+03  0.00000000000E+00 0. -1.
        -14    1    6    6    0    0  0.54354723241E+02  0.20904737146E+02 -0.42630645590E+02  0.72172127011E+02  0.00000000000E+00 0.  1.
</event>
<event>
12    1  0.1035051E+000  0.1780358E+03  0.7818608E-02  0.1170489E+00
         21   -1    0    0  501  502  0.00000000000E+00  0.00000000000E+00  0.17638036832E+04  0.17638036832E+04  0.00000000000E+00 0. -1.
         21   -1    0    0  502  503 -0.00000000000E+00 -0.00000000000E+00 -0.18239935297E+02  0.18239935297E+02  0.00000000000E+00 0. -1.
         -6    2    1    2    0  503  0.32752638761E+02  0.18878548817E+01  0.70615139166E+03  0.72749404792E+03  0.17181822509E+03 0.  0.
        -24    2    3    3    0    0 -0.34118296560E+01 -0.53462672095E+02  0.51215284620E+03  0.52248410852E+03  0.88426285087E+02 0.  0.
          6    2    1    2  501    0 -0.32752638761E+02 -0.18878548817E+01  0.10394123562E+04  0.10545495706E+04  0.17498700280E+03 0.  0.
         24    2    5    5    0    0  0.47812811030E+02 -0.20647039048E+02  0.54200986445E+03  0.55029365586E+03  0.79599305224E+02 0.  0.
          5    1    5    5  501    0 -0.80565449791E+02  0.18759184166E+02  0.49740249176E+03  0.50425591469E+03  0.47000000000E+01 0. -1.
        -11    1    6    6    0    0 -0.17658337159E+02 -0.15426005738E+02  0.24442544304E+03  0.24554750198E+03  0.00000000000E+00 0.  1.
         12    1    6    6    0    0  0.65471148189E+02 -0.52210333092E+01  0.29758442141E+03  0.30474615388E+03  0.00000000000E+00 0. -1.
         -5    1    3    3    0  503  0.36164468417E+02  0.55350526977E+02  0.19399854546E+03  0.20500993940E+03  0.47000000000E+01 0.  1.
         11    1    4    4    0    0  0.36288246537E+02 -0.14365610240E+02  0.32136626058E+03  0.32372747958E+03  0.00000000000E+00 0. -1.
        -12    1    4    4    0    0 -0.39700076193E+02 -0.39097061855E+02  0.19078658562E+03  0.19875662894E+03  0.00000000000E+00 0.  1.
</event>
<event>
12    1  0.1035051E+000  0.1933280E+03  0.7818608E-02  0.1155506E+00
         21   -1    0    0  503  502  0.00000000000E+00  0.00000000000E+00  0.21679463198E+04  0.21679463198E+04  0.00000000000E+00 0.  1.
         21   -1    0    0  501  503 -0.00000000000E+00 -0.00000000000E+00 -0.24409552699E+02  0.24409552699E+02  0.00000000000E+00 0.  1.
          6    2    1    2  501    0  0.12307536464E+02  0.87092910633E+02  0.16659477873E+04  0.16771210385E+04  0.17209386170E+03 0.  0.
         24    2    3    3    0    0  0.59595242585E+02  0.16907604514E+02  0.11144320709E+04  0.11191301965E+04  0.81584900488E+02 0.  0.
         -6    2    1    2    0  502 -0.12307536464E+02 -0.87092910633E+02  0.47758897985E+03  0.51523483405E+03  0.17215995471E+03 0.  0.
        -24    2    5    5    0    0 -0.25669033174E+02 -0.72320911958E+02  0.14911919322E+03  0.18612811538E+03  0.80733685535E+02 0.  0.
          5    1    3    3  501    0 -0.47287706120E+02  0.70185306119E+02  0.55151571639E+03  0.55799084201E+03  0.47000000000E+01 0. -1.
        -13    1    4    4    0    0  0.65434191633E+02  0.47275367811E+01  0.47000350790E+03  0.47456009153E+03  0.00000000000E+00 0.  1.
         14    1    4    4    0    0 -0.58389490488E+01  0.12180067733E+02  0.64442856300E+03  0.64457010494E+03  0.00000000000E+00 0. -1.
         -5    1    5    5    0  502  0.13361496710E+02 -0.14771998675E+02  0.32846978663E+03  0.32910671866E+03  0.47000000000E+01 0.  1.
         13    1    6    6    0    0 -0.39498308152E+02 -0.11975127303E+02  0.96210192567E+02  0.10468964215E+03  0.00000000000E+00 0. -1.
        -14    1    6    6    0    0  0.13829274977E+02 -0.60345784656E+02  0.52909000652E+02  0.81438473230E+02  0.00000000000E+00 0.  1.
</event>
<event>
12    1  0.1035051E+000  0.3720172E+03  0.7818608E-02  0.1054204E+00
         21   -1    0    0  503  502  0.00000000000E+00  0.00000000000E+00  0.12493871952E+03  0.12493871952E+03  0.00000000000E+00 0. -1.
         21   -1    0    0  501  503 -0.00000000000E+00 -0.00000000000E+00 -0.15220787643E+04  0.15220787643E+04  0.00000000000E+00 0. -1.
          6    2    1    2  501    0  0.32440603723E+03 -0.60516538376E+02 -0.11307397129E+04  0.11894522833E+04  0.16529642320E+03 0.  0.
         24    2    3    3    0    0  0.15806950272E+03 -0.63750475694E+02 -0.74761594677E+03  0.77173921044E+03  0.87187810133E+02 0.  0.
         -6    2    1    2    0  502 -0.32440603723E+03  0.60516538376E+02 -0.26640033184E+03  0.45756520047E+03  0.17174180466E+03 0.  0.
        -24    2    5    5    0    0 -0.23587080816E+03  0.32006580001E+02 -0.10673455902E+03  0.27272323142E+03  0.79537636127E+02 0.  0.
          5    1    3    3  501    0  0.16633653451E+03  0.32339373177E+01 -0.38312376614E+03  0.41771307287E+03  0.47000000000E+01 0. -1.
        -13    1    4    4    0    0  0.46203424444E+02  0.17234737363E+02 -0.27386163986E+03  0.27826604246E+03  0.00000000000E+00 0.  1.
         14    1    4    4    0    0  0.11186607828E+03 -0.80985213057E+02 -0.47375430691E+03  0.49347316798E+03  0.00000000000E+00 0. -1.
         -5    1    5    5    0  502 -0.88535229072E+02  0.28509958376E+02 -0.15966577282E+03  0.18484196906E+03  0.47000000000E+01 0.  1.
         11    1    6    6    0    0 -0.91363721623E+02 -0.26404741576E+02 -0.40108657940E+02  0.10321455541E+03  0.00000000000E+00 0. -1.
        -12    1    6    6    0    0 -0.14450708654E+03  0.58411321577E+02 -0.66625901081E+02  0.16950867601E+03  0.00000000000E+00 0.  1.
</event>
<event>
12    1  0.1035051E+000  0.2154552E+03  0.7818608E-02  0.1137978E+00
         21   -1    0    0  501  502  0.00000000000E+00  0.00000000000E+00  0.36631637255E+03  0.36631637255E+03  0.00000000000E+00 0. -1.
         21   -1    0    0  502  503 -0.00000000000E+00 -0.00000000000E+00 -0.15576716749E+03  0.15576716749E+03  0.00000000000E+00 0. -1.
         -6    2    1    2    0  503 -0.12414342480E+03  0.15204339267E+02  0.22113839649E+03  0.30636824810E+03  0.17122076740E+03 0.  0.
        -24    2    3    3    0    0 -0.71357254948E+02 -0.73210986527E+00  0.40501112368E+02  0.11744427251E+03  0.84026324591E+02 0.  0.
          6    2    1    2  501    0  0.12414342480E+03 -0.15204339267E+02 -0.10589191428E+02  0.21571529194E+03  0.17543715214E+03 0.  0.
         24    2    5    5    0    0  0.49662596532E+02 -0.73503401378E+02 -0.18132282968E+02  0.12071443588E+03  0.79837784513E+02 0.  0.
          5    1    5    5  501    0  0.74480828269E+02  0.58299062112E+02  0.75430915393E+01  0.95000856063E+02  0.47000000000E+01 0. -1.
        -13    1    6    6    0    0  0.12296841780E+02  0.82490041126E+01 -0.26585398226E+02  0.30430934679E+02  0.00000000000E+00 0.  1.
         14    1    6    6    0    0  0.37365754751E+02 -0.81752405491E+02  0.84531152583E+01  0.90283501202E+02  0.00000000000E+00 0. -1.
         -5    1    3    3    0  503 -0.52786169852E+02  0.15936449132E+02  0.18063728412E+03  0.18892397559E+03  0.47000000000E+01 0.  1.
         13    1    4    4    0    0  0.17218013507E+02  0.46818972658E+01  0.19143592754E+02  0.26169778270E+02  0.00000000000E+00 0. -1.
        -14    1    4    4    0    0 -0.88575268456E+02 -0.54140071311E+01  0.21357519614E+02  0.91274494243E+02  0.00000000000E+00 0.  1.
</event>
<event>
12    1  0.1035051E+000  0.3256810E+03  0.7818608E-02  0.1073159E+00
         21   -1    0    0  503  502  0.00000000000E+00  0.00000000000E+00  0.17528502723E+03  0.17528502723E+03  0.00000000000E+00 0. -1.
         21   -1    0    0  501  503 -0.00000000000E+00 -0.00000000000E+00 -0.60459699250E+03  0.60459699250E+03  0.00000000000E+00 0. -1.
          6    2    1    2  501    0 -0.12146979838E+03 -0.24640571625E+03 -0.19871954060E+03  0.38152008945E+03  0.17492122204E+03 0.  0.
         24    2    3    3    0    0 -0.21363103326E+02 -0.15466402392E+03 -0.98543905706E+02  0.21271506485E+03  0.10563832156E+03 0.  0.
         -6    2    1    2    0  502  0.12146979838E+03  0.24640571625E+03 -0.23059242467E+03  0.39836193028E+03  0.17334552854E+03 0.  0.
        -24    2    5    5    0    0  0.54169861046E+02  0.21475837155E+03 -0.11778007739E+03  0.26316003795E+03  0.79533181426E+02 0.  0.
          5    1    3    3  501    0 -0.10010669505E+03 -0.91741692333E+02 -0.10017563490E+03  0.16880502461E+03  0.47000000000E+01 0. -1.
        -13    1    4    4    0    0 -0.31358273679E+02 -0.86821008453E+00 -0.33083898936E+01  0.31544263512E+02  0.00000000000E+00 0.  1.
         14    1    4    4    0    0  0.99951703526E+01 -0.15379581384E+03 -0.95235515812E+02  0.18117080133E+03  0.00000000000E+00 0. -1.
         -5    1    5    5    0  502  0.67299937330E+02  0.31647344701E+02 -0.11281234728E+03  0.13520189233E+03  0.47000000000E+01 0.  1.
         11    1    6    6    0    0 -0.14830101589E+01 -0.63908771092E+01 -0.14428381493E+00  0.65622745429E+01  0.00000000000E+00 0. -1.
        -12    1    6    6    0    0  0.55652871205E+02  0.22114924866E+03 -0.11763579358E+03  0.25659776341E+03  0.00000000000E+00 0.  1.
</event>
<event>
12    1  0.1035051E+000  0.2421069E+03  0.7818608E-02  0.1118492E+00
         21   -1    0    0  503  502  0.00000000000E+00  0.00000000000E+00  0.56860153721E+03  0.56860153721E+03  0.00000000000E+00 0. -1.
         21   -1    0    0  501  503 -0.00000000000E+00 -0.00000000000E+00 -0.10310412311E+03  0.10310412311E+03  0.00000000000E+00 0. -1.
          6    2    1    2  501    0  0.11431383026E+03  0.12542925474E+03  0.21552787834E+03  0.32371068928E+03  0.17186097370E+03 0.  0.
         24    2    3    3    0    0  0.10806725293E+03  0.11671197489E+03  0.92761797947E+02  0.20038749118E+03  0.79058075014E+02 0.  0.
         -6    2    1    2    0  502 -0.11431383026E+03 -0.12542925474E+03  0.24996953576E+03  0.34799497103E+03  0.17267188920E+03 0.  0.
        -24    2    5    5    0    0 -0.44791720138E+02 -0.53238723826E+02  0.21754583973E+03  0.24255217794E+03  0.81637655130E+02 0.  0.
          5    1    3    3  501    0  0.62465773259E+01  0.87172798556E+01  0.12276608039E+03  0.12332319810E+03  0.47000000000E+01 0. -1.
        -11    1    4    4    0    0  0.19467152147E+02  0.50642936959E+02  0.68236043997E+02  0.87177031246E+02  0.00000000000E+00 0.  1.
         12    1    4    4    0    0  0.88600100784E+02  0.66069037927E+02  0.24525753951E+02  0.11321045993E+03  0.00000000000E+00 0. -1.
         -5    1    5    5    0  502 -0.69522110118E+02 -0.72190530916E+02  0.32423696035E+02  0.10544279309E+03  0.47000000000E+01 0.  1.
         11    1    6    6    0    0 -0.52364939866E+02 -0.66628396870E+02  0.20760979802E+03  0.22423928833E+03  0.00000000000E+00 0. -1.
        -12    1    6    6    0    0  0.75732197273E+01  0.13389673043E+02  0.99360417085E+01  0.18312889616E+02  0.00000000000E+00 0.  1.
</event>
<event>
12    1  0.1035051E+000  0.1875086E+03  0.7818608E-02  0.1161170E+00
         21   -1    0    0  503  502  0.00000000000E+00  0.00000000000E+00  0.16614946310E+04  0.16614946310E+04  0.00000000000E+00 0. -1.
         21   -1    0    0  501  503 -0.00000000000E+00 -0.00000000000E+00 -0.21685531475E+02  0.21685531475E+02  0.00000000000E+00 0. -1.
          6    2    1    2  501    0 -0.35488763034E+02 -0.58850474266E+02  0.97941226998E+03  0.99720002278E+03  0.17446105645E+03 0.  0.
         24    2    3    3    0    0 -0.82535769002E+01 -0.44568829382E+01  0.19571758487E+03  0.21113395201E+03  0.78639604061E+02 0.  0.
         -6    2    1    2    0  502  0.35488763034E+02  0.58850474266E+02  0.66039682956E+03  0.68598013971E+03  0.17240054804E+03 0.  0.
        -24    2    5    5    0    0 -0.35395419258E+01  0.63600126330E+02  0.20763664168E+03  0.23149180597E+03  0.80112276432E+02 0.  0.
          5    1    3    3  501    0 -0.27235186134E+02 -0.54393591328E+02  0.78369468511E+03  0.78606607077E+03  0.47000000000E+01 0. -1.
        -11    1    4    4    0    0  0.32735285547E+02  0.11321678742E+02  0.99764076140E+02  0.10560610881E+03  0.00000000000E+00 0.  1.
         12    1    4    4    0    0 -0.40988862448E+02 -0.15778561680E+02  0.95953508732E+02  0.10552784320E+03  0.00000000000E+00 0. -1.
         -5    1    5    5    0  502  0.39028304960E+02 -0.47496520641E+01  0.45276018788E+03  0.45448833375E+03  0.47000000000E+01 0.  1.
         13    1    6    6    0    0 -0.12161058018E+02 -0.13245041356E+01 -0.15139723151E+01  0.12326303399E+02  0.00000000000E+00 0. -1.
        -14    1    6    6    0    0  0.86215160921E+01  0.64924630466E+02  0.20915061400E+03  0.21916550257E+03  0.00000000000E+00 0.  1.
</event>
<event>
12    1  0.1035051E+000  0.1903671E+03  0.7818608E-02  0.1160826E+00
         21   -1    0    0  501  502  0.00000000000E+00  0.00000000000E+00  0.41590156564E+03  0.41590156564E+03  0.00000000000E+00 0. -1.
         21   -1    0    0  502  503 -0.00000000000E+00 -0.00000000000E+00 -0.95849600139E+02  0.95849600139E+02  0.00000000000E+00 0. -1.
         -6    2    1    2    0  503  0.15298119404E+02 -0.46054845758E+02  0.26185078746E+03  0.32373674137E+03  0.18407759654E+03 0.  0.
        -24    2    3    3    0    0  0.60166556525E+02  0.20154161085E+02  0.96485169753E+02  0.13998504273E+03  0.79121548721E+02 0.  0.
          6    2    1    2  501    0 -0.15298119404E+02  0.46054845758E+02  0.58201178043E+02  0.18801442440E+03  0.17206674688E+03 0.  0.
         24    2    5    5    0    0  0.26318462534E+02  0.60730165323E+02 -0.12290242093E+02  0.10471715428E+03  0.80211083401E+02 0.  0.
          5    1    5    5  501    0 -0.41616581938E+02 -0.14675319565E+02  0.70491420135E+02  0.83297270119E+02  0.47000000000E+01 0. -1.
        -11    1    6    6    0    0 -0.23261448291E+02  0.40430181766E+02 -0.19697271319E+02  0.50632766778E+02  0.00000000000E+00 0.  1.
         12    1    6    6    0    0  0.49579910826E+02  0.20299983558E+02  0.74070292265E+01  0.54084387506E+02  0.00000000000E+00 0. -1.
         -5    1    3    3    0  503 -0.44868437120E+02 -0.66209006843E+02  0.16536561770E+03  0.18375169865E+03  0.47000000000E+01 0.  1.
         11    1    4    4    0    0  0.45114635082E+02 -0.22005962325E+01  0.59918314246E+01  0.45563965654E+02  0.00000000000E+00 0. -1.
        -12    1    4    4    0    0  0.15051921443E+02  0.22354757317E+02  0.90493338328E+02  0.94421077073E+02  0.00000000000E+00 0.  1.
</event>
<event>
12    1  0.1035051E+000  0.2120630E+03  0.7818608E-02  0.1140004E+00
         21   -1    0    0  503  502  0.00000000000E+00  0.00000000000E+00  0.31005491989E+03  0.31005491989E+03  0.00000000000E+00 0. -1.
         21   -1    0    0  501  503 -0.00000000000E+00 -0.00000000000E+00 -0.16424840456E+03  0.16424840456E+03  0.00000000000E+00 0. -1.
          6    2    1    2  501    0 -0.90642241433E+02 -0.85254097918E+02  0.15440459956E+03  0.26206605234E+03  0.17132880167E+03 0.  0.
         24    2    3    3    0    0 -0.25495725166E+02 -0.13382453210E+02  0.76930085876E+01  0.86122928521E+02  0.80801326599E+02 0.  0.
         -6    2    1    2    0  502  0.90642241433E+02  0.85254097918E+02 -0.85980842212E+01  0.21223727211E+03  0.17171620621E+03 0.  0.
        -24    2    5    5    0    0  0.83885138501E+02  0.12624981136E+03 -0.64680077981E+01  0.17036921524E+03  0.77511954207E+02 0.  0.
          5    1    3    3  501    0 -0.65146516267E+02 -0.71871644708E+02  0.14671159097E+03  0.17594312382E+03  0.47000000000E+01 0. -1.
        -13    1    4    4    0    0 -0.32019002333E+02 -0.33926391510E+02 -0.20230644380E+02  0.50847768125E+02  0.00000000000E+00 0.  1.
         14    1    4    4    0    0  0.65232771672E+01  0.20543938299E+02  0.27923652968E+02  0.35275160395E+02  0.00000000000E+00 0. -1.
         -5    1    5    5    0  502  0.67571029325E+01 -0.40995713443E+02 -0.21300764232E+01  0.41868056873E+02  0.47000000000E+01 0.  1.
         13    1    6    6    0    0  0.68639829115E+02  0.12467008206E+03 -0.26890638396E+02  0.14483494721E+03  0.00000000000E+00 0. -1.
        -14    1    6    6    0    0  0.15245309386E+02  0.15797293060E+01  0.20422630598E+02  0.25534268023E+02  0.00000000000E+00 0.  1.
</event>
<event>
12    1  0.1035051E+000  0.2639203E+03  0.7818608E-02  0.1105130E+00
         21   -1    0    0  501  502  0.00000000000E+00  0.00000000000E+00  0.50830841741E+03  0.50830841741E+03  0.00000000000E+00 0. -1.
         21   -1    0    0  502  503 -0.00000000000E+00 -0.00000000000E+00 -0.45239863629E+03  0.45239863629E+03  0.00000000000E+00 0. -1.
         -6    2    1    2    0  503  0.82836425347E+02 -0.17987782602E+03  0.42968969546E+03  0.50314248761E+03  0.17117599947E+03 0.  0.
        -24    2    3    3    0    0  0.72158116535E+02 -0.35763492826E+02  0.15386345153E+03  0.19171805994E+03  0.81215956488E+02 0.  0.
          6    2    1    2  501    0 -0.82836425347E+02  0.17987782602E+03 -0.37377991434E+03  0.45756456610E+03  0.17445917038E+03 0.  0.
         24    2    5    5    0    0 -0.53439281048E+02  0.16414694423E+02 -0.15041628559E+03  0.17918032062E+03  0.79720319708E+02 0.  0.
          5    1    5    5  501    0 -0.29397144299E+02  0.16346313159E+03 -0.22336362875E+03  0.27838424548E+03  0.47000000000E+01 0. -1.
        -11    1    6    6    0    0 -0.65983335073E+02  0.35130071210E+02 -0.11234709845E+03  0.13494366580E+03  0.00000000000E+00 0.  1.
         12    1    6    6    0    0  0.12544054025E+02 -0.18715376787E+02 -0.38069187144E+02  0.44236654817E+02  0.00000000000E+00 0. -1.
         -5    1    3    3    0  503  0.10678308812E+02 -0.14411433319E+03  0.27582624393E+03  0.31142442767E+03  0.47000000000E+01 0.  1.
         11    1    4    4    0    0  0.27271487891E+02 -0.38033904372E+02  0.20699352760E+02  0.51173969342E+02  0.00000000000E+00 0. -1.
        -12    1    4    4    0    0  0.44886628644E+02  0.22704115464E+01  0.13316409877E+03  0.14054409060E+03  0.00000000000E+00 0.  1.
</event>
<event>
12    1  0.1035051E+000  0.4532543E+03  0.7818608E-02  0.1026767E+00
         21   -1    0    0  501  502  0.00000000000E+00  0.00000000000E+00  0.92381771421E+02  0.92381771421E+02  0.00000000000E+00 0.  1.
         21   -1    0    0  502  503 -0.00000000000E+00 -0.00000000000E+00 -0.22831868468E+04  0.22831868468E+04  0.00000000000E+00 0.  1.
         -6    2    1    2    0  503 -0.11048369190E+03 -0.40432915068E+03 -0.12883424617E+04  0.13657473303E+04  0.17248409596E+03 0.  0.
        -24    2    3    3    0    0 -0.10906867904E+03 -0.31919195812E+03 -0.11667469669E+04  0.12172283141E+04  0.81035800829E+02 0.  0.
          6    2    1    2  501    0  0.11048369190E+03  0.40432915068E+03 -0.90246261360E+03  0.10098212878E+04  0.17208008646E+03 0.  0.
         24    2    5    5    0    0  0.76191309431E+01  0.25213629656E+03 -0.45917701307E+03  0.52995881131E+03  0.79887728396E+02 0.  0.
          5    1    5    5  501    0  0.10286456096E+03  0.15219285412E+03 -0.44328560053E+03  0.47986247653E+03  0.47000000000E+01 0. -1.
        -11    1    6    6    0    0  0.10249014990E+02  0.18894316055E+02 -0.95625093334E+02  0.98011203250E+02  0.00000000000E+00 0.  1.
         12    1    6    6    0    0 -0.26298840473E+01  0.23324198051E+03 -0.36355191974E+03  0.43194760806E+03  0.00000000000E+00 0. -1.
         -5    1    3    3    0  503 -0.14150128553E+01 -0.85137192560E+02 -0.12159549482E+03  0.14851901622E+03  0.47000000000E+01 0.  1.
         13    1    4    4    0    0 -0.78235744142E+02 -0.19643430511E+03 -0.58963482462E+03  0.62639962827E+03  0.00000000000E+00 0. -1.
        -14    1    4    4    0    0 -0.30832934903E+02 -0.12275765301E+03 -0.57711214230E+03  0.59082868586E+03  0.00000000000E+00 0.  1.
</event>
<event>
12    1  0.1035051E+000  0.1784026E+03  0.7818608E-02  0.1170216E+00
         21   -1    0    0  503  502  0.00000000000E+00  0.00000000000E+00  0.29862671924E+03  0.29862671924E+03  0.00000000000E+00 0. -1.
         21   -1    0    0  501  503 -0.00000000000E+00 -0.00000000000E+00 -0.10781271832E+03  0.10781271832E+03  0.00000000000E+00 0. -1.
          6    2    1    2  501    0 -0.42863843761E+02  0.76750202278E+01  0.58968797957E+02  0.18460473481E+03  0.16942660341E+03 0.  0.
         24    2    3    3    0    0 -0.39957246288E+02 -0.58392470022E+02  0.57858975179E+02  0.11829724441E+03  0.75102030198E+02 0.  0.
         -6    2    1    2    0  502  0.42863843761E+02 -0.76750202278E+01  0.13184520296E+03  0.22183470276E+03  0.17300653966E+03 0.  0.
        -24    2    5    5    0    0  0.96043068942E+02  0.50202403449E+01  0.10450180462E+03  0.16052441761E+03  0.74819700452E+02 0.  0.
          5    1    3    3  501    0 -0.29065974735E+01  0.66067490250E+02  0.11098227785E+01  0.66307490402E+02  0.47000000000E+01 0. -1.
        -11    1    4    4    0    0 -0.63202362565E+01 -0.67603708436E+02  0.33171236618E+02  0.75568099880E+02  0.00000000000E+00 0.  1.
         12    1    4    4    0    0 -0.33637010031E+02  0.92112384144E+01  0.24687738561E+02  0.42729144529E+02  0.00000000000E+00 0. -1.
         -5    1    5    5    0  502 -0.53179225181E+02 -0.12695260573E+02  0.27343398339E+02  0.61310285145E+02  0.47000000000E+01 0.  1.
         13    1    6    6    0    0  0.17529232710E+02 -0.29485122788E+02  0.42919961512E+02  0.54943330454E+02  0.00000000000E+00 0. -1.
        -14    1    6    6    0    0  0.78513836232E+02  0.34505363132E+02  0.61581843111E+02  0.10558108716E+03  0.00000000000E+00 0.  1.
</event>
<event>
12    1  0.1035051E+000  0.2457974E+03  0.7818608E-02  0.1116026E+00
         21   -1    0    0  503  502  0.00000000000E+00  0.00000000000E+00  0.19140360629E+03  0.19140360629E+03  0.00000000000E+00 0. -1.
         21   -1    0    0  501  503 -0.00000000000E+00 -0.00000000000E+00 -0.51641657187E+03  0.51641657187E+03  0.00000000000E+00 0. -1.
          6    2    1    2  501    0 -0.16342034166E+03 -0.62160522534E+02  0.58362316312E+02  0.25241599790E+03  0.17244575205E+03 0.  0.
         24    2    3    3    0    0 -0.17996909750E+03 -0.82058058517E+02  0.67523233391E+02  0.22456306880E+03  0.82138808119E+02 0.  0.
         -6    2    1    2    0  502  0.16342034166E+03  0.62160522534E+02 -0.38337528189E+03  0.45540418026E+03  0.17276059157E+03 0.  0.
        -24    2    5    5    0    0  0.76296089453E+02  0.38983322241E+02 -0.33084373202E+03  0.35095576395E+03  0.79822180866E+02 0.  0.
          5    1    3    3  501    0  0.16548755837E+02  0.19897535983E+02 -0.91609170788E+01  0.27852929104E+02  0.47000000000E+01 0. -1.
        -13    1    4    4    0    0 -0.41155371535E+02 -0.38285020162E+02 -0.13737458860E+02  0.57863850122E+02  0.00000000000E+00 0.  1.
         14    1    4    4    0    0 -0.13881372596E+03 -0.43773038355E+02  0.81260692251E+02  0.16669921868E+03  0.00000000000E+00 0. -1.
         -5    1    5    5    0  502  0.87124252207E+02  0.23177200293E+02 -0.52531549873E+02  0.10444841630E+03  0.47000000000E+01 0.  1.
         13    1    6    6    0    0  0.38264372463E+02  0.41087032305E+02 -0.83025769724E+02  0.10022766515E+03  0.00000000000E+00 0. -1.
        -14    1    6    6    0    0  0.38031716990E+02 -0.21037100632E+01 -0.24781796229E+03  0.25072809880E+03  0.00000000000E+00 0.  1.
</event>
<event>
12    1  0.1035051E+000  0.2078888E+03  0.7818608E-02  0.1143508E+00
         21   -1    0    0  503  502  0.00000000000E+00  0.00000000000E+00  0.14853142952E+03  0.14853142952E+03  0.00000000000E+00 0.  1.
         21   -1    0    0  501  503 -0.00000000000E+00 -0.00000000000E+00 -0.28957784734E+03  0.28957784734E+03  0.00000000000E+00 0.  1.
          6    2    1    2  501    0 -0.59189234984E+02 -0.10157320400E+03 -0.62058943793E+02  0.21572049000E+03  0.16989271907E+03 0.  0.
         24    2    3    3    0    0 -0.90892005116E+02 -0.28911081210E+02 -0.30534074530E+02  0.13027602205E+03  0.83320495689E+02 0.  0.
         -6    2    1    2    0  502  0.59189234984E+02  0.10157320400E+03 -0.78987474018E+02  0.22238878686E+03  0.17145632143E+03 0.  0.
        -24    2    5    5    0    0  0.42423300094E+02  0.13979420877E+03 -0.67163932714E+02  0.17875591041E+03  0.78105854148E+02 0.  0.
          5    1    3    3  501    0  0.31702770133E+02 -0.72662122790E+02 -0.31524869263E+02  0.85444467957E+02  0.47000000000E+01 0. -1.
        -13    1    4    4    0    0 -0.89170380686E+02 -0.18204038138E+02 -0.53008747302E+02  0.10532175030E+03  0.00000000000E+00 0.  1.
         14    1    4    4    0    0 -0.17216244301E+01 -0.10707043072E+02  0.22474672772E+02  0.24954271743E+02  0.00000000000E+00 0. -1.
         -5    1    5    5    0  502  0.16765934890E+02 -0.38221004768E+02 -0.11823541304E+02  0.43632876448E+02  0.47000000000E+01 0.  1.
         11    1    6    6    0    0  0.35901367745E+02  0.13297309186E+03 -0.82643798542E+02  0.16062611495E+03  0.00000000000E+00 0. -1.
        -12    1    6    6    0    0  0.65219323490E+01  0.68211169055E+01  0.15479865828E+02  0.18129795461E+02  0.00000000000E+00 0.  1.
</event>
<event>
12    1  0.1035051E+000  0.2094283E+03  0.7818608E-02  0.1142044E+00
         21   -1    0    0  501  502  0.00000000000E+00  0.00000000000E+00  0.19493778762E+03  0.19493778762E+03  0.00000000000E+00 0. -1.
         21   -1    0    0  502  503 -0.00000000000E+00 -0.00000000000E+00 -0.32457327997E+03  0.32457327997E+03  0.00000000000E+00 0. -1.
         -6    2    1    2    0  503  0.11745137038E+03 -0.20649143903E+02 -0.20877740730E+03  0.29562791234E+03  0.17200768938E+03 0.  0.
        -24    2    3    3    0    0  0.62101371932E+02  0.42606207546E+02 -0.17025411485E+03  0.20304823921E+03  0.81057106443E+02 0.  0.
          6    2    1    2  501    0 -0.11745137038E+03  0.20649143903E+02  0.79141914942E+02  0.22388315526E+03  0.17215984712E+03 0.  0.
         24    2    5    5    0    0 -0.38032919624E+02 -0.38993856709E+02  0.80337414513E+02  0.12444424405E+03  0.77879688433E+02 0.  0.
          5    1    5    5  501    0 -0.79418450759E+02  0.59643000612E+02 -0.11954995712E+01  0.99438911208E+02  0.47000000000E+01 0. -1.
        -13    1    6    6    0    0 -0.26594310584E+02 -0.36115997407E+02  0.16539327553E+01  0.44881601105E+02  0.00000000000E+00 0.  1.
         14    1    6    6    0    0 -0.11438609040E+02 -0.28778593017E+01  0.78683481758E+02  0.79562642945E+02  0.00000000000E+00 0. -1.
         -5    1    3    3    0  503  0.55349998450E+02 -0.63255351449E+02 -0.38523292444E+02  0.92579673126E+02  0.47000000000E+01 0.  1.
         13    1    4    4    0    0  0.18716308711E+02 -0.23388091202E+02 -0.32048122336E+02  0.43867814706E+02  0.00000000000E+00 0. -1.
        -14    1    4    4    0    0  0.43385063221E+02  0.65994298747E+02 -0.13820599252E+03  0.15918042450E+03  0.00000000000E+00 0.  1.
</event>
<event>
12    1  0.1035051E+000  0.2119175E+03  0.7818608E-02  0.1140445E+00
         21   -1    0    0  501  502  0.00000000000E+00  0.00000000000E+00  0.76567652486E+03  0.76567652486E+03  0.00000000000E+00 0. -1.
         21   -1    0    0  502  503 -0.00000000000E+00 -0.00000000000E+00 -0.58184165032E+02  0.58184165032E+02  0.00000000000E+00 0. -1.
         -6    2    1    2    0  503  0.79139290154E+02 -0.94016950614E+02  0.37037175105E+03  0.42671332877E+03  0.17264650802E+03 0.  0.
        -24    2    3    3    0    0  0.77149579993E+02 -0.48548268974E+01  0.26966548448E+03  0.29211137716E+03  0.81449101345E+02 0.  0.
          6    2    1    2  501    0 -0.79139290154E+02  0.94016950614E+02  0.33712060878E+03  0.39714736112E+03  0.17021606073E+03 0.  0.
         24    2    5    5    0    0  0.10983165382E+02  0.40964735898E+02  0.23149019523E+03  0.24843129358E+03  0.79571713762E+02 0.  0.
          5    1    5    5  501    0 -0.90122455536E+02  0.53052214717E+02  0.10563041355E+03  0.14871606754E+03  0.47000000000E+01 0. -1.
        -11    1    6    6    0    0  0.22960950600E+02  0.56030829523E+02  0.21407683427E+03  0.22247595394E+03  0.00000000000E+00 0.  1.
         12    1    6    6    0    0 -0.11977785218E+02 -0.15066093625E+02  0.17413360963E+02  0.25955339641E+02  0.00000000000E+00 0. -1.
         -5    1    3    3    0  503  0.19897101607E+01 -0.89162123717E+02  0.10070626657E+03  0.13460195161E+03  0.47000000000E+01 0.  1.
         11    1    4    4    0    0  0.69829615056E+02 -0.20687494860E+02  0.26386173760E+03  0.27372826700E+03  0.00000000000E+00 0. -1.
        -12    1    4    4    0    0  0.73199649374E+01  0.15832667962E+02  0.58037468771E+01  0.18383110164E+02  0.00000000000E+00 0.  1.
</event>
<event>
12    1  0.1035051E+000  0.1695859E+03  0.7818608E-02  0.1179428E+00
         21   -1    0    0  501  502  0.00000000000E+00  0.00000000000E+00  0.42569173557E+03  0.42569173557E+03  0.00000000000E+00 0.  1.
         21   -1    0    0  502  503 -0.00000000000E+00 -0.00000000000E+00 -0.93789730761E+02  0.93789730761E+02  0.00000000000E+00 0.  1.
         -6    2    1    2    0  503  0.22232496593E+02  0.57223632541E+01  0.30621225799E+03  0.34796077336E+03  0.16365733563E+03 0.  0.
        -24    2    3    3    0    0  0.55762730357E+02  0.45435437807E+02  0.24485576738E+03  0.26741194465E+03  0.79880787521E+02 0.  0.
          6    2    1    2  501    0 -0.22232496593E+02 -0.57223632541E+01  0.25689746819E+02  0.17152069297E+03  0.16802486626E+03 0.  0.
         24    2    5    5    0    0 -0.25048544145E+02  0.57877635591E+02 -0.83405576723E+00  0.10239405498E+03  0.80663477364E+02 0.  0.
          5    1    5    5  501    0  0.28160475520E+01 -0.63599998845E+02  0.26523802586E+02  0.69126637995E+02  0.47000000000E+01 0. -1.
        -11    1    6    6    0    0  0.23567332643E+02  0.45250999216E+02  0.72031003110E+01  0.51526272445E+02  0.00000000000E+00 0.  1.
         12    1    6    6    0    0 -0.48615876789E+02  0.12626636375E+02 -0.80371560782E+01  0.50867782534E+02  0.00000000000E+00 0. -1.
         -5    1    3    3    0  503 -0.33530233763E+02 -0.39713074553E+02  0.61356490608E+02  0.80548828709E+02  0.47000000000E+01 0.  1.
         13    1    4    4    0    0  0.25248049853E+02 -0.21434905389E+02  0.92537005149E+02  0.98285383005E+02  0.00000000000E+00 0. -1.
        -14    1    4    4    0    0  0.30514680504E+02  0.66870343195E+02  0.15231876223E+03  0.16912656164E+03  0.00000000000E+00 0.  1.
</event>
<event>
12    1  0.1035051E+000  0.2959881E+03  0.7818608E-02  0.1087410E+00
         21   -1    0    0  503  502  0.00000000000E+00  0.00000000000E+00  0.54167300842E+03  0.54167300842E+03  0.00000000000E+00 0. -1.
         21   -1    0    0  501  503 -0.00000000000E+00 -0.00000000000E+00 -0.16574179658E+03  0.16574179658E+03  0.00000000000E+00 0. -1.
          6    2    1    2  501    0 -0.19128330272E+03  0.14579121319E+03  0.24743621029E+03  0.38578964803E+03  0.17252418561E+03 0.  0.
         24    2    3    3    0    0 -0.47669878341E+02  0.27745266715E+02  0.14243393960E+03  0.17223115957E+03  0.79585978990E+02 0.  0.
         -6    2    1    2    0  502  0.19128330272E+03 -0.14579121319E+03  0.12849500154E+03  0.32162515697E+03  0.17055027537E+03 0.  0.
        -24    2    5    5    0    0  0.62565858892E+02 -0.59443527960E+02 -0.73852482679E+00  0.11976506327E+03  0.83036770439E+02 0.  0.
          5    1    3    3  501    0 -0.14361342438E+03  0.11804594647E+03  0.10500227069E+03  0.21355848846E+03  0.47000000000E+01 0. -1.
        -11    1    4    4    0    0 -0.63433234237E+02  0.32928851052E+01  0.71933532741E+02  0.95963802711E+02  0.00000000000E+00 0.  1.
         12    1    4    4    0    0  0.15763355896E+02  0.24452381609E+02  0.70500406860E+02  0.76267356863E+02  0.00000000000E+00 0. -1.
         -5    1    5    5    0  502  0.12871744383E+03 -0.86347685228E+02  0.12923352637E+03  0.20186009370E+03  0.47000000000E+01 0.  1.
         11    1    6    6    0    0 -0.11368108286E+01 -0.55912805891E+02  0.11598325047E+01  0.55936387199E+02  0.00000000000E+00 0. -1.
        -12    1    6    6    0    0  0.63702669720E+02 -0.35307220692E+01 -0.18983573315E+01  0.63828676066E+02  0.00000000000E+00 0.  1.
</event>
<event>
12    1  0.1035051E+000  0.1760478E+03  0.7818608E-02  0.1171697E+00
         21   -1    0    0  501  502  0.00000000000E+00  0.00000000000E+00  0.22195394142E+02  0.22195394142E+02  0.00000000000E+00 0. -1.
         21   -1    0    0  502  503 -0.00000000000E+00 -0.00000000000E+00 -0.14276419268E+04  0.14276419268E+04  0.00000000000E+00 0. -1.
         -6    2    1    2    0  503  0.67406226025E+01 -0.37461941279E+02 -0.81087577841E+03  0.82976644312E+03  0.17188364985E+03 0.  0.
        -24    2    3    3    0    0 -0.58437695564E+02 -0.55678679510E+01 -0.55308358985E+03  0.56191508965E+03  0.80007157209E+02 0.  0.
          6    2    1    2  501    0 -0.67406226025E+01  0.37461941279E+02 -0.59457075421E+03  0.62007087778E+03  0.17182746775E+03 0.  0.
         24    2    5    5    0    0  0.36371609652E+02  0.66433646064E+02 -0.49936259681E+03  0.51151348520E+03  0.80911798476E+02 0.  0.
          5    1    5    5  501    0 -0.43112232254E+02 -0.28971704785E+02 -0.95208157401E+02  0.10855739258E+03  0.47000000000E+01 0. -1.
        -13    1    6    6    0    0 -0.12221195094E+02 -0.72351906591E+01 -0.22898703483E+02  0.26945430310E+02  0.00000000000E+00 0.  1.
         14    1    6    6    0    0  0.48592804746E+02  0.73668836723E+02 -0.47646389332E+03  0.48456805489E+03  0.00000000000E+00 0. -1.
         -5    1    3    3    0  503  0.65178318166E+02 -0.31894073328E+02 -0.25779218856E+03  0.26785135347E+03  0.47000000000E+01 0.  1.
         11    1    4    4    0    0 -0.16438875074E+02  0.45072879700E+01 -0.16929387866E+02  0.24024080254E+02  0.00000000000E+00 0. -1.
        -12    1    4    4    0    0 -0.41998820490E+02 -0.10075155921E+02 -0.53615420198E+03  0.53789100940E+03  0.00000000000E+00 0.  1.
</event>
<event>
12    1  0.1035051E+000  0.1796390E+03  0.7818608E-02  0.1168621E+00
         21   -1    0    0  503  502  0.00000000000E+00  0.00000000000E+00  0.23357024096E+03  0.23357024096E+03  0.00000000000E+00 0. -1.
         21   -1    0    0  501  503 -0.00000000000E+00 -0.00000000000E+00 -0.13929540680E+03  0.13929540680E+03  0.00000000000E+00 0. -1.
          6    2    1    2  501    0  0.26717623426E+02  0.38213138038E+02  0.72889282054E+02  0.19386339542E+03  0.17348225651E+03 0.  0.
         24    2    3    3    0    0  0.71678516684E+02  0.60324370409E+02  0.28036964308E+02  0.12645264756E+03  0.80170825667E+02 0.  0.
         -6    2    1    2    0  502 -0.26717623426E+02 -0.38213138038E+02  0.21385552102E+02  0.17900225234E+03  0.17149457480E+03 0.  0.
        -24    2    5    5    0    0 -0.47952513976E+02  0.44614252645E+01  0.64798375104E+02  0.11435859735E+03  0.80992045657E+02 0.  0.
          5    1    3    3  501    0 -0.44960893259E+02 -0.22111232371E+02  0.44852317746E+02  0.67410747858E+02  0.47000000000E+01 0. -1.
        -11    1    4    4    0    0 -0.22624674628E+01  0.12903601481E+02  0.35943805076E+02  0.38256748601E+02  0.00000000000E+00 0.  1.
         12    1    4    4    0    0  0.73940984147E+02  0.47420768928E+02 -0.79068407672E+01  0.88195898960E+02  0.00000000000E+00 0. -1.
         -5    1    5    5    0  502  0.21234890550E+02 -0.42674563302E+02 -0.43412823002E+02  0.64643654992E+02  0.47000000000E+01 0.  1.
         13    1    6    6    0    0  0.10357394619E+02  0.22931260449E+02  0.42239412201E+02  0.49165905587E+02  0.00000000000E+00 0. -1.
        -14    1    6    6    0    0 -0.58309908595E+02 -0.18469835184E+02  0.22558962903E+02  0.65192691763E+02  0.00000000000E+00 0.  1.
</event>
<event>
12    1  0.1035051E+000  0.2552473E+03  0.7818608E-02  0.1110187E+00
         21   -1    0    0  503  502  0.00000000000E+00  0.00000000000E+00  0.18750142480E+03  0.18750142480E+03  0.00000000000E+00 0.  1.
         21   -1    0    0  501  503 -0.00000000000E+00 -0.00000000000E+00 -0.34881200109E+03  0.34881200109E+03  0.00000000000E+00 0.  1.
          6    2    1    2  501    0  0.10509409230E+03 -0.15433031699E+03 -0.57229429728E+02  0.26158438120E+03  0.17403610512E+03 0.  0.
         24    2    3    3    0    0  0.10740794507E+03 -0.40101197798E+02 -0.21085433005E+02  0.14165888731E+03  0.80486471789E+02 0.  0.
         -6    2    1    2    0  502 -0.10509409230E+03  0.15433031699E+03 -0.10408114656E+03  0.27472904469E+03  0.17257041446E+03 0.  0.
        -24    2    5    5    0    0 -0.18645386457E+02  0.17046225982E+02 -0.72478378859E+02  0.10937752425E+03  0.77923700839E+02 0.  0.
          5    1    3    3  501    0 -0.23138527682E+01 -0.11422911919E+03 -0.36143996724E+02  0.11992549389E+03  0.47000000000E+01 0. -1.
        -13    1    4    4    0    0  0.82951866768E+01  0.13999105522E+02  0.15987539719E+02  0.22811981582E+02  0.00000000000E+00 0.  1.
         14    1    4    4    0    0  0.99112758388E+02 -0.54100303320E+02 -0.37072972724E+02  0.11884690573E+03  0.00000000000E+00 0. -1.
         -5    1    5    5    0  502 -0.86448705840E+02  0.13728409101E+03 -0.31602767706E+02  0.16535152044E+03  0.47000000000E+01 0.  1.
         13    1    6    6    0    0 -0.10898436324E+02  0.16971275032E+02  0.12708441634E+02  0.23839139650E+02  0.00000000000E+00 0. -1.
        -14    1    6    6    0    0 -0.77469501329E+01  0.74950950008E-01 -0.85186820493E+02  0.85538384598E+02  0.00000000000E+00 0.  1.
</event>
<event>
12    1  0.1035051E+000  0.3631520E+03  0.7818608E-02  0.1057453E+00
         21   -1    0    0  501  502  0.00000000000E+00  0.00000000000E+00  0.29654167288E+03  0.29654167288E+03  0.00000000000E+00 0. -1.
         21   -1    0    0  502  503 -0.00000000000E+00 -0.00000000000E+00 -0.57735296247E+03  0.57735296247E+03  0.00000000000E+00 0.  1.
         -6    2    1    2    0  503  0.27919622193E+03 -0.15563633171E+03 -0.35108204154E+03  0.50511185035E+03  0.17235481827E+03 0.  0.
        -24    2    3    3    0    0  0.19345904400E+03 -0.52003681327E+02 -0.26738277820E+03  0.34662447990E+03  0.92326569405E+02 0.  0.
          6    2    1    2  501    0 -0.27919622193E+03  0.15563633171E+03  0.70270751958E+02  0.36878278501E+03  0.16996930855E+03 0.  0.
         24    2    5    5    0    0 -0.20922082604E+03  0.77637073622E+02  0.10445597644E+03  0.25845980524E+03  0.78035573055E+02 0.  0.
          5    1    5    5  501    0 -0.69975395891E+02  0.77999258088E+02 -0.34185224481E+02  0.11032297977E+03  0.47000000000E+01 0. -1.
        -13    1    6    6    0    0 -0.52626779493E+01  0.25111898111E+02  0.14173177730E+02  0.29311809444E+02  0.00000000000E+00 0.  1.
         14    1    6    6    0    0 -0.20395814809E+03  0.52525175511E+02  0.90282798708E+02  0.22914799579E+03  0.00000000000E+00 0. -1.
         -5    1    3    3    0  503  0.85737177932E+02 -0.10363265038E+03 -0.83699263348E+02  0.15848737044E+03  0.47000000000E+01 0.  1.
         11    1    4    4    0    0  0.99185627876E+02 -0.73993710681E+02 -0.14720568802E+03  0.19230801487E+03  0.00000000000E+00 0. -1.
        -12    1    4    4    0    0  0.94273416120E+02  0.21990029354E+02 -0.12017709018E+03  0.15431646504E+03  0.00000000000E+00 0.  1.
</event>
<event>
12    1  0.1035051E+000  0.2033213E+03  0.7818608E-02  0.1147352E+00
         21   -1    0    0  503  502  0.00000000000E+00  0.00000000000E+00  0.59660853795E+03  0.59660853795E+03  0.00000000000E+00 0. -1.
         21   -1    0    0  501  503 -0.00000000000E+00 -0.00000000000E+00 -0.13032448480E+03  0.13032448480E+03  0.00000000000E+00 0. -1.
          6    2    1    2  501    0  0.57818020034E+02  0.87827964225E+02  0.48259425447E+03  0.52295854860E+03  0.17184805603E+03 0.  0.
         24    2    3    3    0    0  0.95854072390E+00  0.11092055281E+03  0.36973676195E+03  0.39440827963E+03  0.80921752717E+02 0.  0.
         -6    2    1    2    0  502 -0.57818020034E+02 -0.87827964225E+02 -0.16310201320E+02  0.20397447415E+03  0.17401979398E+03 0.  0.
        -24    2    5    5    0    0  0.12499701231E+01  0.23654297656E+02 -0.19664663290E+02  0.77678533637E+02  0.71317370834E+02 0.  0.
          5    1    3    3  501    0  0.56859479310E+02 -0.23092588581E+02  0.11285749252E+03  0.12855026897E+03  0.47000000000E+01 0. -1.
        -11    1    4    4    0    0 -0.20872190930E+02  0.21484134918E+01  0.27194174136E+02  0.34348029662E+02  0.00000000000E+00 0.  1.
         12    1    4    4    0    0  0.21830731654E+02  0.10877213931E+03  0.34254258782E+03  0.36006024997E+03  0.00000000000E+00 0. -1.
         -5    1    5    5    0  502 -0.59067990157E+02 -0.11148226188E+03  0.33544619692E+01  0.12629594051E+03  0.47000000000E+01 0.  1.
         13    1    6    6    0    0 -0.27384703444E+02  0.28347611371E+02 -0.26967085771E+02  0.47757017999E+02  0.00000000000E+00 0. -1.
        -14    1    6    6    0    0  0.28634673568E+02 -0.46933137149E+01  0.73024224813E+01  0.29921515637E+02  0.00000000000E+00 0.  1.
</event>
<event>
12    1  0.1035051E+000  0.2078927E+03  0.7818608E-02  0.1143396E+00
         21   -1    0    0  501  502  0.00000000000E+00  0.00000000000E+00  0.26286436492E+03  0.26286436492E+03  0.00000000000E+00 0.  1.
         21   -1    0    0  502  503 -0.00000000000E+00 -0.00000000000E+00 -0.32054870915E+03  0.32054870915E+03  0.00000000000E+00 0.  1.
         -6    2    1    2    0  503  0.11239729158E+03 -0.30491391431E+02 -0.23283858697E+03  0.31214288153E+03  0.17221061176E+03 0.  0.
        -24    2    3    3    0    0  0.12491747114E+03  0.24383596469E+02 -0.17977214410E+03  0.23464348442E+03  0.80874016927E+02 0.  0.
          6    2    1    2  501    0 -0.11239729158E+03  0.30491391431E+02  0.17515424274E+03  0.27127019254E+03  0.17130566979E+03 0.  0.
         24    2    5    5    0    0 -0.46148016217E+02  0.77435495352E+02  0.13324588259E+03  0.17977638930E+03  0.80244561072E+02 0.  0.
          5    1    5    5  501    0 -0.66249275367E+02 -0.46944103921E+02  0.41908360151E+02  0.91493803234E+02  0.47000000000E+01 0. -1.
        -11    1    6    6    0    0  0.20233593994E+02  0.68297170556E+01  0.11783667216E+02  0.24390534518E+02  0.00000000000E+00 0.  1.
         12    1    6    6    0    0 -0.66381610212E+02  0.70605778297E+02  0.12146221538E+03  0.15538585479E+03  0.00000000000E+00 0. -1.
         -5    1    3    3    0  503 -0.12520179561E+02 -0.54874987900E+02 -0.53066442874E+02  0.77499397111E+02  0.47000000000E+01 0.  1.
         13    1    4    4    0    0  0.25378620242E+02 -0.19348238894E+02 -0.10752497269E+02  0.33675583309E+02  0.00000000000E+00 0. -1.
        -14    1    4    4    0    0  0.99538850903E+02  0.43731835364E+02 -0.16901964683E+03  0.20096790111E+03  0.00000000000E+00 0.  1.
</event>
<event>
12    1  0.1035051E+000  0.2316849E+03  0.7818608E-02  0.1125635E+00
         21   -1    0    0  501  502  0.00000000000E+00  0.00000000000E+00  0.22495336410E+03  0.22495336410E+03  0.00000000000E+00 0.  1.
         21   -1    0    0  502  503 -0.00000000000E+00 -0.00000000000E+00 -0.27890812239E+03  0.27890812239E+03  0.00000000000E+00 0.  1.
         -6    2    1    2    0  503 -0.15445808138E+03  0.17086323913E+02 -0.12399723468E+03  0.26277978898E+03  0.17183905819E+03 0.  0.
        -24    2    3    3    0    0 -0.16041738733E+03  0.55513195562E+02 -0.11827025549E+03  0.22319410871E+03  0.83739499568E+02 0.  0.
          6    2    1    2  501    0  0.15445808138E+03 -0.17086323913E+02  0.70042476391E+02  0.24108169750E+03  0.17048517532E+03 0.  0.
         24    2    5    5    0    0  0.70083555186E+02 -0.51190773088E+02 -0.10985609274E+02  0.11913984747E+03  0.80879043554E+02 0.  0.
          5    1    5    5  501    0  0.84374526194E+02  0.34104449174E+02  0.81028085665E+02  0.12194185004E+03  0.47000000000E+01 0. -1.
        -11    1    6    6    0    0  0.28770934768E+02 -0.60336368632E+02  0.16285455731E+02  0.68800146333E+02  0.00000000000E+00 0.  1.
         12    1    6    6    0    0  0.41312620418E+02  0.91455955440E+01 -0.27271065005E+02  0.50339701133E+02  0.00000000000E+00 0. -1.
         -5    1    3    3    0  503  0.59593059526E+01 -0.38426871648E+02 -0.57269791867E+01  0.39585680273E+02  0.47000000000E+01 0.  1.
         13    1    4    4    0    0 -0.35617911198E+02  0.88737574465E+01  0.10216856072E+02  0.38102011985E+02  0.00000000000E+00 0. -1.
        -14    1    4    4    0    0 -0.12479947613E+03  0.46639438115E+02 -0.12848711156E+03  0.18509209672E+03  0.00000000000E+00 0.  1.
</event>
<event>
12    1  0.1035051E+000  0.2883919E+03  0.7818608E-02  0.1091248E+00
         21   -1    0    0  503  502  0.00000000000E+00  0.00000000000E+00  0.44533005310E+03  0.44533005310E+03  0.00000000000E+00 0.  1.
         21   -1    0    0  501  503 -0.00000000000E+00 -0.00000000000E+00 -0.31228255769E+03  0.31228255769E+03  0.00000000000E+00 0. -1.
          6    2    1    2  501    0 -0.14233065388E+03  0.18150519893E+03  0.30691934175E+03  0.42086146567E+03  0.17240283837E+03 0.  0.
         24    2    3    3    0    0 -0.33028187858E+02  0.15580863273E+02  0.12382837435E+03  0.15063506692E+03  0.77613353224E+02 0.  0.
         -6    2    1    2    0  502  0.14233065388E+03 -0.18150519893E+03 -0.17387184634E+03  0.33675114512E+03  0.17311199414E+03 0.  0.
        -24    2    5    5    0    0  0.34037521429E+02 -0.14527211680E+03 -0.13356506002E+03  0.21556135264E+03  0.79778008945E+02 0.  0.
          5    1    3    3  501    0 -0.10930246602E+03  0.16592433566E+03  0.18309096740E+03  0.27022639876E+03  0.47000000000E+01 0. -1.
        -13    1    4    4    0    0  0.19742532899E+02  0.22450471770E+02  0.27683129561E+02  0.40744900911E+02  0.00000000000E+00 0.  1.
         14    1    4    4    0    0 -0.52770720757E+02 -0.68696084973E+01  0.96145244785E+02  0.10989016601E+03  0.00000000000E+00 0. -1.
         -5    1    5    5    0  502  0.10829313245E+03 -0.36233082127E+02 -0.40306786327E+02  0.12118979247E+03  0.47000000000E+01 0.  1.
         13    1    6    6    0    0  0.48160006835E+02 -0.14694360665E+03 -0.12590287447E+03  0.19940748129E+03  0.00000000000E+00 0. -1.
        -14    1    6    6    0    0 -0.14122485406E+02  0.16714898517E+01 -0.76621855503E+01  0.16153871356E+02  0.00000000000E+00 0.  1.
</event>
<event>
12    1  0.1035051E+000  0.3361008E+03  0.7818608E-02  0.1068668E+00
         21   -1    0    0  501  502  0.00000000000E+00  0.00000000000E+00  0.52260152209E+02  0.52260152209E+02  0.00000000000E+00 0.  1.
         21   -1    0    0  502  503 -0.00000000000E+00 -0.00000000000E+00 -0.21818636651E+04  0.21818636651E+04  0.00000000000E+00 0.  1.
         -6    2    1    2    0  503 -0.21105168216E+03  0.19297899105E+03 -0.92646973760E+03  0.98492621696E+03  0.17306003190E+03 0.  0.
        -24    2    3    3    0    0 -0.18525471341E+03  0.21196099104E+03 -0.74501277640E+03  0.80060443668E+03  0.81710809932E+02 0.  0.
          6    2    1    2  501    0  0.21105168216E+03 -0.19297899105E+03 -0.12031337753E+04  0.12491976004E+04  0.17657876413E+03 0.  0.
         24    2    5    5    0    0  0.10909130924E+03 -0.61800227065E+02 -0.35671982614E+03  0.38661864797E+03  0.80652109584E+02 0.  0.
          5    1    5    5  501    0  0.10196037292E+03 -0.13117876398E+03 -0.84641394920E+03  0.86257895242E+03  0.47000000000E+01 0. -1.
        -13    1    6    6    0    0  0.51939628330E+02 -0.16857464619E+01 -0.64365354862E+02  0.82725241847E+02  0.00000000000E+00 0.  1.
         14    1    6    6    0    0  0.57151680912E+02 -0.60114480603E+02 -0.29235447128E+03  0.30389340612E+03  0.00000000000E+00 0. -1.
         -5    1    3    3    0  503 -0.25796968752E+02 -0.18981999992E+02 -0.18145696119E+03  0.18432178028E+03  0.47000000000E+01 0.  1.
         13    1    4    4    0    0 -0.10105717373E+03  0.15882248348E+03 -0.55549494748E+03  0.58652516596E+03  0.00000000000E+00 0. -1.
        -14    1    4    4    0    0 -0.84197539677E+02  0.53138507563E+02 -0.18951782892E+03  0.21407927072E+03  0.00000000000E+00 0.  1.
</event>
<event>
12    1  0.1035051E+000  0.1955087E+03  0.7818608E-02  0.1153751E+00
         21   -1    0    0  501  502  0.00000000000E+00  0.00000000000E+00  0.30222493649E+03  0.30222493649E+03  0.00000000000E+00 0.  1.
         21   -1    0    0  502  503 -0.00000000000E+00 -0.00000000000E+00 -0.14814205873E+03  0.14814205873E+03  0.00000000000E+00 0.  1.
         -6    2    1    2    0  503  0.90484978982E+02 -0.18273999691E+02 -0.99250413552E+01  0.19576043634E+03  0.17234317945E+03 0.  0.
        -24    2    3    3    0    0  0.87285366853E+02  0.48275256218E+02 -0.14333013647E+02  0.12882344208E+03  0.80254646722E+02 0.  0.
          6    2    1    2  501    0 -0.90484978982E+02  0.18273999691E+02  0.16400791911E+03  0.25460655889E+03  0.17147720493E+03 0.  0.
         24    2    5    5    0    0 -0.29291236249E+02  0.72759873465E+02  0.86919045212E+02  0.14200918294E+03  0.80372333001E+02 0.  0.
          5    1    5    5  501    0 -0.61193742734E+02 -0.54485873774E+02  0.77088873897E+02  0.11259737594E+03  0.47000000000E+01 0. -1.
        -13    1    6    6    0    0  0.12830236229E+02  0.16356797567E+02  0.65056082675E+02  0.68296805792E+02  0.00000000000E+00 0.  1.
         14    1    6    6    0    0 -0.42121472478E+02  0.56403075898E+02  0.21862962537E+02  0.73712377151E+02  0.00000000000E+00 0. -1.
         -5    1    3    3    0  503  0.31996121293E+01 -0.66549255909E+02  0.44079722922E+01  0.66936994252E+02  0.47000000000E+01 0.  1.
         13    1    4    4    0    0  0.40429301416E+02  0.19836843237E+02  0.33458829929E+02  0.56102781239E+02  0.00000000000E+00 0. -1.
        -14    1    4    4    0    0  0.46856065437E+02  0.28438412981E+02 -0.47791843577E+02  0.72720660844E+02  0.00000000000E+00 0.  1.
</event>
<event>
12    1  0.1035051E+000  0.1980156E+03  0.7818608E-02  0.1151667E+00
         21   -1    0    0  503  502  0.00000000000E+00  0.00000000000E+00  0.44116575685E+03  0.44116575685E+03  0.00000000000E+00 0.  1.
         21   -1    0    0  501  503 -0.00000000000E+00 -0.00000000000E+00 -0.88436508638E+02  0.88436508638E+02  0.00000000000E+00 0.  1.
          6    2    1    2  501    0  0.17979178368E+02  0.96030560839E+02  0.18310627188E+03  0.26886843773E+03  0.17093042601E+03 0.  0.
         24    2    3    3    0    0  0.29029910128E+02 -0.70985397445E+01  0.44464121731E+02  0.95659125462E+02  0.79249512391E+02 0.  0.
         -6    2    1    2    0  502 -0.17979178368E+02 -0.96030560839E+02  0.16962297633E+03  0.26073382776E+03  0.17223546489E+03 0.  0.
        -24    2    5    5    0    0  0.57799168968E+02 -0.54966202738E+02  0.93589290199E+02  0.14570404527E+03  0.78158084624E+02 0.  0.
          5    1    3    3  501    0 -0.11050731760E+02  0.10312910058E+03  0.13864215015E+03  0.17320931227E+03  0.47000000000E+01 0. -1.
        -13    1    4    4    0    0  0.46393861706E+02 -0.16543255649E+02  0.25536909848E+01  0.49321304211E+02  0.00000000000E+00 0.  1.
         14    1    4    4    0    0 -0.17363951578E+02  0.94447159044E+01  0.41910430746E+02  0.46337821251E+02  0.00000000000E+00 0. -1.
         -5    1    5    5    0  502 -0.75778347336E+02 -0.41064358101E+02  0.76033686133E+02  0.11502978248E+03  0.47000000000E+01 0.  1.
         13    1    6    6    0    0  0.32385276836E+02 -0.73431318410E+01 -0.47286951823E+01  0.33542335922E+02  0.00000000000E+00 0. -1.
        -14    1    6    6    0    0  0.25413892131E+02 -0.47623070897E+02  0.98317985381E+02  0.11216170935E+03  0.00000000000E+00 0.  1.
</event>
<event>
12    1  0.1035051E+000  0.2356500E+03  0.7818608E-02  0.1123380E+00
         21   -1    0    0  503  502  0.00000000000E+00  0.00000000000E+00  0.13809348690E+03  0.13809348690E+03  0.00000000000E+00 0.  1.
         21   -1    0    0  501  503 -0.00000000000E+00 -0.00000000000E+00 -0.42100040254E+03  0.42100040254E+03  0.00000000000E+00 0.  1.
          6    2    1    2  501    0  0.49509236760E+01  0.15634745346E+03 -0.73951937754E+02  0.24698139121E+03  0.17624381026E+03 0.  0.
         24    2    3    3    0    0 -0.91269300027E+01  0.75310457084E+01 -0.12940325867E+02  0.85460445301E+02  0.83642203323E+02 0.  0.
         -6    2    1    2    0  502 -0.49509236760E+01 -0.15634745346E+03 -0.20895497789E+03  0.31211249823E+03  0.17112273641E+03 0.  0.
        -24    2    5    5    0    0 -0.23725404526E+02 -0.40571277286E+02 -0.33359695198E+02  0.10089602774E+03  0.82814345316E+02 0.  0.
          5    1    3    3  501    0  0.14077853679E+02  0.14881640776E+03 -0.61011611887E+02  0.16152094591E+03  0.47000000000E+01 0. -1.
        -13    1    4    4    0    0 -0.46074745110E+01  0.26147698468E+02 -0.42573503820E+02  0.50174038945E+02  0.00000000000E+00 0.  1.
         14    1    4    4    0    0 -0.45194554918E+01 -0.18616652760E+02  0.29633177952E+02  0.35286406356E+02  0.00000000000E+00 0. -1.
         -5    1    5    5    0  502  0.18774480850E+02 -0.11577617618E+03 -0.17559528269E+03  0.21121647049E+03  0.47000000000E+01 0.  1.
         11    1    6    6    0    0 -0.87422138259E+01 -0.59268889789E+02 -0.44345846069E+02  0.74537116009E+02  0.00000000000E+00 0. -1.
        -12    1    6    6    0    0 -0.14983190700E+02  0.18697612503E+02  0.10986150871E+02  0.26358911734E+02  0.00000000000E+00 0.  1.
</event>
<event>
12    1  0.1035051E+000  0.2040048E+03  0.7818608E-02  0.1146529E+00
         21   -1    0    0  501  502  0.00000000000E+00  0.00000000000E+00  0.23517870727E+04  0.23517870727E+04  0.00000000000E+00 0. -1.
         21   -1    0    0  502  503 -0.00000000000E+00 -0.00000000000E+00 -0.19017631606E+02  0.19017631606E+02  0.00000000000E+00 0. -1.
         -6    2    1    2    0  503  0.96760614262E+02 -0.53129829289E+02  0.14833984890E+04  0.14972779654E+04  0.17083569109E+03 0.  0.
        -24    2    3    3    0    0  0.43147979502E+02 -0.90499184491E+02  0.74250943968E+03  0.75349744894E+03  0.79914247823E+02 0.  0.
          6    2    1    2  501    0 -0.96760614262E+02  0.53129829289E+02  0.84937095209E+03  0.87352673888E+03  0.17155918525E+03 0.  0.
         24    2    5    5    0    0  0.30251496363E+01  0.94365704092E+01  0.52760290330E+03  0.53378703444E+03  0.80408794134E+02 0.  0.
          5    1    5    5  501    0 -0.99785763899E+02  0.43693258880E+02  0.32176804880E+03  0.33973970444E+03  0.47000000000E+01 0. -1.
        -11    1    6    6    0    0 -0.59414393268E+00  0.27390663929E+02  0.61523660784E+02  0.67348068374E+02  0.00000000000E+00 0.  1.
         12    1    6    6    0    0  0.36192935689E+01 -0.17954093520E+02  0.46607924251E+03  0.46643896606E+03  0.00000000000E+00 0. -1.
         -5    1    3    3    0  503  0.53612634760E+02  0.37369355202E+02  0.74088904930E+03  0.74378051647E+03  0.47000000000E+01 0.  1.
         13    1    4    4    0    0  0.14784722526E+02  0.95932571785E+01  0.22168009536E+03  0.22237959278E+03  0.00000000000E+00 0. -1.
        -14    1    4    4    0    0  0.28363256976E+02 -0.10009244167E+03  0.52082934432E+03  0.53111785616E+03  0.00000000000E+00 0.  1.
</event>
<event>
12    1  0.1035051E+000  0.2312744E+03  0.7818608E-02  0.1126735E+00
         21   -1    0    0  503  502  0.00000000000E+00  0.00000000000E+00  0.62157547703E+03  0.62157547703E+03  0.00000000000E+00 0. -1.
         21   -1    0    0  501  503 -0.00000000000E+00 -0.00000000000E+00 -0.91403166191E+02  0.91403166191E+02  0.00000000000E+00 0. -1.
          6    2    1    2  501    0 -0.39249710940E+02 -0.14135094071E+03  0.36961597641E+03  0.43600897649E+03  0.17879381790E+03 0.  0.
         24    2    3    3    0    0 -0.12892320751E+02 -0.13021737875E+03  0.15182859056E+03  0.21629984228E+03  0.81307583895E+02 0.  0.
         -6    2    1    2    0  502  0.39249710940E+02  0.14135094071E+03  0.16055633443E+03  0.27696966673E+03  0.17150286153E+03 0.  0.
        -24    2    5    5    0    0  0.55347550124E+02  0.14950232605E+03  0.81551543703E+02  0.19579434741E+03  0.79186333388E+02 0.  0.
          5    1    3    3  501    0 -0.26357390189E+02 -0.11133561964E+02  0.21778738585E+03  0.21970913421E+03  0.47000000000E+01 0. -1.
        -11    1    4    4    0    0  0.17885375961E+02 -0.10171226360E+03  0.13751360857E+03  0.17197460214E+03  0.00000000000E+00 0.  1.
         12    1    4    4    0    0 -0.30777696711E+02 -0.28505115143E+02  0.14314981990E+02  0.44325240141E+02  0.00000000000E+00 0. -1.
         -5    1    5    5    0  502 -0.16097839184E+02 -0.81513853428E+01  0.79004790731E+02  0.81175319327E+02  0.47000000000E+01 0.  1.
         11    1    6    6    0    0 -0.10943582894E+02  0.26704634581E+02 -0.80434805578E+01  0.29959924802E+02  0.00000000000E+00 0. -1.
        -12    1    6    6    0    0  0.66291133019E+02  0.12279769147E+03  0.89595024261E+02  0.16583442260E+03  0.00000000000E+00 0.  1.
</event>
<event>
12    1  0.1035051E+000  0.2809388E+03  0.7818608E-02  0.1097151E+00
         21   -1    0    0  503  502  0.00000000000E+00  0.00000000000E+00  0.11247118773E+03  0.11247118773E+03  0.00000000000E+00 0. -1.
         21   -1    0    0  501  503 -0.00000000000E+00 -0.00000000000E+00 -0.66941856556E+03  0.66941856556E+03  0.00000000000E+00 0.  1.
          6    2    1    2  501    0  0.70267144413E+02 -0.19294833314E+03 -0.26170344178E+03  0.38394702838E+03  0.19172923178E+03 0.  0.
         24    2    3    3    0    0 -0.22804738653E+02 -0.16194259570E+03 -0.15936248547E+03  0.24210383147E+03  0.80451246297E+02 0.  0.
         -6    2    1    2    0  502 -0.70267144413E+02  0.19294833314E+03 -0.29524393605E+03  0.39794272491E+03  0.17036108619E+03 0.  0.
        -24    2    5    5    0    0  0.12913315057E+02  0.15458827700E+03 -0.17927675065E+03  0.25008819899E+03  0.79622012395E+02 0.  0.
          5    1    3    3  501    0  0.93071883065E+02 -0.31005737441E+02 -0.10234095631E+03  0.14184319691E+03  0.47000000000E+01 0. -1.
        -13    1    4    4    0    0 -0.15712662674E+02 -0.53908638417E+01 -0.45376576811E+02  0.48321660820E+02  0.00000000000E+00 0.  1.
         14    1    4    4    0    0 -0.70920759782E+01 -0.15655173186E+03 -0.11398590866E+03  0.19378217065E+03  0.00000000000E+00 0. -1.
         -5    1    5    5    0  502 -0.83180459470E+02  0.38360056137E+02 -0.11596718541E+03  0.14785452592E+03  0.47000000000E+01 0.  1.
         13    1    6    6    0    0  0.43552244946E+02  0.10795067875E+03 -0.13880800454E+03  0.18115686354E+03  0.00000000000E+00 0. -1.
        -14    1    6    6    0    0 -0.30638929889E+02  0.46637598250E+02 -0.40468746110E+02  0.68931335450E+02  0.00000000000E+00 0.  1.
</event>
<event>
12    1  0.1035051E+000  0.2036657E+03  0.7818608E-02  0.1148253E+00
         21   -1    0    0  503  502  0.00000000000E+00  0.00000000000E+00  0.20227279306E+03  0.20227279306E+03  0.00000000000E+00 0.  1.
         21   -1    0    0  501  503 -0.00000000000E+00 -0.00000000000E+00 -0.20012637057E+03  0.20012637057E+03  0.00000000000E+00 0.  1.
          6    2    1    2  501    0 -0.65713430636E+02 -0.88495808854E+02  0.23596699485E+02  0.19760702461E+03  0.16230209117E+03 0.  0.
         24    2    3    3    0    0 -0.12460545696E+02 -0.13789957315E+02  0.56918827084E+02  0.99886565153E+02  0.79950890550E+02 0.  0.
         -6    2    1    2    0  502  0.65713430636E+02  0.88495808854E+02 -0.21450276986E+02  0.20479213902E+03  0.17125986883E+03 0.  0.
        -24    2    5    5    0    0  0.87119908527E+02  0.93697914923E+02 -0.54828676288E+02  0.16452420211E+03  0.87708902701E+02 0.  0.
          5    1    3    3  501    0 -0.53252884940E+02 -0.74705851539E+02 -0.33322127599E+02  0.97720459456E+02  0.47000000000E+01 0. -1.
        -13    1    4    4    0    0  0.56101378331E+01 -0.25323605215E+02 -0.11363823103E+02  0.28317752437E+02  0.00000000000E+00 0.  1.
         14    1    4    4    0    0 -0.18070683529E+02  0.11533647900E+02  0.68282650186E+02  0.71568812716E+02  0.00000000000E+00 0. -1.
         -5    1    5    5    0  502 -0.21406477891E+02 -0.52021060689E+01  0.33378399302E+02  0.40267936913E+02  0.47000000000E+01 0.  1.
         13    1    6    6    0    0  0.84713404464E+02  0.37674178293E+02 -0.11021570491E+02  0.93365837553E+02  0.00000000000E+00 0. -1.
        -14    1    6    6    0    0  0.24065040632E+01  0.56023736630E+02 -0.43807105797E+02  0.71158364554E+02  0.00000000000E+00 0.  1.
</event>
<event>
12    1  0.1035051E+000  0.1738460E+03  0.7818608E-02  0.1174111E+00
         21   -1    0    0  503  502  0.00000000000E+00  0.00000000000E+00  0.12260846689E+04  0.12260846689E+04  0.00000000000E+00 0.  1.
         21   -1    0    0  501  503 -0.00000000000E+00 -0.00000000000E+00 -0.27318923021E+02  0.27318923021E+02  0.00000000000E+00 0.  1.
          6    2    1    2  501    0 -0.96233337510E+00 -0.16537408942E+02  0.80097102131E+03  0.81962003079E+03  0.17305492165E+03 0.  0.
         24    2    3    3    0    0 -0.39271604862E+02 -0.64293009288E+02  0.56178043211E+03  0.57267383096E+03  0.81744802728E+02 0.  0.
         -6    2    1    2    0  502  0.96233337510E+00  0.16537408942E+02  0.39779472457E+03  0.43378356113E+03  0.17220082182E+03 0.  0.
        -24    2    5    5    0    0 -0.32290858317E+01  0.39471164323E+02  0.99488405803E+02  0.13453069992E+03  0.81438114682E+02 0.  0.
          5    1    3    3  501    0  0.38309271487E+02  0.47755600345E+02  0.23919058920E+03  0.24694619983E+03  0.47000000000E+01 0. -1.
        -13    1    4    4    0    0 -0.49234748725E+02 -0.34604707859E+01  0.23427061642E+03  0.23941336023E+03  0.00000000000E+00 0.  1.
         14    1    4    4    0    0  0.99631438626E+01 -0.60832538502E+02  0.32750981570E+03  0.33326047073E+03  0.00000000000E+00 0. -1.
         -5    1    5    5    0  502  0.41914192068E+01 -0.22933755381E+02  0.29830631877E+03  0.29925286122E+03  0.47000000000E+01 0.  1.
         13    1    6    6    0    0  0.15951582899E+02  0.36049074695E+02  0.10670477824E+03  0.11375367459E+03  0.00000000000E+00 0. -1.
        -14    1    6    6    0    0 -0.19180668731E+02  0.34220896283E+01 -0.72163724367E+01  0.20777025329E+02  0.00000000000E+00 0.  1.
</event>
<event>
12    1  0.1035051E+000  0.2172643E+03  0.7818608E-02  0.1136130E+00
         21   -1    0    0  501  502  0.00000000000E+00  0.00000000000E+00  0.24999188593E+03  0.24999188593E+03  0.00000000000E+00 0. -1.
         21   -1    0    0  502  503 -0.00000000000E+00 -0.00000000000E+00 -0.23917537942E+03  0.23917537942E+03  0.00000000000E+00 0.  1.
         -6    2    1    2    0  503  0.13413818666E+02  0.13205929275E+03  0.11860935712E+03  0.24753174871E+03  0.17200058049E+03 0.  0.
        -24    2    3    3    0    0 -0.53858940360E+01  0.38129662962E+02  0.12738727690E+03  0.15122314875E+03  0.71819519285E+02 0.  0.
          6    2    1    2  501    0 -0.13413818666E+02 -0.13205929275E+03 -0.10779285062E+03  0.24163551663E+03  0.17073030464E+03 0.  0.
         24    2    5    5    0    0 -0.66134132410E+02 -0.12101377059E+03 -0.10238069395E+03  0.18729569255E+03  0.74698151343E+02 0.  0.
          5    1    5    5  501    0  0.52720313745E+02 -0.11045522163E+02 -0.54121566645E+01  0.54339824079E+02  0.47000000000E+01 0. -1.
        -13    1    6    6    0    0 -0.66611042308E+02 -0.45809873833E+02 -0.62395342446E+02  0.10212127230E+03  0.00000000000E+00 0.  1.
         14    1    6    6    0    0  0.47690989763E+00 -0.75203896754E+02 -0.39985351505E+02  0.85174420251E+02  0.00000000000E+00 0. -1.
         -5    1    3    3    0  503  0.18799712702E+02  0.93929629789E+02 -0.87779197816E+01  0.96308599957E+02  0.47000000000E+01 0.  1.
         13    1    4    4    0    0 -0.17524275344E+01  0.42541222749E+02  0.26449870561E+02  0.50124068948E+02  0.00000000000E+00 0. -1.
        -14    1    4    4    0    0 -0.36334665016E+01 -0.44115597875E+01  0.10093740634E+03  0.10109907981E+03  0.00000000000E+00 0.  1.
</event>
<event>
12    1  0.1035051E+000  0.2756233E+03  0.7818608E-02  0.1098119E+00
         21   -1    0    0  503  502  0.00000000000E+00  0.00000000000E+00  0.40915298902E+04  0.40915298902E+04  0.00000000000E+00 0.  1.
         21   -1    0    0  501  503 -0.00000000000E+00 -0.00000000000E+00 -0.20664204539E+02  0.20664204539E+02  0.00000000000E+00 0.  1.
          6    2    1    2  501    0 -0.14428097596E+03  0.15971835974E+03  0.26911961961E+04  0.27052626371E+04  0.17199422939E+03 0.  0.
         24    2    3    3    0    0 -0.32696632008E+02  0.13702476619E+03  0.16265219390E+04  0.16345061620E+04  0.78688750143E+02 0.  0.
         -6    2    1    2    0  502  0.14428097596E+03 -0.15971835974E+03  0.13796694895E+04  0.14069314577E+04  0.17216640730E+03 0.  0.
        -24    2    5    5    0    0  0.12338519567E+03 -0.10549335211E+03  0.12688356334E+04  0.12816987992E+04  0.80344218270E+02 0.  0.
          5    1    3    3  501    0 -0.11158434395E+03  0.22693593549E+02  0.10646742572E+04  0.10707564751E+04  0.47000000000E+01 0. -1.
        -11    1    4    4    0    0  0.24617980059E+02  0.43541695499E+02  0.62531657969E+03  0.62731391586E+03  0.00000000000E+00 0.  1.
         12    1    4    4    0    0 -0.57314612067E+02  0.93483070695E+02  0.10012053593E+04  0.10071922461E+04  0.00000000000E+00 0. -1.
         -5    1    5    5    0  502  0.20895780295E+02 -0.54225007636E+02  0.11083385611E+03  0.12523265847E+03  0.47000000000E+01 0.  1.
         13    1    6    6    0    0  0.80576415746E+02 -0.75807227642E+02  0.55226424786E+03  0.56323626837E+03  0.00000000000E+00 0. -1.
        -14    1    6    6    0    0  0.42808779919E+02 -0.29686124465E+02  0.71657138553E+03  0.71846253082E+03  0.00000000000E+00 0.  1.
</event>
<event>
12    1  0.1035051E+000  0.2585323E+03  0.7818608E-02  0.1108056E+00
         21   -1    0    0  501  502  0.00000000000E+00  0.00000000000E+00  0.55320843357E+03  0.55320843357E+03  0.00000000000E+00 0.  1.
         21   -1    0    0  502  503 -0.00000000000E+00 -0.00000000000E+00 -0.12161795307E+03  0.12161795307E+03  0.00000000000E+00 0.  1.
         -6    2    1    2    0  503 -0.13810491980E+03  0.13385737054E+03  0.24448196459E+03  0.35568922849E+03  0.17248951194E+03 0.  0.
        -24    2    3    3    0    0 -0.81218650253E+02  0.15903447427E+03  0.17571351315E+03  0.26283921972E+03  0.79503355678E+02 0.  0.
          6    2    1    2  501    0  0.13810491980E+03 -0.13385737054E+03  0.18710851591E+03  0.31913715815E+03  0.17276621331E+03 0.  0.
         24    2    5    5    0    0  0.12062911500E+03 -0.12567312897E+03  0.21301878317E+03  0.28649029746E+03  0.79715555716E+02 0.  0.
          5    1    5    5  501    0  0.17475804802E+02 -0.81842415703E+01 -0.25910267259E+02  0.32646860691E+02  0.47000000000E+01 0. -1.
        -11    1    6    6    0    0 -0.10528893358E+02 -0.20600738317E+02  0.20193594813E+02  0.30708781904E+02  0.00000000000E+00 0.  1.
         12    1    6    6    0    0  0.13115800836E+03 -0.10507239066E+03  0.19282518835E+03  0.25578151555E+03  0.00000000000E+00 0. -1.
         -5    1    3    3    0  503 -0.56886269550E+02 -0.25177103723E+02  0.68768451442E+02  0.92850008772E+02  0.47000000000E+01 0.  1.
         11    1    4    4    0    0 -0.55106715590E+02  0.44074806187E+02  0.10121426716E+03  0.12338422314E+03  0.00000000000E+00 0. -1.
        -12    1    4    4    0    0 -0.26111934663E+02  0.11495966808E+03  0.74499245988E+02  0.13945499658E+03  0.00000000000E+00 0.  1.
</event>
<event>
12    1  0.1035051E+000  0.2799540E+03  0.7818608E-02  0.1095773E+00
         21   -1    0    0  503  502  0.00000000000E+00  0.00000000000E+00  0.12230563553E+04  0.12230563553E+04  0.00000000000E+00 0. -1.
         21   -1    0    0  501  503 -0.00000000000E+00 -0.00000000000E+00 -0.79364578257E+02  0.79364578257E+02  0.00000000000E+00 0. -1.
          6    2    1    2  501    0  0.17959182978E+03  0.12803783518E+03  0.85819134117E+03  0.90256502355E+03  0.17171002043E+03 0.  0.
         24    2    3    3    0    0  0.16253651160E+03  0.60244489714E+02  0.45019784078E+03  0.48859931492E+03  0.77483408206E+02 0.  0.
         -6    2    1    2    0  502 -0.17959182978E+03 -0.12803783518E+03  0.28550043583E+03  0.39985590996E+03  0.17241617474E+03 0.  0.
        -24    2    5    5    0    0 -0.15630244315E+03 -0.95599727024E+02  0.29702137630E+03  0.35802950132E+03  0.79960392015E+02 0.  0.
          5    1    3    3  501    0  0.17055318183E+02  0.67793345463E+02  0.40799350039E+03  0.41396570864E+03  0.47000000000E+01 0. -1.
        -11    1    4    4    0    0  0.16703154198E+03  0.54615384572E+02  0.44773300146E+03  0.48098567218E+03  0.00000000000E+00 0.  1.
         12    1    4    4    0    0 -0.44950303786E+01  0.56291051425E+01  0.24648393234E+01  0.76136427352E+01  0.00000000000E+00 0. -1.
         -5    1    5    5    0  502 -0.23289386636E+02 -0.32438108152E+02 -0.11520940477E+02  0.41826408642E+02  0.47000000000E+01 0.  1.
         11    1    6    6    0    0 -0.12480443329E+03 -0.37844979790E+02  0.16316334162E+03  0.20887954690E+03  0.00000000000E+00 0. -1.
        -12    1    6    6    0    0 -0.31498009852E+02 -0.57754747234E+02  0.13385803468E+03  0.14914995441E+03  0.00000000000E+00 0.  1.
</event>
<event>
12    1  0.1035051E+000  0.2857684E+03  0.7818608E-02  0.1092815E+00
         21   -1    0    0  501  502  0.00000000000E+00  0.00000000000E+00  0.10824092365E+04  0.10824092365E+04  0.00000000000E+00 0.  1.
         21   -1    0    0  502  503 -0.00000000000E+00 -0.00000000000E+00 -0.24658096195E+03  0.24658096195E+03  0.00000000000E+00 0.  1.
         -6    2    1    2    0  503 -0.81148189862E+01 -0.22690112267E+03  0.97264108592E+03  0.10137525747E+04  0.17353279494E+03 0.  0.
        -24    2    3    3    0    0 -0.41545273716E+02 -0.16936611440E+03  0.87368031923E+03  0.89440771379E+03  0.78974475645E+02 0.  0.
          6    2    1    2  501    0  0.81148189862E+01  0.22690112267E+03 -0.13681281136E+03  0.31523762377E+03  0.17060786714E+03 0.  0.
         24    2    5    5    0    0 -0.12499265374E+02  0.21752606453E+03 -0.72658974563E+02  0.24704204499E+03  0.90975958488E+02 0.  0.
          5    1    5    5  501    0  0.20614084360E+02  0.93750581389E+01 -0.64153836799E+02  0.68195578781E+02  0.47000000000E+01 0. -1.
        -13    1    6    6    0    0 -0.37026915575E+02  0.45081627204E+02 -0.61182677670E-01  0.58338232161E+02  0.00000000000E+00 0.  1.
         14    1    6    6    0    0  0.24527650200E+02  0.17244443733E+03 -0.72597791885E+02  0.18870381283E+03  0.00000000000E+00 0. -1.
         -5    1    3    3    0  503  0.33430454730E+02 -0.57535008269E+02  0.98960766691E+02  0.11934486090E+03  0.47000000000E+01 0.  1.
         11    1    4    4    0    0 -0.84662469271E+01 -0.62539712032E+02  0.51086919767E+03  0.51475259110E+03  0.00000000000E+00 0. -1.
        -12    1    4    4    0    0 -0.33079026789E+02 -0.10682640237E+03  0.36281112156E+03  0.37965512269E+03  0.00000000000E+00 0.  1.
</event>
<event>
12    1  0.1035051E+000  0.3712085E+03  0.7818608E-02  0.1054497E+00
         21   -1    0    0  503  502  0.00000000000E+00  0.00000000000E+00  0.86495406367E+02  0.86495406367E+02  0.00000000000E+00 0. -1.
         21   -1    0    0  501  503 -0.00000000000E+00 -0.00000000000E+00 -0.16015252567E+04  0.16015252567E+04  0.00000000000E+00 0. -1.
          6    2    1    2  501    0  0.27678127550E+03 -0.17089790348E+03 -0.84979429414E+03  0.92622405179E+03  0.17299330586E+03 0.  0.
         24    2    3    3    0    0  0.20012946086E+03 -0.57180009534E+02 -0.42747045984E+03  0.48216688079E+03  0.80203193867E+02 0.  0.
         -6    2    1    2    0  502 -0.27678127550E+03  0.17089790348E+03 -0.66523555620E+03  0.76179661129E+03  0.17883445936E+03 0.  0.
        -24    2    5    5    0    0 -0.43290730054E+02  0.22671481790E+02 -0.12448159472E+03  0.15440395101E+03  0.77180497983E+02 0.  0.
          5    1    3    3  501    0  0.76651814645E+02 -0.11371789394E+03 -0.42232383430E+03  0.44405717099E+03  0.47000000000E+01 0. -1.
        -13    1    4    4    0    0  0.66919112899E+02 -0.29494041945E+02 -0.23746975578E+03  0.24847525247E+03  0.00000000000E+00 0.  1.
         14    1    4    4    0    0  0.13321034796E+03 -0.27685967589E+02 -0.19000070406E+03  0.23369162832E+03  0.00000000000E+00 0. -1.
         -5    1    5    5    0  502 -0.23349054545E+03  0.14822642169E+03 -0.54075396148E+03  0.60739266027E+03  0.47000000000E+01 0.  1.
         13    1    6    6    0    0 -0.23224373525E+02  0.48485140684E+02 -0.10008348053E+03  0.11360846565E+03  0.00000000000E+00 0. -1.
        -14    1    6    6    0    0 -0.20066356529E+02 -0.25813658894E+02 -0.24398114195E+02  0.40795485364E+02  0.00000000000E+00 0.  1.
</event>
<event>
12    1  0.1035051E+000  0.2711079E+03  0.7818608E-02  0.1100704E+00
         21   -1    0    0  501  502  0.00000000000E+00  0.00000000000E+00  0.10387681396E+03  0.10387681396E+03  0.00000000000E+00 0. -1.
         21   -1    0    0  502  503 -0.00000000000E+00 -0.00000000000E+00 -0.72967698548E+03  0.72967698548E+03  0.00000000000E+00 0. -1.
         -6    2    1    2    0  503  0.22903928507E+02 -0.20772850909E+03 -0.23888769390E+03  0.36134034684E+03  0.17269566446E+03 0.  0.
        -24    2    3    3    0    0  0.71719197857E+01 -0.21628055373E+03 -0.16034320151E+03  0.28064362539E+03  0.78880845872E+02 0.  0.
          6    2    1    2  501    0 -0.22903928507E+02  0.20772850909E+03 -0.38691247762E+03  0.47221345261E+03  0.17207136908E+03 0.  0.
         24    2    5    5    0    0 -0.36352755677E+02  0.22058210883E+03 -0.29618218791E+03  0.37947639718E+03  0.79375424423E+02 0.  0.
          5    1    5    5  501    0  0.13448827169E+02 -0.12853599738E+02 -0.90730289711E+02  0.92737055428E+02  0.47000000000E+01 0. -1.
        -11    1    6    6    0    0 -0.45047475576E+02  0.16079795354E+03 -0.26015250744E+03  0.30913521968E+03  0.00000000000E+00 0.  1.
         12    1    6    6    0    0  0.86947198995E+01  0.59784155287E+02 -0.36029680467E+02  0.70341177500E+02  0.00000000000E+00 0. -1.
         -5    1    3    3    0  503  0.15732008722E+02  0.85520446472E+01 -0.78544492398E+02  0.80696721446E+02  0.47000000000E+01 0.  1.
         13    1    4    4    0    0  0.79410156945E+01 -0.60506781095E+02 -0.92312872465E+02  0.11066072796E+03  0.00000000000E+00 0. -1.
        -14    1    4    4    0    0 -0.76909590877E+00 -0.15577377264E+03 -0.68030329041E+02  0.16998289743E+03  0.00000000000E+00 0.  1.
</event>
<event>
12    1  0.1035051E+000  0.2772722E+03  0.7818608E-02  0.1097244E+00
         21   -1    0    0  501  502  0.00000000000E+00  0.00000000000E+00  0.13863594083E+03  0.13863594083E+03  0.00000000000E+00 0. -1.
         21   -1    0    0  502  503 -0.00000000000E+00 -0.00000000000E+00 -0.70321597402E+03  0.70321597402E+03  0.00000000000E+00 0. -1.
         -6    2    1    2    0  503 -0.13520444100E+03  0.16975700981E+03 -0.88067407668E+02  0.29054059166E+03  0.17193104393E+03 0.  0.
        -24    2    3    3    0    0 -0.92815428815E+02  0.40536577492E+02 -0.84156829658E+02  0.15440782154E+03  0.80631789224E+02 0.  0.
          6    2    1    2  501    0  0.13520444100E+03 -0.16975700981E+03 -0.47651262552E+03  0.55131132319E+03  0.17257522868E+03 0.  0.
         24    2    5    5    0    0  0.80807688338E+02 -0.18407530844E+03 -0.33506135897E+03  0.39901368308E+03  0.80822047336E+02 0.  0.
          5    1    5    5  501    0  0.54396752658E+02  0.14318298633E+02 -0.14145126655E+03  0.15229764012E+03  0.47000000000E+01 0. -1.
        -13    1    6    6    0    0  0.68521421942E+02 -0.14682727179E+03 -0.19483360382E+03  0.25340395850E+03  0.00000000000E+00 0.  1.
         14    1    6    6    0    0  0.12286266396E+02 -0.37248036647E+02 -0.14022775515E+03  0.14560972458E+03  0.00000000000E+00 0. -1.
         -5    1    3    3    0  503 -0.42389012181E+02  0.12922043231E+03 -0.39105780097E+01  0.13613277012E+03  0.47000000000E+01 0.  1.
         13    1    4    4    0    0  0.30350277994E+00  0.35960287135E+02 -0.27931737897E+02  0.45534781725E+02  0.00000000000E+00 0. -1.
        -14    1    4    4    0    0 -0.93118931595E+02  0.45762903561E+01 -0.56225091761E+02  0.10887303981E+03  0.00000000000E+00 0.  1.
</event>
<event>
12    1  0.1035051E+000  0.2067041E+03  0.7818608E-02  0.1144247E+00
         21   -1    0    0  501  502  0.00000000000E+00  0.00000000000E+00  0.33183299697E+02  0.33183299697E+02  0.00000000000E+00 0.  1.
         21   -1    0    0  502  503 -0.00000000000E+00 -0.00000000000E+00 -0.19334566854E+04  0.19334566854E+04  0.00000000000E+00 0.  1.
         -6    2    1    2    0  503  0.95968367464E+02 -0.61185519422E+02 -0.38088420480E+03  0.43325482038E+03  0.17228861419E+03 0.  0.
        -24    2    3    3    0    0  0.97890179920E+02 -0.54704855197E+01 -0.34456206591E+03  0.36655215073E+03  0.77621185270E+02 0.  0.
          6    2    1    2  501    0 -0.95968367464E+02  0.61185519422E+02 -0.15193891809E+04  0.15333851647E+04  0.17254850036E+03 0.  0.
         24    2    5    5    0    0 -0.21901329442E+02 -0.20331895716E+02 -0.92041799712E+03  0.92435348729E+03  0.79793645386E+02 0.  0.
          5    1    5    5  501    0 -0.74067038022E+02  0.81517415138E+02 -0.59897118379E+03  0.60903167742E+03  0.47000000000E+01 0. -1.
        -11    1    6    6    0    0 -0.49909977180E+02  0.53198215565E+00 -0.58303964315E+03  0.58517220910E+03  0.00000000000E+00 0.  1.
         12    1    6    6    0    0  0.28008647738E+02 -0.20863877872E+02 -0.33737835397E+03  0.33918127819E+03  0.00000000000E+00 0. -1.
         -5    1    3    3    0  503 -0.19218124562E+01 -0.55715033902E+02 -0.36322138892E+02  0.66702669658E+02  0.47000000000E+01 0.  1.
         11    1    4    4    0    0  0.78340250296E+02 -0.26864408403E+02 -0.31270016807E+03  0.32348150854E+03  0.00000000000E+00 0. -1.
        -12    1    4    4    0    0  0.19549929624E+02  0.21393922883E+02 -0.31861897838E+02  0.43070642188E+02  0.00000000000E+00 0.  1.
</event>
<event>
12    1  0.1035051E+000  0.2181818E+03  0.7818608E-02  0.1135558E+00
         21   -1    0    0  501  502  0.00000000000E+00  0.00000000000E+00  0.58701439114E+03  0.58701439114E+03  0.00000000000E+00 0. -1.
         21   -1    0    0  502  503 -0.00000000000E+00 -0.00000000000E+00 -0.11983795607E+03  0.11983795607E+03  0.00000000000E+00 0. -1.
         -6    2    1    2    0  503  0.61017022590E+00  0.13035499473E+03  0.43672469912E+03  0.48819235097E+03  0.17495860016E+03 0.  0.
        -24    2    3    3    0    0  0.46863315370E+02  0.12249753019E+03  0.23067319064E+03  0.27681494601E+03  0.78832596190E+02 0.  0.
          6    2    1    2  501    0 -0.61017022590E+00 -0.13035499473E+03  0.30451735952E+02  0.21865999624E+03  0.17289328725E+03 0.  0.
         24    2    5    5    0    0  0.63404298742E+02 -0.11146505529E+03  0.23671593488E+02  0.15140865885E+03  0.76939417632E+02 0.  0.
          5    1    5    5  501    0 -0.64014468968E+02 -0.18889939434E+02  0.67801424639E+01  0.67251337391E+02  0.47000000000E+01 0. -1.
        -11    1    6    6    0    0  0.50111241186E+02 -0.96578565111E+02 -0.13079185778E+02  0.10958841560E+03  0.00000000000E+00 0.  1.
         12    1    6    6    0    0  0.13293057556E+02 -0.14886490183E+02  0.36750779266E+02  0.41820243254E+02  0.00000000000E+00 0. -1.
         -5    1    3    3    0  503 -0.46253145144E+02  0.78574645410E+01  0.20605150848E+03  0.21137740497E+03  0.47000000000E+01 0.  1.
         13    1    4    4    0    0  0.11072239584E+02 -0.74798292880E+01  0.47718636628E+02  0.49554118066E+02  0.00000000000E+00 0. -1.
        -14    1    4    4    0    0  0.35791075787E+02  0.12997735947E+03  0.18295455401E+03  0.22726082794E+03  0.00000000000E+00 0.  1.
</event>
<event>
12    1  0.1035051E+000  0.1715035E+03  0.7818608E-02  0.1177142E+00
         21   -1    0    0  501  502  0.00000000000E+00  0.00000000000E+00  0.45497579256E+02  0.45497579256E+02  0.00000000000E+00 0. -1.
         21   -1    0    0  502  503 -0.00000000000E+00 -0.00000000000E+00 -0.10312768465E+04  0.10312768465E+04  0.00000000000E+00 0. -1.
         -6    2    1    2    0  503  0.13170271469E+02  0.54336305742E+01 -0.16174401230E+03  0.23574261309E+03  0.17091071855E+03 0.  0.
        -24    2    3    3    0    0 -0.41411188981E+02  0.12674598930E+02 -0.37758409852E+02  0.99999889290E+02  0.81845881464E+02 0.  0.
          6    2    1    2  501    0 -0.13170271469E+02 -0.54336305742E+01 -0.82403525496E+03  0.84103181269E+03  0.16762287478E+03 0.  0.
         24    2    5    5    0    0 -0.39256011965E+02 -0.57698487411E+02 -0.62892098984E+03  0.63730712698E+03  0.75819606340E+02 0.  0.
          5    1    5    5  501    0  0.26085740496E+02  0.52264856837E+02 -0.19511426512E+03  0.20372468572E+03  0.47000000000E+01 0. -1.
        -11    1    6    6    0    0 -0.53568340655E+01 -0.67454582797E+02 -0.39953575593E+03  0.40522541465E+03  0.00000000000E+00 0.  1.
         12    1    6    6    0    0 -0.33899177900E+02  0.97560953854E+01 -0.22938523391E+03  0.23208171233E+03  0.00000000000E+00 0. -1.
         -5    1    3    3    0  503  0.54581460450E+02 -0.72409683556E+01 -0.12398560245E+03  0.13574272379E+03  0.47000000000E+01 0.  1.
         13    1    4    4    0    0 -0.29036658892E+02 -0.26895858291E+02 -0.42728378733E+02  0.58242845929E+02  0.00000000000E+00 0. -1.
        -14    1    4    4    0    0 -0.12374530089E+02  0.39570457220E+02  0.49699688817E+01  0.41757043361E+02  0.00000000000E+00 0.  1.
</event>
<event>
12    1  0.1105776E+000  0.2395492E+03  0.7818608E-02  0.1120192E+00
         21   -1    0    0  503  502  0.00000000000E+00  0.00000000000E+00  0.36920359365E+03  0.36920359365E+03  0.00000000000E+00 0.  1.
         21   -1    0    0  501  503 -0.00000000000E+00 -0.00000000000E+00 -0.36264005826E+03  0.36264005826E+03  0.00000000000E+00 0.  1.
          6    2    1    2  501    0  0.14636120422E+03  0.78238466086E+02  0.28013882410E+03  0.36821298813E+03  0.17193075404E+03 0.  0.
         24    2    3    3    0    0  0.10224196028E+03 -0.18151293955E+02  0.15409938966E+03  0.20345400489E+03  0.82849395267E+02 0.  0.
         -6    2    1    2    0  502 -0.14636120422E+03 -0.78238466086E+02 -0.27357528872E+03  0.36363066378E+03  0.17274536569E+03 0.  0.
        -24    2    5    5    0    0 -0.90813783774E+02 -0.11798047096E+03 -0.16955223582E+03  0.23910023214E+03  0.79084925783E+02 0.  0.
          5    1    3    3  501    0  0.44119243941E+02  0.96389760041E+02  0.12603943444E+03  0.16475898325E+03  0.47000000000E+01 0. -1.
        -11    1    4    4    0    0 -0.90202563959E+01 -0.18016851797E+02  0.35607094487E+02  0.40912554942E+02  0.00000000000E+00 0.  1.
         12    1    4    4    0    0  0.11126221667E+03 -0.13444215838E+00  0.11849229518E+03  0.16254144994E+03  0.00000000000E+00 0. -1.
         -5    1    5    5    0  502 -0.55547420445E+02  0.39742004876E+02 -0.10402305289E+03  0.12453043163E+03  0.47000000000E+01 0.  1.
         13    1    6    6    0    0 -0.38356387295E+02 -0.55252099877E+02 -0.13400165244E+03  0.14993481865E+03  0.00000000000E+00 0. -1.
        -14    1    6    6    0    0 -0.52457396479E+02 -0.62728371085E+02 -0.35550583383E+02  0.89165413492E+02  0.00000000000E+00 0.  1.
</event>
<event>
12    1  0.1035051E+000  0.2944045E+03  0.7818608E-02  0.1088080E+00
         21   -1    0    0  501  502  0.00000000000E+00  0.00000000000E+00  0.83486509086E+03  0.83486509086E+03  0.00000000000E+00 0. -1.
         21   -1    0    0  502  503 -0.00000000000E+00 -0.00000000000E+00 -0.11062281698E+03  0.11062281698E+03  0.00000000000E+00 0. -1.
         -6    2    1    2    0  503 -0.19167631579E+03 -0.14350389841E+03  0.47960917254E+03  0.56276012358E+03  0.17129162095E+03 0.  0.
        -24    2    3    3    0    0 -0.21711682743E+02 -0.46507486071E+02  0.13138170903E+03  0.16328454630E+03  0.82257803071E+02 0.  0.
          6    2    1    2  501    0  0.19167631579E+03  0.14350389841E+03  0.24463310133E+03  0.38272778427E+03  0.17117833885E+03 0.  0.
         24    2    5    5    0    0  0.80307544500E+02  0.91694840211E+02  0.21198155105E+03  0.25554525612E+03  0.74229067859E+02 0.  0.
          5    1    5    5  501    0  0.11136877129E+03  0.51809058199E+02  0.32651550279E+02  0.12718252814E+03  0.47000000000E+01 0. -1.
        -13    1    6    6    0    0  0.90343910146E+02  0.94896530547E+02  0.18605922821E+03  0.22756407891E+03  0.00000000000E+00 0.  1.
         14    1    6    6    0    0 -0.10036365646E+02 -0.32016903355E+01  0.25922322845E+02  0.27981177210E+02  0.00000000000E+00 0. -1.
         -5    1    3    3    0  503 -0.16996463304E+03 -0.96996412339E+02  0.34822746351E+03  0.39947557727E+03  0.47000000000E+01 0.  1.
         13    1    4    4    0    0 -0.28450029609E+02  0.52476765088E+01  0.90952706375E+01  0.30325999430E+02  0.00000000000E+00 0. -1.
        -14    1    4    4    0    0  0.67383468661E+01 -0.51755162580E+02  0.12228643839E+03  0.13295854687E+03  0.00000000000E+00 0.  1.
</event>
<event>
12    1  0.1035051E+000  0.3054251E+03  0.7818608E-02  0.1082639E+00
         21   -1    0    0  501  502  0.00000000000E+00  0.00000000000E+00  0.23354575167E+03  0.23354575167E+03  0.00000000000E+00 0.  1.
         21   -1    0    0  502  503 -0.00000000000E+00 -0.00000000000E+00 -0.50591537532E+03  0.50591537532E+03  0.00000000000E+00 0.  1.
         -6    2    1    2    0  503  0.25108633845E+03 -0.88358220634E+01  0.34235330372E+02  0.30668970101E+03  0.17252273400E+03 0.  0.
        -24    2    3    3    0    0  0.23038667665E+03  0.14411278282E+01 -0.22279651354E+02  0.24545143799E+03  0.81669626664E+02 0.  0.
          6    2    1    2  501    0 -0.25108633845E+03  0.88358220634E+01 -0.30660495402E+03  0.43277142598E+03  0.17367235879E+03 0.  0.
         24    2    5    5    0    0 -0.46816909393E+02  0.42892971082E+02 -0.10089694902E+03  0.14084033417E+03  0.74994502684E+02 0.  0.
          5    1    5    5  501    0 -0.20426942906E+03 -0.34057149019E+02 -0.20570800500E+03  0.29193109182E+03  0.47000000000E+01 0. -1.
        -13    1    6    6    0    0 -0.46697399964E+02  0.62174219881E+02 -0.89002438122E+02  0.11818508693E+03  0.00000000000E+00 0.  1.
         14    1    6    6    0    0 -0.11950942884E+00 -0.19281248799E+02 -0.11894510898E+02  0.22655247235E+02  0.00000000000E+00 0. -1.
         -5    1    3    3    0  503  0.20699661804E+02 -0.10276949892E+02  0.56514981727E+02  0.61238263018E+02  0.47000000000E+01 0.  1.
         13    1    4    4    0    0  0.59236040011E+02  0.36389528803E+02 -0.11211432487E+02  0.70418764978E+02  0.00000000000E+00 0. -1.
        -14    1    4    4    0    0  0.17115063664E+03 -0.34948400974E+02 -0.11068218867E+02  0.17503267301E+03  0.00000000000E+00 0.  1.
</event>
<event>
12    1  0.1035051E+000  0.1978241E+03  0.7818608E-02  0.1151793E+00
         21   -1    0    0  503  502  0.00000000000E+00  0.00000000000E+00  0.29128589566E+02  0.29128589566E+02  0.00000000000E+00 0. -1.
         21   -1    0    0  501  503 -0.00000000000E+00 -0.00000000000E+00 -0.15479615916E+04  0.15479615916E+04  0.00000000000E+00 0. -1.
          6    2    1    2  501    0 -0.65782494073E+02  0.71545649171E+02 -0.46992186682E+03  0.50986363221E+03  0.17230277447E+03 0.  0.
         24    2    3    3    0    0 -0.10632471765E+03  0.77680017558E+02 -0.33105461664E+03  0.36499298114E+03  0.79269075776E+02 0.  0.
         -6    2    1    2    0  502  0.65782494073E+02 -0.71545649171E+02 -0.10489111353E+04  0.10672265490E+04  0.17120695309E+03 0.  0.
        -24    2    5    5    0    0 -0.18584985254E+02 -0.74368292503E+02 -0.50334444426E+03  0.51514780172E+03  0.78393771658E+02 0.  0.
          5    1    3    3  501    0  0.40542223572E+02 -0.61343683876E+01 -0.13886725018E+03  0.14487065106E+03  0.47000000000E+01 0. -1.
        -11    1    4    4    0    0 -0.49509199788E+01  0.33475950255E+02 -0.33785058514E+02  0.47818208173E+02  0.00000000000E+00 0.  1.
         12    1    4    4    0    0 -0.10137379767E+03  0.44204067303E+02 -0.29726955813E+03  0.31717477297E+03  0.00000000000E+00 0. -1.
         -5    1    5    5    0  502  0.84367479327E+02  0.28226433321E+01 -0.54556669099E+03  0.55207874729E+03  0.47000000000E+01 0.  1.
         11    1    6    6    0    0  0.11484038524E+02 -0.27440823607E+01 -0.24724126472E+03  0.24752304158E+03  0.00000000000E+00 0. -1.
        -12    1    6    6    0    0 -0.30069023778E+02 -0.71624210142E+02 -0.25610317954E+03  0.26762476014E+03  0.00000000000E+00 0.  1.
</event>
<event>
12    1  0.1035051E+000  0.1745741E+03  0.7818608E-02  0.1173178E+00
         21   -1    0    0  503  502  0.00000000000E+00  0.00000000000E+00  0.23130493241E+03  0.23130493241E+03  0.00000000000E+00 0.  1.
         21   -1    0    0  501  503 -0.00000000000E+00 -0.00000000000E+00 -0.13873845142E+03  0.13873845142E+03  0.00000000000E+00 0.  1.
          6    2    1    2  501    0 -0.32197606313E+02 -0.12182117285E+02  0.87952733571E+02  0.19547842609E+03  0.17114625876E+03 0.  0.
         24    2    3    3    0    0 -0.35281578958E+01 -0.61183945597E+02  0.92712914780E+01  0.98339475195E+02  0.76346397682E+02 0.  0.
         -6    2    1    2    0  502  0.32197606313E+02  0.12182117285E+02  0.46137474254E+01  0.17456495775E+03  0.17107468537E+03 0.  0.
        -24    2    5    5    0    0  0.23691718989E+02 -0.28355854604E+02 -0.48316118282E+02  0.10719034853E+03  0.88260815157E+02 0.  0.
          5    1    3    3  501    0 -0.28669448417E+02  0.49001828312E+02  0.78681442093E+02  0.97138950892E+02  0.47000000000E+01 0. -1.
        -11    1    4    4    0    0  0.85468301967E+01 -0.19481321023E+02  0.39893301707E+02  0.45211123590E+02  0.00000000000E+00 0.  1.
         12    1    4    4    0    0 -0.12074988093E+02 -0.41702624574E+02 -0.30622010229E+02  0.53128351605E+02  0.00000000000E+00 0. -1.
         -5    1    5    5    0  502  0.85058873243E+01  0.40537971889E+02  0.52929865707E+02  0.67374609222E+02  0.47000000000E+01 0.  1.
         11    1    6    6    0    0 -0.24645694951E+02 -0.28311672825E+02  0.17772568494E+01  0.37578181697E+02  0.00000000000E+00 0. -1.
        -12    1    6    6    0    0  0.48337413940E+02 -0.44181779462E-01 -0.50093375131E+02  0.69612166828E+02  0.00000000000E+00 0.  1.
</event>
<event>
12    1  0.1035051E+000  0.2701552E+03  0.7818608E-02  0.1103052E+00
         21   -1    0    0  503  502  0.00000000000E+00  0.00000000000E+00  0.88074437313E+03  0.88074437313E+03  0.00000000000E+00 0.  1.
         21   -1    0    0  501  503 -0.00000000000E+00 -0.00000000000E+00 -0.93343480229E+02  0.93343480229E+02  0.00000000000E+00 0.  1.
          6    2    1    2  501    0 -0.79318660405E+02 -0.17463955135E+03  0.59245670128E+03  0.65114420869E+03  0.19024566969E+03 0.  0.
         24    2    3    3    0    0 -0.12575753258E+03 -0.14745576528E+03  0.51697940334E+03  0.55833020340E+03  0.83106875996E+02 0.  0.
         -6    2    1    2    0  502  0.79318660405E+02  0.17463955135E+03  0.19494419163E+03  0.32294364467E+03  0.17175254583E+03 0.  0.
        -24    2    5    5    0    0  0.94524786966E+02  0.57701124174E+02  0.12648277567E+03  0.18650729500E+03  0.80763379492E+02 0.  0.
          5    1    3    3  501    0  0.46438872172E+02 -0.27183786067E+02  0.75477297933E+02  0.92814005284E+02  0.47000000000E+01 0. -1.
        -13    1    4    4    0    0  0.54870518622E+01  0.21077171520E+01  0.19413960542E+01  0.61902526903E+01  0.00000000000E+00 0.  1.
         14    1    4    4    0    0 -0.13124458444E+03 -0.14956348244E+03  0.51503800729E+03  0.55213995071E+03  0.00000000000E+00 0. -1.
         -5    1    5    5    0  502 -0.15206126561E+02  0.11693842718E+03  0.68461415958E+02  0.13643634967E+03  0.47000000000E+01 0.  1.
         13    1    6    6    0    0  0.37263994226E+02  0.69261701092E+02  0.72505632417E+02  0.10697128230E+03  0.00000000000E+00 0. -1.
        -14    1    6    6    0    0  0.57260792740E+02 -0.11560576918E+02  0.53977143251E+02  0.79536012708E+02  0.00000000000E+00 0.  1.
</event>
<event>
12    1  0.1035051E+000  0.2342984E+03  0.7818608E-02  0.1123849E+00
         21   -1    0    0  501  502  0.00000000000E+00  0.00000000000E+00  0.62491282243E+02  0.62491282243E+02  0.00000000000E+00 0. -1.
         21   -1    0    0  502  503 -0.00000000000E+00 -0.00000000000E+00 -0.88256062303E+03  0.88256062303E+03  0.00000000000E+00 0. -1.
         -6    2    1    2    0  503  0.44613977515E+02 -0.15115171909E+03 -0.45520488789E+03  0.51143707298E+03  0.17181135144E+03 0.  0.
        -24    2    3    3    0    0  0.47304389367E+02 -0.11607739866E+02 -0.18828309394E+03  0.21019116921E+03  0.79733050047E+02 0.  0.
          6    2    1    2  501    0 -0.44613977515E+02  0.15115171909E+03 -0.36486445290E+03  0.43361483230E+03  0.17337388680E+03 0.  0.
         24    2    5    5    0    0 -0.40227832807E+02  0.41957931228E+02 -0.27479767925E+03  0.29192278845E+03  0.79538691028E+02 0.  0.
          5    1    5    5  501    0 -0.43861447084E+01  0.10919378786E+03 -0.90066773648E+02  0.14169204384E+03  0.47000000000E+01 0. -1.
        -11    1    6    6    0    0  0.46310778173E+00  0.43182020024E+02 -0.21682936571E+03  0.22108793535E+03  0.00000000000E+00 0.  1.
         12    1    6    6    0    0 -0.40690940588E+02 -0.12240887956E+01 -0.57968313536E+02  0.70834853099E+02  0.00000000000E+00 0. -1.
         -5    1    3    3    0  503 -0.26904118516E+01 -0.13954397923E+03 -0.26692179395E+03  0.30124590377E+03  0.47000000000E+01 0.  1.
         11    1    4    4    0    0  0.25610694454E+02 -0.45844511339E+02 -0.11566718046E+03  0.12702961672E+03  0.00000000000E+00 0. -1.
        -12    1    4    4    0    0  0.21693694912E+02  0.34236771473E+02 -0.72615913488E+02  0.83161552484E+02  0.00000000000E+00 0.  1.
</event>
<event>
12    1  0.1035051E+000  0.3031717E+03  0.7818608E-02  0.1084469E+00
         21   -1    0    0  501  502  0.00000000000E+00  0.00000000000E+00  0.97048428150E+02  0.97048428150E+02  0.00000000000E+00 0. -1.
         21   -1    0    0  502  503 -0.00000000000E+00 -0.00000000000E+00 -0.11059233682E+04  0.11059233682E+04  0.00000000000E+00 0. -1.
         -6    2    1    2    0  503  0.22019215105E+03  0.12146115281E+03 -0.75085083173E+03  0.80974692400E+03  0.16933905157E+03 0.  0.
        -24    2    3    3    0    0  0.49070296316E+02  0.89253802182E+02 -0.32812179257E+03  0.35253588612E+03  0.79015853237E+02 0.  0.
          6    2    1    2  501    0 -0.22019215105E+03 -0.12146115281E+03 -0.25802410832E+03  0.39322487235E+03  0.15751814097E+03 0.  0.
         24    2    5    5    0    0 -0.13192723099E+03 -0.13540273219E+03 -0.20468589314E+03  0.28905136829E+03  0.76913487130E+02 0.  0.
          5    1    5    5  501    0 -0.88264920059E+02  0.13941579374E+02 -0.53338215180E+02  0.10417350405E+03  0.47000000000E+01 0. -1.
        -11    1    6    6    0    0 -0.14888443155E+02  0.89372534508E+01 -0.10582304880E+02  0.20335324325E+02  0.00000000000E+00 0.  1.
         12    1    6    6    0    0 -0.11703878784E+03 -0.14433998564E+03 -0.19410358826E+03  0.26871604397E+03  0.00000000000E+00 0. -1.
         -5    1    3    3    0  503  0.17112185473E+03  0.32207350631E+02 -0.42272903916E+03  0.45721103787E+03  0.47000000000E+01 0.  1.
         13    1    4    4    0    0 -0.17021497118E+02  0.38010271990E+02 -0.72855342782E+02  0.83919086701E+02  0.00000000000E+00 0. -1.
        -14    1    4    4    0    0  0.66091793434E+02  0.51243530192E+02 -0.25526644979E+03  0.26861679942E+03  0.00000000000E+00 0.  1.
</event>
<event>
12    1  0.1035051E+000  0.5339984E+03  0.7818608E-02  0.1005385E+00
         21   -1    0    0  501  502  0.00000000000E+00  0.00000000000E+00  0.46345900165E+03  0.46345900165E+03  0.00000000000E+00 0.  1.
         21   -1    0    0  502  503 -0.00000000000E+00 -0.00000000000E+00 -0.63184769302E+03  0.63184769302E+03  0.00000000000E+00 0.  1.
         -6    2    1    2    0  503 -0.15302917194E+03 -0.48080434844E+03 -0.17858879887E+03  0.56121085104E+03  0.16873918126E+03 0.  0.
        -24    2    3    3    0    0 -0.99275733554E+02 -0.41881658972E+03 -0.10362352776E+03  0.44997328435E+03  0.80468093193E+02 0.  0.
          6    2    1    2  501    0  0.15302917194E+03  0.48080434844E+03  0.10200107504E+02  0.53409584364E+03  0.17482442351E+03 0.  0.
         24    2    5    5    0    0  0.18096201303E+03  0.37248606287E+03  0.22574415884E+01  0.42185382591E+03  0.80389285400E+02 0.  0.
          5    1    5    5  501    0 -0.27932841091E+02  0.10831828558E+03  0.79426659158E+01  0.11224201773E+03  0.47000000000E+01 0. -1.
        -11    1    6    6    0    0  0.43902203324E+02  0.78408695204E+02 -0.32476518263E+02  0.95551301293E+02  0.00000000000E+00 0.  1.
         12    1    6    6    0    0  0.13705980970E+03  0.29407736766E+03  0.34733959851E+02  0.32630252462E+03  0.00000000000E+00 0. -1.
         -5    1    3    3    0  503 -0.53753438383E+02 -0.61987758718E+02 -0.74965271115E+02  0.11123756669E+03  0.47000000000E+01 0.  1.
         11    1    4    4    0    0 -0.54723364425E+02 -0.23757025878E+03 -0.17498184911E+02  0.24441861825E+03  0.00000000000E+00 0. -1.
        -12    1    4    4    0    0 -0.44552369128E+02 -0.18124633094E+03 -0.86125342846E+02  0.20555466610E+03  0.00000000000E+00 0.  1.
</event>
<event>
12    1  0.1035051E+000  0.1788915E+03  0.7818608E-02  0.1169086E+00
         21   -1    0    0  503  502  0.00000000000E+00  0.00000000000E+00  0.19327975372E+03  0.19327975372E+03  0.00000000000E+00 0.  1.
         21   -1    0    0  501  503 -0.00000000000E+00 -0.00000000000E+00 -0.22458762826E+03  0.22458762826E+03  0.00000000000E+00 0.  1.
          6    2    1    2  501    0 -0.42870367096E+02 -0.10082234238E+01  0.92122317270E+02  0.20121804559E+03  0.17367583494E+03 0.  0.
         24    2    3    3    0    0 -0.51547324503E+01  0.35761838783E+02 -0.93709094160E+01  0.86773859914E+02  0.78335231163E+02 0.  0.
         -6    2    1    2    0  502  0.42870367096E+02  0.10082234238E+01 -0.12343019182E+03  0.21664933639E+03  0.17280925270E+03 0.  0.
        -24    2    5    5    0    0  0.75250425324E+01  0.64628122497E+02 -0.82424894962E+02  0.13298149372E+03  0.81589177474E+02 0.  0.
          5    1    3    3  501    0 -0.37715634646E+02 -0.36770062207E+02  0.10149322669E+03  0.11444418567E+03  0.47000000000E+01 0. -1.
        -13    1    4    4    0    0 -0.14335197717E+02 -0.22318750904E+02  0.29682977776E+01  0.26691484170E+02  0.00000000000E+00 0.  1.
         14    1    4    4    0    0  0.91804652664E+01  0.58080589687E+02 -0.12339207194E+02  0.60082375744E+02  0.00000000000E+00 0. -1.
         -5    1    5    5    0  502  0.35345324564E+02 -0.63619899073E+02 -0.41005296854E+02  0.83667842667E+02  0.47000000000E+01 0.  1.
         11    1    6    6    0    0  0.20645797494E+02 -0.13333736754E+02 -0.26499067219E+02  0.36141915465E+02  0.00000000000E+00 0. -1.
        -12    1    6    6    0    0 -0.13120754962E+02  0.77961859250E+02 -0.55925827743E+02  0.96839578258E+02  0.00000000000E+00 0.  1.
</event>
<event>
12    1  0.1035051E+000  0.2301255E+03  0.7818608E-02  0.1127274E+00
         21   -1    0    0  501  502  0.00000000000E+00  0.00000000000E+00  0.42319046340E+03  0.42319046340E+03  0.00000000000E+00 0.  1.
         21   -1    0    0  502  503 -0.00000000000E+00 -0.00000000000E+00 -0.14144012690E+03  0.14144012690E+03  0.00000000000E+00 0.  1.
         -6    2    1    2    0  503  0.14823983866E+03  0.33394297804E+02  0.24407726660E+03  0.33545709181E+03  0.17282221930E+03 0.  0.
        -24    2    3    3    0    0  0.15359260614E+03  0.72625365502E+02  0.20289809283E+03  0.27813743424E+03  0.85601774935E+02 0.  0.
          6    2    1    2  501    0 -0.14823983866E+03 -0.33394297804E+02  0.37673069900E+02  0.22917349849E+03  0.16736488079E+03 0.  0.
         24    2    5    5    0    0 -0.23804190103E+02 -0.17436567740E+02  0.51721847716E+02  0.10284718318E+03  0.83855352822E+02 0.  0.
          5    1    5    5  501    0 -0.12443564856E+03 -0.15957730063E+02 -0.14048777815E+02  0.12632631531E+03  0.47000000000E+01 0. -1.
        -11    1    6    6    0    0  0.23016366084E+02 -0.30313543345E+01 -0.89389450088E+01  0.24876634714E+02  0.00000000000E+00 0.  1.
         12    1    6    6    0    0 -0.46820556187E+02 -0.14405213406E+02  0.60660792725E+02  0.77970548471E+02  0.00000000000E+00 0. -1.
         -5    1    3    3    0  503 -0.53527674797E+01 -0.39231067698E+02  0.41179173763E+02  0.57319657573E+02  0.47000000000E+01 0.  1.
         13    1    4    4    0    0  0.53920432083E+02  0.94876979629E+01  0.12579164349E+03  0.13718952941E+03  0.00000000000E+00 0. -1.
        -14    1    4    4    0    0  0.99672174060E+02  0.63137667539E+02  0.77106449346E+02  0.14094790483E+03  0.00000000000E+00 0.  1.
</event>
<event>
12    1  0.1035051E+000  0.2376466E+03  0.7818608E-02  0.1121377E+00
         21   -1    0    0  503  502  0.00000000000E+00  0.00000000000E+00  0.12209689848E+04  0.12209689848E+04  0.00000000000E+00 0. -1.
         21   -1    0    0  501  503 -0.00000000000E+00 -0.00000000000E+00 -0.61123744337E+02  0.61123744337E+02  0.00000000000E+00 0. -1.
          6    2    1    2  501    0 -0.13595683505E+03 -0.91799141045E+02  0.26363442163E+03  0.35490895858E+03  0.17188925888E+03 0.  0.
         24    2    3    3    0    0 -0.12963240912E+03 -0.50079562067E+02  0.10632731002E+03  0.19197296195E+03  0.78965797859E+02 0.  0.
         -6    2    1    2    0  502  0.13595683505E+03  0.91799141045E+02  0.89621081881E+03  0.92718377053E+03  0.17194350614E+03 0.  0.
        -24    2    5    5    0    0  0.25646421904E+02  0.75055068808E+02  0.29119988369E+03  0.31195286038E+03  0.78906352886E+02 0.  0.
          5    1    3    3  501    0 -0.63244259248E+01 -0.41719578978E+02  0.15730711162E+03  0.16293599664E+03  0.47000000000E+01 0. -1.
        -13    1    4    4    0    0 -0.39312669802E+02 -0.55201567238E+02  0.32266008655E+02  0.75058606082E+02  0.00000000000E+00 0.  1.
         14    1    4    4    0    0 -0.90319739322E+02  0.51220051704E+01  0.74061301360E+02  0.11691435586E+03  0.00000000000E+00 0. -1.
         -5    1    5    5    0  502  0.11031041314E+03  0.16744072237E+02  0.60501093511E+03  0.61523091015E+03  0.47000000000E+01 0.  1.
         11    1    6    6    0    0 -0.27786011006E+02  0.31757451108E+02  0.13058471370E+03  0.13723325239E+03  0.00000000000E+00 0. -1.
        -12    1    6    6    0    0  0.53432432910E+02  0.43297617700E+02  0.16061516999E+03  0.17471960799E+03  0.00000000000E+00 0.  1.
</event>
<event>
12    1  0.1035051E+000  0.2389138E+03  0.7818608E-02  0.1121300E+00
         21   -1    0    0  501  502  0.00000000000E+00  0.00000000000E+00  0.19466431225E+03  0.19466431225E+03  0.00000000000E+00 0. -1.
         21   -1    0    0  502  503 -0.00000000000E+00 -0.00000000000E+00 -0.28882306409E+03  0.28882306409E+03  0.00000000000E+00 0. -1.
         -6    2    1    2    0  503 -0.78855635264E+02  0.14591878190E+03 -0.31715150541E+02  0.24100968283E+03  0.17195730377E+03 0.  0.
        -24    2    3    3    0    0 -0.15883017013E+02  0.78237927118E+02 -0.81742033067E+02  0.13579073145E+03  0.73375195463E+02 0.  0.
          6    2    1    2  501    0  0.78855635264E+02 -0.14591878190E+03 -0.62443601302E+02  0.24247769352E+03  0.16548633294E+03 0.  0.
         24    2    5    5    0    0  0.94580156024E+02 -0.49821194258E+02 -0.17716119504E+02  0.13521798752E+03  0.80885634992E+02 0.  0.
          5    1    5    5  501    0 -0.15724520761E+02 -0.96097587637E+02 -0.44727481798E+02  0.10725970600E+03  0.47000000000E+01 0. -1.
        -13    1    6    6    0    0  0.51084234865E+02 -0.28935526329E+02  0.31220202770E+02  0.66494847895E+02  0.00000000000E+00 0.  1.
         14    1    6    6    0    0  0.43495921160E+02 -0.20885667929E+02 -0.48936322274E+02  0.68723139626E+02  0.00000000000E+00 0. -1.
         -5    1    3    3    0  503 -0.62972618250E+02  0.67680854778E+02  0.50026882526E+02  0.10521895137E+03  0.47000000000E+01 0.  1.
         11    1    4    4    0    0 -0.32544397357E+02  0.62457350131E+01 -0.35777285731E+02  0.48766393956E+02  0.00000000000E+00 0. -1.
        -12    1    4    4    0    0  0.16661380344E+02  0.71992192105E+02 -0.45964747336E+02  0.87024337496E+02  0.00000000000E+00 0.  1.
</event>
<event>
12    1  0.1035051E+000  0.3304900E+03  0.7818608E-02  0.1071532E+00
         21   -1    0    0  503  502  0.00000000000E+00  0.00000000000E+00  0.11424608988E+04  0.11424608988E+04  0.00000000000E+00 0.  1.
         21   -1    0    0  501  503 -0.00000000000E+00 -0.00000000000E+00 -0.10455122964E+03  0.10455122964E+03  0.00000000000E+00 0.  1.
          6    2    1    2  501    0 -0.20939987640E+03  0.17974404452E+03  0.71290639016E+03  0.78349213248E+03  0.17166295685E+03 0.  0.
         24    2    3    3    0    0 -0.23004764355E+03  0.14481825393E+03  0.62585468829E+03  0.68733481381E+03  0.82709191996E+02 0.  0.
         -6    2    1    2    0  502  0.20939987640E+03 -0.17974404452E+03  0.32500327902E+03  0.46351999597E+03  0.18184450916E+03 0.  0.
        -24    2    5    5    0    0  0.20600672228E+03 -0.13894567444E+03  0.19166705319E+03  0.32396119254E+03  0.80435843512E+02 0.  0.
          5    1    3    3  501    0  0.20647767148E+02  0.34925790594E+02  0.87051701865E+02  0.96157318673E+02  0.47000000000E+01 0. -1.
        -13    1    4    4    0    0 -0.28950186942E+02 -0.93466660743E+01  0.57439769239E+02  0.64998465989E+02  0.00000000000E+00 0.  1.
         14    1    4    4    0    0 -0.20109745660E+03  0.15416492000E+03  0.56841491905E+03  0.62233634782E+03  0.00000000000E+00 0. -1.
         -5    1    5    5    0  502  0.33931541139E+01 -0.40798370084E+02  0.13333622583E+03  0.13955880343E+03  0.47000000000E+01 0.  1.
         13    1    6    6    0    0  0.13423130624E+03 -0.99406467857E+02  0.79333451707E+02  0.18491480737E+03  0.00000000000E+00 0. -1.
        -14    1    6    6    0    0  0.71775416047E+02 -0.39539206582E+02  0.11233360148E+03  0.13904638517E+03  0.00000000000E+00 0.  1.
</event>
<event>
12    1  0.1035051E+000  0.1760726E+03  0.7818608E-02  0.1171985E+00
         21   -1    0    0  501  502  0.00000000000E+00  0.00000000000E+00  0.96620006314E+03  0.96620006314E+03  0.00000000000E+00 0. -1.
         21   -1    0    0  502  503 -0.00000000000E+00 -0.00000000000E+00 -0.33662859479E+02  0.33662859479E+02  0.00000000000E+00 0. -1.
         -6    2    1    2    0  503 -0.22884889150E+02  0.27730063258E+02  0.58395176564E+03  0.60991901863E+03  0.17236261236E+03 0.  0.
        -24    2    3    3    0    0 -0.44626409267E+02 -0.40403818672E+02  0.27649171162E+03  0.29421552739E+03  0.80567518261E+02 0.  0.
          6    2    1    2  501    0  0.22884889150E+02 -0.27730063258E+02  0.34858543803E+03  0.38994390399E+03  0.17103147691E+03 0.  0.
         24    2    5    5    0    0 -0.50408376487E+02 -0.26867964772E+02  0.16308538366E+03  0.19043198412E+03  0.80028783944E+02 0.  0.
          5    1    5    5  501    0  0.73293265636E+02 -0.86209848609E+00  0.18550005436E+03  0.19951191987E+03  0.47000000000E+01 0. -1.
        -13    1    6    6    0    0 -0.18649962491E+02 -0.51092705307E+02  0.66478813577E+02  0.85893645231E+02  0.00000000000E+00 0.  1.
         14    1    6    6    0    0 -0.31758413995E+02  0.24224740535E+02  0.96606570086E+02  0.10453833889E+03  0.00000000000E+00 0. -1.
         -5    1    3    3    0  503  0.21741520117E+02  0.68133881931E+02  0.30746005402E+03  0.31570349124E+03  0.47000000000E+01 0.  1.
         13    1    4    4    0    0  0.18842664172E+02  0.41608257794E+00  0.10751067887E+03  0.10915019556E+03  0.00000000000E+00 0. -1.
        -14    1    4    4    0    0 -0.63469073439E+02 -0.40819901250E+02  0.16898103274E+03  0.18506533184E+03  0.00000000000E+00 0.  1.
</event>
<event>
12    1  0.1035051E+000  0.1991678E+03  0.7818608E-02  0.1150935E+00
         21   -1    0    0  501  502  0.00000000000E+00  0.00000000000E+00  0.66708750097E+02  0.66708750097E+02  0.00000000000E+00 0. -1.
         21   -1    0    0  502  503 -0.00000000000E+00 -0.00000000000E+00 -0.59092583879E+03  0.59092583879E+03  0.00000000000E+00 0. -1.
         -6    2    1    2    0  503  0.68665057208E+01  0.94594996715E+02 -0.28760648369E+03  0.34983608226E+03  0.17513546952E+03 0.  0.
        -24    2    3    3    0    0 -0.29297033390E+02  0.36556435510E+02 -0.56751153455E+02  0.10901965913E+03  0.80435710458E+02 0.  0.
          6    2    1    2  501    0 -0.68665057208E+01 -0.94594996715E+02 -0.23661060501E+03  0.30779850663E+03  0.17251081120E+03 0.  0.
         24    2    5    5    0    0  0.16791914817E+00 -0.23115080449E+02 -0.21829082808E+03  0.23352491921E+03  0.79678523608E+02 0.  0.
          5    1    5    5  501    0 -0.70344248690E+01 -0.71479916267E+02 -0.18319776924E+02  0.74273587427E+02  0.47000000000E+01 0. -1.
        -11    1    6    6    0    0  0.22497015578E+02 -0.34583592046E+02 -0.57406254915E+02  0.70693837440E+02  0.00000000000E+00 0.  1.
         12    1    6    6    0    0 -0.22329096430E+02  0.11468511597E+02 -0.16088457317E+03  0.16283108177E+03  0.00000000000E+00 0. -1.
         -5    1    3    3    0  503  0.36163539111E+02  0.58038561206E+02 -0.23085533023E+03  0.24081642312E+03  0.47000000000E+01 0.  1.
         11    1    4    4    0    0 -0.19977673833E+02 -0.12667024169E+02 -0.53874829936E+02  0.58839257759E+02  0.00000000000E+00 0. -1.
        -12    1    4    4    0    0 -0.93193595573E+01  0.49223459678E+02 -0.28763235189E+01  0.50180401376E+02  0.00000000000E+00 0.  1.
</event>
<event>
12    1  0.1035051E+000  0.1887473E+03  0.7818608E-02  0.1159810E+00
         21   -1    0    0  503  502  0.00000000000E+00  0.00000000000E+00  0.42932955133E+02  0.42932955133E+02  0.00000000000E+00 0. -1.
         21   -1    0    0  501  503 -0.00000000000E+00 -0.00000000000E+00 -0.82753266790E+03  0.82753266790E+03  0.00000000000E+00 0. -1.
          6    2    1    2  501    0  0.73776337227E+02  0.17395586389E+01 -0.41196681761E+03  0.45275661046E+03  0.17270181095E+03 0.  0.
         24    2    3    3    0    0  0.10275009838E+03 -0.27264765547E+02 -0.22858409938E+03  0.26478841900E+03  0.81001643115E+02 0.  0.
         -6    2    1    2    0  502 -0.73776337227E+02 -0.17395586389E+01 -0.37263289515E+03  0.41770901256E+03  0.17372268312E+03 0.  0.
        -24    2    5    5    0    0 -0.44993789931E+02  0.57107751321E+02 -0.30382819414E+03  0.32259004601E+03  0.80417845246E+02 0.  0.
          5    1    3    3  501    0 -0.28973761157E+02  0.29004324186E+02 -0.18338271823E+03  0.18796819146E+03  0.47000000000E+01 0. -1.
        -11    1    4    4    0    0  0.90993632164E+02 -0.52897136952E+02 -0.18597105828E+03  0.21368945390E+03  0.00000000000E+00 0.  1.
         12    1    4    4    0    0  0.11756466219E+02  0.25632371404E+02 -0.42613041107E+02  0.51098965099E+02  0.00000000000E+00 0. -1.
         -5    1    5    5    0  502 -0.28782547296E+02 -0.58847309960E+02 -0.68804701008E+02  0.95118966559E+02  0.47000000000E+01 0.  1.
         11    1    6    6    0    0  0.20707853185E+02  0.30793768176E+02 -0.12005239356E+03  0.12565686826E+03  0.00000000000E+00 0. -1.
        -12    1    6    6    0    0 -0.65701643116E+02  0.26313983145E+02 -0.18377580058E+03  0.19693317774E+03  0.00000000000E+00 0.  1.
</event>
<event>
12    1  0.1035051E+000  0.2364062E+03  0.7818608E-02  0.1122375E+00
         21   -1    0    0  501  502  0.00000000000E+00  0.00000000000E+00  0.22956725506E+03  0.22956725506E+03  0.00000000000E+00 0. -1.
         21   -1    0    0  502  503 -0.00000000000E+00 -0.00000000000E+00 -0.24245583667E+03  0.24245583667E+03  0.00000000000E+00 0. -1.
         -6    2    1    2    0  503  0.13295400924E+03 -0.91516540947E+02 -0.72731786961E+01  0.23555021611E+03  0.17140291521E+03 0.  0.
        -24    2    3    3    0    0  0.93870623962E+02  0.17994265938E+02 -0.30194330310E+02  0.11694331488E+03  0.60237477225E+02 0.  0.
          6    2    1    2  501    0 -0.13295400924E+03  0.91516540947E+02 -0.56154029165E+01  0.23647287562E+03  0.17273054830E+03 0.  0.
         24    2    5    5    0    0 -0.11749086059E+03  0.27307566149E+02  0.46117047641E+02  0.15244765410E+03  0.81016662895E+02 0.  0.
          5    1    5    5  501    0 -0.15463148648E+02  0.64208974798E+02 -0.51732450558E+02  0.84025221520E+02  0.47000000000E+01 0. -1.
        -13    1    6    6    0    0 -0.41062627735E+02  0.37875934277E+02 -0.10378902779E+02  0.56819428163E+02  0.00000000000E+00 0.  1.
         14    1    6    6    0    0 -0.76428232854E+02 -0.10568368128E+02  0.56495950421E+02  0.95628225938E+02  0.00000000000E+00 0. -1.
         -5    1    3    3    0  503  0.39083385275E+02 -0.10951080689E+03  0.22921151614E+02  0.11860690123E+03  0.47000000000E+01 0.  1.
         11    1    4    4    0    0  0.57908947781E+02 -0.11907159705E+02 -0.36907517165E+02  0.69694989121E+02  0.00000000000E+00 0. -1.
        -12    1    4    4    0    0  0.35961676181E+02  0.29901425643E+02  0.67131868548E+01  0.47248325759E+02  0.00000000000E+00 0.  1.
</event>
<event>
12    1  0.1035051E+000  0.1988144E+03  0.7818608E-02  0.1150856E+00
         21   -1    0    0  503  502  0.00000000000E+00  0.00000000000E+00  0.23371631132E+02  0.23371631132E+02  0.00000000000E+00 0. -1.
         21   -1    0    0  501  503 -0.00000000000E+00 -0.00000000000E+00 -0.18764732968E+04  0.18764732968E+04  0.00000000000E+00 0. -1.
          6    2    1    2  501    0 -0.38650272088E+02 -0.92160241479E+02 -0.62338480411E+03  0.65416009334E+03  0.17125845991E+03 0.  0.
         24    2    3    3    0    0 -0.89225846472E+02 -0.83797775286E+02 -0.49476524469E+03  0.51562164875E+03  0.78036648361E+02 0.  0.
         -6    2    1    2    0  502  0.38650272088E+02  0.92160241479E+02 -0.12297168615E+04  0.12456848346E+04  0.17187144578E+03 0.  0.
        -24    2    5    5    0    0  0.86626078147E+02  0.49218476523E+02 -0.65365656016E+03  0.66601834945E+03  0.79918754464E+02 0.  0.
          5    1    3    3  501    0  0.50575574384E+02 -0.83624661924E+01 -0.12861955942E+03  0.13853844459E+03  0.47000000000E+01 0. -1.
        -13    1    4    4    0    0 -0.16169870512E+02 -0.51010203339E+02 -0.30491184727E+03  0.30957186591E+03  0.00000000000E+00 0.  1.
         14    1    4    4    0    0 -0.73055975959E+02 -0.32787571947E+02 -0.18985339741E+03  0.20604978284E+03  0.00000000000E+00 0. -1.
         -5    1    5    5    0  502 -0.47975806059E+02  0.42941764955E+02 -0.57606030138E+03  0.57966648512E+03  0.47000000000E+01 0.  1.
         13    1    6    6    0    0  0.22976432336E+02  0.22099215629E+02 -0.44603174591E+03  0.44716955412E+03  0.00000000000E+00 0. -1.
        -14    1    6    6    0    0  0.63649645811E+02  0.27119260894E+02 -0.20762481425E+03  0.21884879533E+03  0.00000000000E+00 0.  1.
</event>
<event>
12    1  0.1035051E+000  0.2183187E+03  0.7818608E-02  0.1135470E+00
         21   -1    0    0  503  502  0.00000000000E+00  0.00000000000E+00  0.35087887278E+03  0.35087887278E+03  0.00000000000E+00 0.  1.
         21   -1    0    0  501  503 -0.00000000000E+00 -0.00000000000E+00 -0.15458702597E+03  0.15458702597E+03  0.00000000000E+00 0.  1.
          6    2    1    2  501    0 -0.13147357553E+03  0.91892064814E+01  0.73082831209E+01  0.21671369169E+03  0.17187690533E+03 0.  0.
         24    2    3    3    0    0 -0.56437656221E+01  0.37969915691E+02  0.10377421393E+02  0.87512376322E+02  0.77956132195E+02 0.  0.
         -6    2    1    2    0  502  0.13147357553E+03 -0.91892064814E+01  0.18898356369E+03  0.28875220706E+03  0.17404972611E+03 0.  0.
        -24    2    5    5    0    0  0.13970087233E+03 -0.18360826406E+02  0.77080755005E+02  0.17607507710E+03  0.72163261486E+02 0.  0.
          5    1    3    3  501    0 -0.12582980991E+03 -0.28780709209E+02 -0.30691382723E+01  0.12920131537E+03  0.47000000000E+01 0. -1.
        -11    1    4    4    0    0  0.12953793089E+02 -0.43603432728E+01 -0.25538536696E+02  0.28966018115E+02  0.00000000000E+00 0.  1.
         12    1    4    4    0    0 -0.18597558711E+02  0.42330258964E+02  0.35915958089E+02  0.58546358208E+02  0.00000000000E+00 0. -1.
         -5    1    5    5    0  502 -0.82272967998E+01  0.91716199249E+01  0.11190280869E+03  0.11267712996E+03  0.47000000000E+01 0.  1.
         13    1    6    6    0    0  0.63987334028E+02  0.18292848145E+02  0.76227682449E+01  0.66985922439E+02  0.00000000000E+00 0. -1.
        -14    1    6    6    0    0  0.75713538301E+02 -0.36653674552E+02  0.69457986760E+02  0.10908915466E+03  0.00000000000E+00 0.  1.
</event>
<event>
12    1  0.1035051E+000  0.3113712E+03  0.7818608E-02  0.1079824E+00
         21   -1    0    0  503  502  0.00000000000E+00  0.00000000000E+00  0.41855231844E+02  0.41855231844E+02  0.00000000000E+00 0. -1.
         21   -1    0    0  501  503 -0.00000000000E+00 -0.00000000000E+00 -0.28417172892E+04  0.28417172892E+04  0.00000000000E+00 0.  1.
          6    2    1    2  501    0 -0.19328195760E+03 -0.17468341645E+03 -0.77310341236E+03  0.83303536734E+03  0.16848390405E+03 0.  0.
         24    2    3    3    0    0 -0.13220761213E+03 -0.97376991351E+02 -0.65012923129E+03  0.67539305626E+03  0.80787572719E+02 0.  0.
         -6    2    1    2    0  502  0.19328195760E+03  0.17468341645E+03 -0.20267586450E+04  0.20505371537E+04  0.17052801098E+03 0.  0.
        -24    2    5    5    0    0  0.60684826195E+02  0.13939751569E+03 -0.12343588300E+04  0.12463315514E+04  0.81156017525E+02 0.  0.
          5    1    3    3  501    0 -0.61074345462E+02 -0.77306425100E+02 -0.12297418107E+03  0.15764231108E+03  0.47000000000E+01 0. -1.
        -13    1    4    4    0    0 -0.83568878378E+02 -0.65106888285E+02 -0.25736665709E+03  0.27831683477E+03  0.00000000000E+00 0.  1.
         14    1    4    4    0    0 -0.48638733755E+02 -0.32270103066E+02 -0.39276257421E+03  0.39707622149E+03  0.00000000000E+00 0. -1.
         -5    1    5    5    0  502  0.13259713140E+03  0.35285900765E+02 -0.79239981495E+03  0.80420560230E+03  0.47000000000E+01 0.  1.
         13    1    6    6    0    0  0.69763962193E+01 -0.98475137456E+01 -0.14275269603E+03  0.14326191349E+03  0.00000000000E+00 0. -1.
        -14    1    6    6    0    0  0.53708429975E+02  0.14924502943E+03 -0.10916061340E+04  0.11030696379E+04  0.00000000000E+00 0.  1.
</event>
<event>
12    1  0.1035051E+000  0.2400937E+03  0.7818608E-02  0.1119731E+00
         21   -1    0    0  501  502  0.00000000000E+00  0.00000000000E+00  0.10841834233E+03  0.10841834233E+03  0.00000000000E+00 0.  1.
         21   -1    0    0  502  503 -0.00000000000E+00 -0.00000000000E+00 -0.53312818287E+03  0.53312818287E+03  0.00000000000E+00 0.  1.
         -6    2    1    2    0  503 -0.84096807069E+02 -0.14466330156E+03 -0.19565137901E+03  0.30971674082E+03  0.17217797088E+03 0.  0.
        -24    2    3    3    0    0 -0.21309717290E+02 -0.12135018639E+02 -0.11513154689E+03  0.14235038284E+03  0.80043711044E+02 0.  0.
          6    2    1    2  501    0  0.84096807069E+02  0.14466330156E+03 -0.22905846153E+03  0.33182978438E+03  0.17217282953E+03 0.  0.
         24    2    5    5    0    0 -0.97709947305E+01  0.21586025568E+02 -0.76959498887E+02  0.11476904515E+03  0.81778606110E+02 0.  0.
          5    1    5    5  501    0  0.93867801800E+02  0.12307727599E+03 -0.15209896264E+03  0.21706073924E+03  0.47000000000E+01 0. -1.
        -13    1    6    6    0    0 -0.35986914973E+01  0.47359175549E+02 -0.19218625059E+02  0.51236682546E+02  0.00000000000E+00 0.  1.
         14    1    6    6    0    0 -0.61723032333E+01 -0.25773149982E+02 -0.57740873829E+02  0.63532362601E+02  0.00000000000E+00 0. -1.
         -5    1    3    3    0  503 -0.62787089779E+02 -0.13252828292E+03 -0.80519832120E+02  0.16736635798E+03  0.47000000000E+01 0.  1.
         11    1    4    4    0    0 -0.26726286468E+02 -0.38175445465E+02 -0.36054881119E+02  0.58920399501E+02  0.00000000000E+00 0. -1.
        -12    1    4    4    0    0  0.54165691781E+01  0.26040426826E+02 -0.79076665769E+02  0.83429983340E+02  0.00000000000E+00 0.  1.
</event>
<event>
12    1  0.1035051E+000  0.2970127E+03  0.7818608E-02  0.1086947E+00
         21   -1    0    0  503  502  0.00000000000E+00  0.00000000000E+00  0.33326291519E+03  0.33326291519E+03  0.00000000000E+00 0. -1.
         21   -1    0    0  501  503 -0.00000000000E+00 -0.00000000000E+00 -0.27829102623E+03  0.27829102623E+03  0.00000000000E+00 0. -1.
          6    2    1    2  501    0  0.18094305478E+03 -0.15701499058E+03  0.98581787912E+02  0.31294556020E+03  0.17556326040E+03 0.  0.
         24    2    3    3    0    0  0.20847088765E+03 -0.13868548662E+03  0.80359756815E+02  0.27489447986E+03  0.80096874772E+02 0.  0.
         -6    2    1    2    0  502 -0.18094305478E+03  0.15701499058E+03 -0.43609898952E+02  0.29860838121E+03  0.17283242087E+03 0.  0.
        -24    2    5    5    0    0 -0.12892923095E+03  0.17523157403E+03 -0.58729935652E+02  0.24126740728E+03  0.86208499245E+02 0.  0.
          5    1    3    3  501    0 -0.27527832868E+02 -0.18329503961E+02  0.18222031097E+02  0.38051080341E+02  0.47000000000E+01 0. -1.
        -11    1    4    4    0    0  0.12262879932E+03 -0.85140680803E+02  0.61331933681E+01  0.14941343317E+03  0.00000000000E+00 0.  1.
         12    1    4    4    0    0  0.85842088323E+02 -0.53544805819E+02  0.74226563447E+02  0.12548104669E+03  0.00000000000E+00 0. -1.
         -5    1    5    5    0  502 -0.52013823828E+02 -0.18216583450E+02  0.15120036701E+02  0.57340973934E+02  0.47000000000E+01 0.  1.
         13    1    6    6    0    0 -0.99265451030E+02  0.81193421121E+02 -0.62348863012E+02  0.14259516864E+03  0.00000000000E+00 0. -1.
        -14    1    6    6    0    0 -0.29663779920E+02  0.94038152912E+02  0.36189273592E+01  0.98672238636E+02  0.00000000000E+00 0.  1.
</event>
<event>
12    1  0.1035051E+000  0.2735346E+03  0.7818608E-02  0.1099436E+00
         21   -1    0    0  501  502  0.00000000000E+00  0.00000000000E+00  0.44598497757E+02  0.44598497757E+02  0.00000000000E+00 0.  1.
         21   -1    0    0  502  503 -0.00000000000E+00 -0.00000000000E+00 -0.16752006545E+04  0.16752006545E+04  0.00000000000E+00 0.  1.
         -6    2    1    2    0  503  0.75011328392E+02  0.19833822794E+03 -0.85855960309E+03  0.90073206119E+03  0.17096462191E+03 0.  0.
        -24    2    3    3    0    0 -0.17840052811E+02  0.46697212563E+02 -0.27087074552E+03  0.28671523744E+03  0.79597546795E+02 0.  0.
          6    2    1    2  501    0 -0.75011328392E+02 -0.19833822794E+03 -0.77204255367E+03  0.81906709109E+03  0.17279017036E+03 0.  0.
         24    2    5    5    0    0  0.11144900601E+02 -0.34003209446E+02 -0.20941056406E+03  0.22660971723E+03  0.78859067603E+02 0.  0.
          5    1    5    5  501    0 -0.86156228993E+02 -0.16433501849E+03 -0.56263198962E+03  0.59245737386E+03  0.47000000000E+01 0. -1.
        -13    1    6    6    0    0 -0.11574249508E+02  0.69039390603E+01 -0.15713954653E+01  0.13568231644E+02  0.00000000000E+00 0.  1.
         14    1    6    6    0    0  0.22719150109E+02 -0.40907148506E+02 -0.20783916859E+03  0.21304148559E+03  0.00000000000E+00 0. -1.
         -5    1    3    3    0  503  0.92851381204E+02  0.15164101537E+03 -0.58768885757E+03  0.61401682375E+03  0.47000000000E+01 0.  1.
         11    1    4    4    0    0  0.24039605438E+02  0.31788359586E+02 -0.19279140609E+03  0.19686779497E+03  0.00000000000E+00 0. -1.
        -12    1    4    4    0    0 -0.41879658249E+02  0.14908852978E+02 -0.78079339429E+02  0.89847442467E+02  0.00000000000E+00 0.  1.
</event>
<event>
12    1  0.1035051E+000  0.1823118E+03  0.7818608E-02  0.1165855E+00
         21   -1    0    0  503  502  0.00000000000E+00  0.00000000000E+00  0.64025480545E+02  0.64025480545E+02  0.00000000000E+00 0.  1.
         21   -1    0    0  501  503 -0.00000000000E+00 -0.00000000000E+00 -0.52762714225E+03  0.52762714225E+03  0.00000000000E+00 0.  1.
          6    2    1    2  501    0  0.49914649778E+02  0.22853132577E+02 -0.18699724504E+03  0.26037087643E+03  0.17265945010E+03 0.  0.
         24    2    3    3    0    0  0.70939718116E+02 -0.35450733622E+02 -0.85351384848E+02  0.14122657230E+03  0.79817840779E+02 0.  0.
         -6    2    1    2    0  502 -0.49914649778E+02 -0.22853132577E+02 -0.27660441666E+03  0.33128174636E+03  0.17385009125E+03 0.  0.
        -24    2    5    5    0    0 -0.10300530362E+03 -0.17106690852E+02 -0.18122958203E+03  0.22187384812E+03  0.74034529997E+02 0.  0.
          5    1    3    3  501    0 -0.21025068338E+02  0.58303866199E+02 -0.10164586020E+03  0.11914430413E+03  0.47000000000E+01 0. -1.
        -13    1    4    4    0    0  0.64573310278E+01 -0.46406255527E+02 -0.30948039051E+02  0.56151747944E+02  0.00000000000E+00 0.  1.
         14    1    4    4    0    0  0.64482387088E+02  0.10955521905E+02 -0.54403345797E+02  0.85074824353E+02  0.00000000000E+00 0. -1.
         -5    1    5    5    0  502  0.53090653838E+02 -0.57464417249E+01 -0.95374834634E+02  0.10940789825E+03  0.47000000000E+01 0.  1.
         13    1    6    6    0    0 -0.94505657176E+02 -0.40255668595E+02 -0.15423415776E+03  0.18531058662E+03  0.00000000000E+00 0. -1.
        -14    1    6    6    0    0 -0.84996464395E+01  0.23148977744E+02 -0.26995424262E+02  0.36563261497E+02  0.00000000000E+00 0.  1.
</event>
<event>
12    1  0.1035051E+000  0.1885526E+03  0.7818608E-02  0.1160055E+00
         21   -1    0    0  503  502  0.00000000000E+00  0.00000000000E+00  0.23958715021E+02  0.23958715021E+02  0.00000000000E+00 0.  1.
         21   -1    0    0  501  503 -0.00000000000E+00 -0.00000000000E+00 -0.15692144462E+04  0.15692144462E+04  0.00000000000E+00 0.  1.
          6    2    1    2  501    0 -0.46565842205E+02 -0.64270042199E+02 -0.57426057870E+03  0.60404037120E+03  0.16967775874E+03 0.  0.
         24    2    3    3    0    0 -0.51810666142E+02 -0.10471015066E+03 -0.49688254765E+03  0.51644836107E+03  0.78600780618E+02 0.  0.
         -6    2    1    2    0  502  0.46565842205E+02  0.64270042199E+02 -0.97099515247E+03  0.98913279001E+03  0.17103530092E+03 0.  0.
        -24    2    5    5    0    0 -0.40815829240E+02  0.39283184816E+02 -0.49411533006E+03  0.50364710065E+03  0.79380993122E+02 0.  0.
          5    1    3    3  501    0  0.52448239375E+01  0.40440108462E+02 -0.77378031047E+02  0.87592010134E+02  0.47000000000E+01 0. -1.
        -13    1    4    4    0    0 -0.70582123696E+02 -0.69789058369E+02 -0.39051851201E+03  0.40293554953E+03  0.00000000000E+00 0.  1.
         14    1    4    4    0    0  0.18771457554E+02 -0.34921092292E+02 -0.10636403564E+03  0.11351281154E+03  0.00000000000E+00 0. -1.
         -5    1    5    5    0  502  0.87381671444E+02  0.24986857384E+02 -0.47687982242E+03  0.48548568936E+03  0.47000000000E+01 0.  1.
         11    1    6    6    0    0  0.73600812553E+01  0.34978285954E+02 -0.93109069533E+02  0.99734397846E+02  0.00000000000E+00 0. -1.
        -12    1    6    6    0    0 -0.48175910495E+02  0.43048988613E+01 -0.40100626052E+03  0.40391270280E+03  0.00000000000E+00 0.  1.
</event>
<event>
12    1  0.1035051E+000  0.1839043E+03  0.7818608E-02  0.1164094E+00
         21   -1    0    0  503  502  0.00000000000E+00  0.00000000000E+00  0.52148662659E+02  0.52148662659E+02  0.00000000000E+00 0.  1.
         21   -1    0    0  501  503 -0.00000000000E+00 -0.00000000000E+00 -0.83017706381E+03  0.83017706381E+03  0.00000000000E+00 0.  1.
          6    2    1    2  501    0 -0.60953240958E+02  0.18919519769E+02 -0.18245933690E+03  0.25900936603E+03  0.17239836500E+03 0.  0.
         24    2    3    3    0    0  0.22971209367E+02  0.14068010079E+02 -0.14444493389E+03  0.16662952328E+03  0.78584182489E+02 0.  0.
         -6    2    1    2    0  502  0.60953240958E+02 -0.18919519769E+02 -0.59556906425E+03  0.62331636045E+03  0.17247472015E+03 0.  0.
        -24    2    5    5    0    0  0.75685783739E+02  0.44312669702E+02 -0.41456257793E+03  0.43096045153E+03  0.78567354604E+02 0.  0.
          5    1    3    3  501    0 -0.83924450325E+02  0.48515096900E+01 -0.38014403015E+02  0.92379842743E+02  0.47000000000E+01 0. -1.
        -11    1    4    4    0    0  0.71388910616E+01  0.64483080265E+01 -0.14832424105E+03  0.14863588034E+03  0.00000000000E+00 0.  1.
         12    1    4    4    0    0  0.15832318305E+02  0.76197020521E+01  0.38793071638E+01  0.17993642943E+02  0.00000000000E+00 0. -1.
         -5    1    5    5    0  502 -0.14732542782E+02 -0.63232189471E+02 -0.18100648633E+03  0.19235590892E+03  0.47000000000E+01 0.  1.
         13    1    6    6    0    0  0.31526514854E+02 -0.13536983824E+02 -0.23037333921E+03  0.23291424707E+03  0.00000000000E+00 0. -1.
        -14    1    6    6    0    0  0.44159268885E+02  0.57849653526E+02 -0.18418923871E+03  0.19804620446E+03  0.00000000000E+00 0.  1.
</event>
<event>
12    1  0.1035051E+000  0.2226070E+03  0.7818608E-02  0.1132060E+00
         21   -1    0    0  501  502  0.00000000000E+00  0.00000000000E+00  0.11835300100E+04  0.11835300100E+04  0.00000000000E+00 0. -1.
         21   -1    0    0  502  503 -0.00000000000E+00 -0.00000000000E+00 -0.10619116246E+03  0.10619116246E+03  0.00000000000E+00 0. -1.
         -6    2    1    2    0  503 -0.30060473456E+02 -0.13794021678E+03  0.10406966044E+04  0.10641186093E+04  0.17137052485E+03 0.  0.
        -24    2    3    3    0    0 -0.86413439919E+02 -0.75334065757E+02  0.61610090867E+03  0.63122279989E+03  0.75626644607E+02 0.  0.
          6    2    1    2  501    0  0.30060473456E+02  0.13794021678E+03  0.36642243121E+02  0.22560256314E+03  0.17211254181E+03 0.  0.
         24    2    5    5    0    0  0.28747531530E+02  0.13685401414E+03  0.81364540187E+02  0.18060170196E+03  0.80257987722E+02 0.  0.
          5    1    5    5  501    0  0.13129419257E+01  0.10862026330E+01 -0.44722297066E+02  0.45000861187E+02  0.47000000000E+01 0. -1.
        -11    1    6    6    0    0  0.55326743175E+02  0.10807009382E+03  0.54393887312E+02  0.13303717024E+03  0.00000000000E+00 0.  1.
         12    1    6    6    0    0 -0.26579211645E+02  0.28783920327E+02  0.26970652875E+02  0.47564531718E+02  0.00000000000E+00 0. -1.
         -5    1    3    3    0  503  0.56352966463E+02 -0.62606151020E+02  0.42459569575E+03  0.43289580943E+03  0.47000000000E+01 0.  1.
         13    1    4    4    0    0 -0.82590990963E+02 -0.39799538411E+02  0.53201617763E+03  0.53985784083E+03  0.00000000000E+00 0. -1.
        -14    1    4    4    0    0 -0.38224489557E+01 -0.35534527347E+02  0.84084731032E+02  0.91364959052E+02  0.00000000000E+00 0.  1.
</event>
<event>
12    1  0.1035051E+000  0.1853261E+03  0.7818608E-02  0.1163556E+00
         21   -1    0    0  503  502  0.00000000000E+00  0.00000000000E+00  0.13377951550E+03  0.13377951550E+03  0.00000000000E+00 0. -1.
         21   -1    0    0  501  503 -0.00000000000E+00 -0.00000000000E+00 -0.28075412288E+03  0.28075412288E+03  0.00000000000E+00 0. -1.
          6    2    1    2  501    0  0.68255095123E+02  0.99924614086E+01 -0.14044905545E+03  0.23253318688E+03  0.17200912339E+03 0.  0.
         24    2    3    3    0    0 -0.13257258209E+02  0.49051076786E+02 -0.70320014434E+02  0.11803422805E+03  0.80033814925E+02 0.  0.
         -6    2    1    2    0  502 -0.68255095123E+02 -0.99924614086E+01 -0.65255519268E+01  0.18200045150E+03  0.16829430835E+03 0.  0.
        -24    2    5    5    0    0 -0.64941967181E+02 -0.63516516840E+02  0.19165823820E+02  0.12235199708E+03  0.79692379652E+02 0.  0.
          5    1    3    3  501    0  0.81512353332E+02 -0.39058615378E+02 -0.70129041015E+02  0.11449895884E+03  0.47000000000E+01 0. -1.
        -11    1    4    4    0    0  0.33017553827E+02  0.30354658383E+02 -0.35021640062E+02  0.56904124797E+02  0.00000000000E+00 0.  1.
         12    1    4    4    0    0 -0.46274812036E+02  0.18696418404E+02 -0.35298374371E+02  0.61130103250E+02  0.00000000000E+00 0. -1.
         -5    1    5    5    0  502 -0.33131279424E+01  0.53524055431E+02 -0.25691375747E+02  0.59648454417E+02  0.47000000000E+01 0.  1.
         13    1    6    6    0    0 -0.32407093010E+02 -0.46660670354E+02 -0.27420675716E+02  0.63081941093E+02  0.00000000000E+00 0. -1.
        -14    1    6    6    0    0 -0.32534874170E+02 -0.16855846486E+02  0.46586499536E+02  0.59270055990E+02  0.00000000000E+00 0.  1.
</event>
<event>
12    1  0.1035051E+000  0.1897379E+03  0.7818608E-02  0.1159264E+00
         21   -1    0    0  503  502  0.00000000000E+00  0.00000000000E+00  0.16793263870E+03  0.16793263870E+03  0.00000000000E+00 0. -1.
         21   -1    0    0  501  503 -0.00000000000E+00 -0.00000000000E+00 -0.21383689321E+03  0.21383689321E+03  0.00000000000E+00 0. -1.
          6    2    1    2  501    0 -0.32297207746E+01 -0.78086254246E+02 -0.42451933984E+02  0.19200019269E+03  0.17015878789E+03 0.  0.
         24    2    3    3    0    0  0.66408556705E+01 -0.44753375354E+02  0.28865500187E+02  0.11252204782E+03  0.98899082784E+02 0.  0.
         -6    2    1    2    0  502  0.32297207746E+01  0.78086254246E+02 -0.34523205285E+01  0.18976933922E+03  0.17289473501E+03 0.  0.
        -24    2    5    5    0    0 -0.10763789411E+02  0.34687621970E+02  0.64288080040E+02  0.10797623756E+03  0.78783376175E+02 0.  0.
          5    1    3    3  501    0 -0.98705764451E+01 -0.33332878892E+02 -0.71317434171E+02  0.79478144866E+02  0.47000000000E+01 0. -1.
        -11    1    4    4    0    0  0.49720636747E+02 -0.41163174763E+02  0.24621047298E+02  0.69085053703E+02  0.00000000000E+00 0.  1.
         12    1    4    4    0    0 -0.43079781076E+02 -0.35902005908E+01  0.42444528884E+01  0.43436994120E+02  0.00000000000E+00 0. -1.
         -5    1    5    5    0  502  0.13993510186E+02  0.43398632276E+02 -0.67740400568E+02  0.81793101664E+02  0.47000000000E+01 0.  1.
         13    1    6    6    0    0  0.33077545362E+02  0.73709175110E+01  0.34440310830E+02  0.48317589367E+02  0.00000000000E+00 0. -1.
        -14    1    6    6    0    0 -0.43841334773E+02  0.27316704459E+02  0.29847769210E+02  0.59658648192E+02  0.00000000000E+00 0.  1.
</event>
<event>
12    1  0.1035051E+000  0.1825512E+03  0.7818608E-02  0.1165522E+00
         21   -1    0    0  501  502  0.00000000000E+00  0.00000000000E+00  0.37562654848E+03  0.37562654848E+03  0.00000000000E+00 0. -1.
         21   -1    0    0  502  503 -0.00000000000E+00 -0.00000000000E+00 -0.97899813232E+02  0.97899813232E+02  0.00000000000E+00 0. -1.
         -6    2    1    2    0  503  0.39860780730E+02  0.44690209366E+02  0.21244885902E+03  0.27965492626E+03  0.17171564701E+03 0.  0.
        -24    2    3    3    0    0 -0.29125565568E+02 -0.15324651270E+02  0.71934598792E+02  0.11194312942E+03  0.79205645091E+02 0.  0.
          6    2    1    2  501    0 -0.39860780730E+02 -0.44690209366E+02  0.65277876226E+02  0.19387143545E+03  0.17244951640E+03 0.  0.
         24    2    5    5    0    0  0.53650330522E+01  0.18949363552E+02  0.79487727244E+02  0.11437691149E+03  0.79849340268E+02 0.  0.
          5    1    5    5  501    0 -0.45225813782E+02 -0.63639572918E+02 -0.14209851018E+02  0.79494523958E+02  0.47000000000E+01 0. -1.
        -11    1    6    6    0    0  0.27511380927E+01  0.40370187838E+02  0.10092042343E+02  0.41703358924E+02  0.00000000000E+00 0.  1.
         12    1    6    6    0    0  0.26138949595E+01 -0.21420824286E+02  0.69395684901E+02  0.72673552568E+02  0.00000000000E+00 0. -1.
         -5    1    3    3    0  503  0.68986346297E+02  0.60014860636E+02  0.14051426023E+03  0.16771179684E+03  0.47000000000E+01 0.  1.
         13    1    4    4    0    0  0.22468184951E+02  0.91979800278E+01  0.39184335910E+02  0.46095925550E+02  0.00000000000E+00 0. -1.
        -14    1    4    4    0    0 -0.51593750519E+02 -0.24522631298E+02  0.32750262882E+02  0.65847203868E+02  0.00000000000E+00 0.  1.
</event>
<event>
12    1  0.1035051E+000  0.2772044E+03  0.7818608E-02  0.1097254E+00
         21   -1    0    0  503  502  0.00000000000E+00  0.00000000000E+00  0.19289703992E+03  0.19289703992E+03  0.00000000000E+00 0. -1.
         21   -1    0    0  501  503 -0.00000000000E+00 -0.00000000000E+00 -0.43185379022E+03  0.43185379022E+03  0.00000000000E+00 0. -1.
          6    2    1    2  501    0  0.48329521887E+02  0.20891824995E+03 -0.20681658348E+03  0.34568946201E+03  0.17534402497E+03 0.  0.
         24    2    3    3    0    0 -0.27890713910E+02  0.14432962804E+03 -0.82989187306E+02  0.18651493996E+03  0.79320137202E+02 0.  0.
         -6    2    1    2    0  502 -0.48329521887E+02 -0.20891824995E+03 -0.32140166817E+02  0.27906136813E+03  0.17566923182E+03 0.  0.
        -24    2    5    5    0    0  0.80320154953E+01 -0.23127373550E+02 -0.16857261051E+02  0.84252410790E+02  0.78834718200E+02 0.  0.
          5    1    3    3  501    0  0.76220235798E+02  0.64588621910E+02 -0.12382739618E+03  0.15917452205E+03  0.47000000000E+01 0. -1.
        -13    1    4    4    0    0 -0.40219737403E+02  0.30468953322E+02 -0.12319818197E+02  0.51939987618E+02  0.00000000000E+00 0.  1.
         14    1    4    4    0    0  0.12329023493E+02  0.11386067472E+03 -0.70669369109E+02  0.13457495234E+03  0.00000000000E+00 0. -1.
         -5    1    5    5    0  502 -0.56361537383E+02 -0.18579087640E+03 -0.15282905766E+02  0.19480895734E+03  0.47000000000E+01 0.  1.
         11    1    6    6    0    0 -0.92798127999E+01  0.18995483490E+02  0.17306103165E+02  0.27321136971E+02  0.00000000000E+00 0. -1.
        -12    1    6    6    0    0  0.17311828295E+02 -0.42122857040E+02 -0.34163364216E+02  0.56931273819E+02  0.00000000000E+00 0.  1.
</event>
<event>
12    1  0.1035051E+000  0.2550643E+03  0.7818608E-02  0.1110302E+00
         21   -1    0    0  501  502  0.00000000000E+00  0.00000000000E+00  0.12648049233E+03  0.12648049233E+03  0.00000000000E+00 0.  1.
         21   -1    0    0  502  503 -0.00000000000E+00 -0.00000000000E+00 -0.51270038122E+03  0.51270038122E+03  0.00000000000E+00 0.  1.
         -6    2    1    2    0  503 -0.17467242963E+03  0.71498671954E+02 -0.20129798334E+03  0.32413501291E+03  0.17005913892E+03 0.  0.
        -24    2    3    3    0    0 -0.18304870620E+03  0.66516938591E+02 -0.21985979717E+03  0.30264988761E+03  0.72988301091E+02 0.  0.
          6    2    1    2  501    0  0.17467242963E+03 -0.71498671954E+02 -0.18492190555E+03  0.31504586064E+03  0.17156708715E+03 0.  0.
         24    2    5    5    0    0  0.26854626750E+02 -0.24020988801E+02 -0.17491783003E+02  0.86662040767E+02  0.76851596967E+02 0.  0.
          5    1    5    5  501    0  0.14781780288E+03 -0.47477683153E+02 -0.16743012254E+03  0.22838381987E+03  0.47000000000E+01 0. -1.
        -13    1    6    6    0    0 -0.27250942227E+02 -0.94789180881E+01 -0.58507367277E+01  0.29439681734E+02  0.00000000000E+00 0.  1.
         14    1    6    6    0    0  0.54105568976E+02 -0.14542070713E+02 -0.11641046275E+02  0.57222359032E+02  0.00000000000E+00 0. -1.
         -5    1    3    3    0  503  0.83762765718E+01  0.49817333633E+01  0.18561813829E+02  0.21485125299E+02  0.47000000000E+01 0.  1.
         13    1    4    4    0    0 -0.46202946886E+02  0.36480337749E+02 -0.28286501618E+02  0.65311970702E+02  0.00000000000E+00 0. -1.
        -14    1    4    4    0    0 -0.13684575931E+03  0.30036600842E+02 -0.19157329555E+03  0.23733791690E+03  0.00000000000E+00 0.  1.
</event>
<event>
12    1  0.1035051E+000  0.4082791E+03  0.7818608E-02  0.1040982E+00
         21   -1    0    0  503  502  0.00000000000E+00  0.00000000000E+00  0.10268402419E+04  0.10268402419E+04  0.00000000000E+00 0.  1.
         21   -1    0    0  501  503 -0.00000000000E+00 -0.00000000000E+00 -0.16247874968E+03  0.16247874968E+03  0.00000000000E+00 0.  1.
          6    2    1    2  501    0 -0.13022779756E+03  0.34644582506E+03  0.40673819908E+03  0.57604020804E+03  0.17147119211E+03 0.  0.
         24    2    3    3    0    0 -0.61598864870E+02  0.13135809110E+03  0.90284477225E+02  0.18727586839E+03  0.76626338833E+02 0.  0.
         -6    2    1    2    0  502  0.13022779756E+03 -0.34644582506E+03  0.45762329309E+03  0.61327878349E+03  0.17235950493E+03 0.  0.
        -24    2    5    5    0    0  0.98939638412E+02 -0.17207860326E+03  0.16111210336E+03  0.26784593534E+03  0.79901423525E+02 0.  0.
          5    1    3    3  501    0 -0.68628932687E+02  0.21508773396E+03  0.31645372186E+03  0.38876433965E+03  0.47000000000E+01 0. -1.
        -11    1    4    4    0    0 -0.55205927899E+02  0.33922597124E+02  0.23272293799E+02  0.68847924656E+02  0.00000000000E+00 0.  1.
         12    1    4    4    0    0 -0.63929369713E+01  0.97435493979E+02  0.67012183426E+02  0.11842794374E+03  0.00000000000E+00 0. -1.
         -5    1    5    5    0  502  0.31288159146E+02 -0.17436722180E+03  0.29651118974E+03  0.34543284815E+03  0.47000000000E+01 0.  1.
         11    1    6    6    0    0  0.44303578527E+02 -0.67967289894E+02  0.11676391715E+03  0.14218358525E+03  0.00000000000E+00 0. -1.
        -12    1    6    6    0    0  0.54636059885E+02 -0.10411131337E+03  0.44348186206E+02  0.12566235009E+03  0.00000000000E+00 0.  1.
</event>
<event>
12    1  0.1035051E+000  0.5642493E+03  0.7818608E-02  0.9983152E-01
         21   -1    0    0  503  502  0.00000000000E+00  0.00000000000E+00  0.25570008430E+03  0.25570008430E+03  0.00000000000E+00 0.  1.
         21   -1    0    0  501  503 -0.00000000000E+00 -0.00000000000E+00 -0.12620023359E+04  0.12620023359E+04  0.00000000000E+00 0.  1.
          6    2    1    2  501    0 -0.41163401538E+03 -0.34554761937E+03 -0.40828990596E+03  0.69551264093E+03  0.16790314625E+03 0.  0.
         24    2    3    3    0    0 -0.38268135149E+03 -0.25658972494E+03 -0.31891397515E+03  0.56604484287E+03  0.80108282149E+02 0.  0.
         -6    2    1    2    0  502  0.41163401538E+03  0.34554761937E+03 -0.59801234567E+03  0.82218977931E+03  0.17184745490E+03 0.  0.
        -24    2    5    5    0    0  0.26688348709E+03  0.27700834925E+03 -0.49494387380E+03  0.63167587724E+03  0.78003553992E+02 0.  0.
          5    1    3    3  501    0 -0.28952663887E+02 -0.88957894425E+02 -0.89375930809E+02  0.12946779806E+03  0.47000000000E+01 0. -1.
        -11    1    4    4    0    0 -0.10432528775E+03 -0.63678395070E+02 -0.44215262678E+02  0.12997574049E+03  0.00000000000E+00 0.  1.
         12    1    4    4    0    0 -0.27835606374E+03 -0.19291132987E+03 -0.27469871248E+03  0.43606910238E+03  0.00000000000E+00 0. -1.
         -5    1    5    5    0  502  0.14475052829E+03  0.68539270114E+02 -0.10306847187E+03  0.19051390207E+03  0.47000000000E+01 0.  1.
         13    1    6    6    0    0  0.26322374504E+03  0.27758196113E+03 -0.46787842292E+03  0.60435809230E+03  0.00000000000E+00 0. -1.
        -14    1    6    6    0    0  0.36597420470E+01 -0.57361187525E+00 -0.27065450879E+02  0.27317784934E+02  0.00000000000E+00 0.  1.
</event>
<event>
12    1  0.1035051E+000  0.1761417E+03  0.7818608E-02  0.1172778E+00
         21   -1    0    0  503  502  0.00000000000E+00  0.00000000000E+00  0.10231048659E+04  0.10231048659E+04  0.00000000000E+00 0. -1.
         21   -1    0    0  501  503 -0.00000000000E+00 -0.00000000000E+00 -0.46115837447E+02  0.46115837447E+02  0.00000000000E+00 0. -1.
          6    2    1    2  501    0  0.30433910061E+02 -0.93834051432E+00  0.81340548563E+03  0.83225860466E+03  0.17349005046E+03 0.  0.
         24    2    3    3    0    0 -0.40119103332E+02  0.22291360025E+02  0.57521762741E+03  0.58271323306E+03  0.81073706631E+02 0.  0.
         -6    2    1    2    0  502 -0.30433910061E+02  0.93834051432E+00  0.16358354280E+03  0.23696209867E+03  0.16871383276E+03 0.  0.
        -24    2    5    5    0    0  0.39870990855E+02  0.14599099771E+02  0.48108730019E+02  0.10099917055E+03  0.77997134056E+02 0.  0.
          5    1    3    3  501    0  0.70553013393E+02 -0.23229700539E+02  0.23818785822E+03  0.24954537160E+03  0.47000000000E+01 0. -1.
        -13    1    4    4    0    0 -0.26321301668E+01  0.15260391813E+02  0.16254314097E+02  0.22450175819E+02  0.00000000000E+00 0.  1.
         14    1    4    4    0    0 -0.37486973165E+02  0.70309682116E+01  0.55896331332E+03  0.56026305724E+03  0.00000000000E+00 0. -1.
         -5    1    5    5    0  502 -0.70304900916E+02 -0.13660759257E+02  0.11547481278E+03  0.13596292812E+03  0.47000000000E+01 0.  1.
         13    1    6    6    0    0  0.47828749785E+02 -0.13528901310E+02  0.51496254623E+02  0.71571535661E+02  0.00000000000E+00 0. -1.
        -14    1    6    6    0    0 -0.79577589296E+01  0.28128001081E+02 -0.33875246037E+01  0.29427634885E+02  0.00000000000E+00 0.  1.
</event>
<event>
12    1  0.1035051E+000  0.2222403E+03  0.7818608E-02  0.1132285E+00
         21   -1    0    0  501  502  0.00000000000E+00  0.00000000000E+00  0.39262620788E+03  0.39262620788E+03  0.00000000000E+00 0.  1.
         21   -1    0    0  502  503 -0.00000000000E+00 -0.00000000000E+00 -0.14506480073E+03  0.14506480073E+03  0.00000000000E+00 0.  1.
         -6    2    1    2    0  503  0.13668736321E+03  0.30282237968E+02  0.22215929091E+03  0.31400365182E+03  0.17217169808E+03 0.  0.
        -24    2    3    3    0    0  0.12973766893E+03  0.79542512697E+02  0.16667343601E+03  0.23933342341E+03  0.79634033064E+02 0.  0.
          6    2    1    2  501    0 -0.13668736321E+03 -0.30282237968E+02  0.25402116236E+02  0.22368735680E+03  0.17259871634E+03 0.  0.
         24    2    5    5    0    0 -0.26963809496E+02  0.37619640851E+02  0.23050790114E+02  0.94545798337E+02  0.79153551139E+02 0.  0.
          5    1    5    5  501    0 -0.10972355372E+03 -0.67901878819E+02  0.23513261217E+01  0.12914155846E+03  0.47000000000E+01 0. -1.
        -13    1    6    6    0    0 -0.18501989770E+02  0.51306443683E+02 -0.12117982097E+02  0.55870567198E+02  0.00000000000E+00 0.  1.
         14    1    6    6    0    0 -0.84618197261E+01 -0.13686802832E+02  0.35168772211E+02  0.38675231139E+02  0.00000000000E+00 0. -1.
         -5    1    3    3    0  503  0.69496942786E+01 -0.49260274730E+02  0.55485854900E+02  0.74670228411E+02  0.47000000000E+01 0.  1.
         11    1    4    4    0    0  0.75309684284E+02 -0.37271053801E-01  0.70706322387E+02  0.10330021279E+03  0.00000000000E+00 0. -1.
        -12    1    4    4    0    0  0.54427984650E+02  0.79579783751E+02  0.95967113626E+02  0.13603321062E+03  0.00000000000E+00 0.  1.
</event>
<event>
12    1  0.1035051E+000  0.2651782E+03  0.7818608E-02  0.1104283E+00
         21   -1    0    0  501  502  0.00000000000E+00  0.00000000000E+00  0.99783802211E+02  0.99783802211E+02  0.00000000000E+00 0.  1.
         21   -1    0    0  502  503 -0.00000000000E+00 -0.00000000000E+00 -0.70094261167E+03  0.70094261167E+03  0.00000000000E+00 0.  1.
         -6    2    1    2    0  503  0.22609940300E+01  0.20156143875E+03 -0.29821480183E+03  0.39906336841E+03  0.17230025620E+03 0.  0.
        -24    2    3    3    0    0 -0.82513242908E+00  0.30452444684E+02 -0.58983690446E+02  0.10488412596E+03  0.81200812250E+02 0.  0.
          6    2    1    2  501    0 -0.22609940300E+01 -0.20156143875E+03 -0.30294400762E+03  0.40166304547E+03  0.17007646708E+03 0.  0.
         24    2    5    5    0    0  0.20342613596E+02 -0.21067855258E+03 -0.22108822142E+03  0.31612647682E+03  0.79099135584E+02 0.  0.
          5    1    5    5  501    0 -0.22603607626E+02  0.91171138218E+01 -0.81855786203E+02  0.85536568654E+02  0.47000000000E+01 0. -1.
        -13    1    6    6    0    0  0.22982911922E+02 -0.10757461059E+02 -0.17829886875E+02  0.31013578878E+02  0.00000000000E+00 0.  1.
         14    1    6    6    0    0 -0.26402983266E+01 -0.19992109152E+03 -0.20325833454E+03  0.28511289794E+03  0.00000000000E+00 0. -1.
         -5    1    3    3    0  503  0.30861264591E+01  0.17110899407E+03 -0.23923111139E+03  0.29417924244E+03  0.47000000000E+01 0.  1.
         11    1    4    4    0    0  0.31715202598E+01  0.22713807043E+02 -0.79422207170E+02  0.82667179479E+02  0.00000000000E+00 0. -1.
        -12    1    4    4    0    0 -0.39966526889E+01  0.77386376407E+01  0.20438516725E+02  0.22216946486E+02  0.00000000000E+00 0.  1.
</event>
<event>
12    1  0.1035051E+000  0.1738362E+03  0.7818608E-02  0.1174525E+00
         21   -1    0    0  503  502  0.00000000000E+00  0.00000000000E+00  0.11097692857E+04  0.11097692857E+04  0.00000000000E+00 0.  1.
         21   -1    0    0  501  503 -0.00000000000E+00 -0.00000000000E+00 -0.26966037568E+02  0.26966037568E+02  0.00000000000E+00 0.  1.
          6    2    1    2  501    0  0.16882299811E+02 -0.15252706813E+02  0.50052150304E+03  0.52905855824E+03  0.16989268943E+03 0.  0.
         24    2    3    3    0    0 -0.36602921772E+02 -0.14163096332E+02  0.15699675954E+03  0.18136157008E+03  0.81875939163E+02 0.  0.
         -6    2    1    2    0  502 -0.16882299811E+02  0.15252706813E+02  0.58228174507E+03  0.60767676501E+03  0.17234083376E+03 0.  0.
        -24    2    5    5    0    0  0.12160216597E+02  0.54546749106E+02  0.19692820081E+03  0.21920934863E+03  0.78414307022E+02 0.  0.
          5    1    3    3  501    0  0.53485221583E+02 -0.10896104818E+01  0.34352474350E+03  0.34769698816E+03  0.47000000000E+01 0. -1.
        -11    1    4    4    0    0 -0.37325155313E+02 -0.40646565160E+02  0.63233524510E+02  0.83927284600E+02  0.00000000000E+00 0.  1.
         12    1    4    4    0    0  0.72223354077E+00  0.26483468829E+02  0.93763235032E+02  0.97434285476E+02  0.00000000000E+00 0. -1.
         -5    1    5    5    0  502 -0.29042516408E+02 -0.39294042293E+02  0.38535354426E+03  0.38846741638E+03  0.47000000000E+01 0.  1.
         11    1    6    6    0    0 -0.17638026588E+02  0.10016143111E+02  0.63681293999E+01  0.21259731343E+02  0.00000000000E+00 0. -1.
        -12    1    6    6    0    0  0.29798243185E+02  0.44530605995E+02  0.19056007141E+03  0.19794961729E+03  0.00000000000E+00 0.  1.
</event>
<event>
12    1  0.1035051E+000  0.2347265E+03  0.7818608E-02  0.1123413E+00
         21   -1    0    0  501  502  0.00000000000E+00  0.00000000000E+00  0.12477483979E+03  0.12477483979E+03  0.00000000000E+00 0.  1.
         21   -1    0    0  502  503 -0.00000000000E+00 -0.00000000000E+00 -0.79556578276E+03  0.79556578276E+03  0.00000000000E+00 0.  1.
         -6    2    1    2    0  503 -0.49253451054E+02  0.15154236792E+03 -0.64275224913E+03  0.68427112532E+03  0.17235291550E+03 0.  0.
        -24    2    3    3    0    0  0.14363252696E+02  0.13707286136E+03 -0.34155184704E+03  0.37605006207E+03  0.75899358485E+02 0.  0.
          6    2    1    2  501    0  0.49253451054E+02 -0.15154236792E+03 -0.28038693846E+02  0.23606949723E+03  0.17190592617E+03 0.  0.
         24    2    5    5    0    0  0.59696902883E+02 -0.45962964359E+02  0.30734283063E+02  0.11469227961E+03  0.80829502906E+02 0.  0.
          5    1    5    5  501    0 -0.10443451828E+02 -0.10557940356E+03 -0.58772976908E+02  0.12137721762E+03  0.47000000000E+01 0. -1.
        -11    1    6    6    0    0  0.84935696449E+00 -0.96065716891E+01  0.43323220718E+02  0.44383657806E+02  0.00000000000E+00 0.  1.
         12    1    6    6    0    0  0.58847545918E+02 -0.36356392670E+02 -0.12588937655E+02  0.70308621803E+02  0.00000000000E+00 0. -1.
         -5    1    3    3    0  503 -0.63616703750E+02  0.14469506561E+02 -0.30120040208E+03  0.30822106325E+03  0.47000000000E+01 0.  1.
         13    1    4    4    0    0  0.27701122073E+02  0.10989678687E+03 -0.31830966661E+03  0.33788415142E+03  0.00000000000E+00 0. -1.
        -14    1    4    4    0    0 -0.13337869377E+02  0.27176074491E+02 -0.23242180434E+02  0.38165910648E+02  0.00000000000E+00 0.  1.
</event>
<event>
12    1  0.1035051E+000  0.2734403E+03  0.7818608E-02  0.1099391E+00
         21   -1    0    0  501  502  0.00000000000E+00  0.00000000000E+00  0.89671964130E+03  0.89671964130E+03  0.00000000000E+00 0. -1.
         21   -1    0    0  502  503 -0.00000000000E+00 -0.00000000000E+00 -0.86137921511E+02  0.86137921511E+02  0.00000000000E+00 0. -1.
         -6    2    1    2    0  503  0.14039253723E+03  0.15940372408E+03  0.31551901147E+03  0.41751867375E+03  0.17219170878E+03 0.  0.
        -24    2    3    3    0    0  0.41566834573E+02  0.48403288425E+02  0.46478755899E+02  0.11012256880E+03  0.76785580304E+02 0.  0.
          6    2    1    2  501    0 -0.14039253723E+03 -0.15940372408E+03  0.49506270832E+03  0.56533888906E+03  0.17146825522E+03 0.  0.
         24    2    5    5    0    0 -0.58021372074E+02 -0.11190010591E+03  0.41488982912E+03  0.44087450399E+03  0.79678382559E+02 0.  0.
          5    1    5    5  501    0 -0.82371165161E+02 -0.47503618176E+02  0.80172879204E+02  0.12446438506E+03  0.47000000000E+01 0. -1.
        -11    1    6    6    0    0 -0.43793602589E+02 -0.43528617092E+02  0.30107992537E+03  0.30734628938E+03  0.00000000000E+00 0.  1.
         12    1    6    6    0    0 -0.14227769485E+02 -0.68371488816E+02  0.11380990375E+03  0.13352821461E+03  0.00000000000E+00 0. -1.
         -5    1    3    3    0  503  0.98825702662E+02  0.11100043566E+03  0.26904025557E+03  0.30739610495E+03  0.47000000000E+01 0.  1.
         11    1    4    4    0    0  0.44674999242E+01  0.22824062866E+02 -0.19413548878E+02  0.30294921708E+02  0.00000000000E+00 0. -1.
        -12    1    4    4    0    0  0.37099334649E+02  0.25579225559E+02  0.65892304777E+02  0.79827647092E+02  0.00000000000E+00 0.  1.
</event>
<event>
12    1  0.1035051E+000  0.7309080E+03  0.7818608E-02  0.9665863E-01
         21   -1    0    0  503  502  0.00000000000E+00  0.00000000000E+00  0.17840247278E+04  0.17840247278E+04  0.00000000000E+00 0. -1.
         21   -1    0    0  501  503 -0.00000000000E+00 -0.00000000000E+00 -0.48895892159E+03  0.48895892159E+03  0.00000000000E+00 0.  1.
          6    2    1    2  501    0  0.56622340937E+01 -0.71038394688E+03 -0.60188316042E+02  0.73319787976E+03  0.17111132232E+03 0.  0.
         24    2    3    3    0    0 -0.37409241296E+01 -0.29852932010E+03  0.33419520880E+02  0.31070862532E+03  0.79304703535E+02 0.  0.
         -6    2    1    2    0  502 -0.56622340937E+01  0.71038394688E+03  0.13552541222E+04  0.15397857696E+04  0.17189842234E+03 0.  0.
        -24    2    5    5    0    0 -0.61996165073E+02  0.58094783789E+03  0.10909293104E+04  0.12400910679E+04  0.79719392542E+02 0.  0.
          5    1    3    3  501    0  0.94031582233E+01 -0.41185462678E+03 -0.93607836922E+02  0.42248925444E+03  0.47000000000E+01 0. -1.
        -11    1    4    4    0    0  0.13128526726E+02 -0.16090426021E+03 -0.18834665095E+02  0.16253394654E+03  0.00000000000E+00 0.  1.
         12    1    4    4    0    0 -0.16869450856E+02 -0.13762505988E+03  0.52254185975E+02  0.14817467878E+03  0.00000000000E+00 0. -1.
         -5    1    5    5    0  502  0.56333930979E+02  0.12943610899E+03  0.26432481184E+03  0.29969470173E+03  0.47000000000E+01 0.  1.
         11    1    6    6    0    0 -0.62317149042E+02  0.22800274503E+03  0.41676730661E+03  0.47912802743E+03  0.00000000000E+00 0. -1.
        -12    1    6    6    0    0  0.32098396891E+00  0.35294509286E+03  0.67416200375E+03  0.76096304044E+03  0.00000000000E+00 0.  1.
</event>
<event>
12    1  0.1035051E+000  0.1778111E+03  0.7818608E-02  0.1170037E+00
         21   -1    0    0  503  502  0.00000000000E+00  0.00000000000E+00  0.21806718880E+03  0.21806718880E+03  0.00000000000E+00 0.  1.
         21   -1    0    0  501  503 -0.00000000000E+00 -0.00000000000E+00 -0.22926192675E+03  0.22926192675E+03  0.00000000000E+00 0.  1.
          6    2    1    2  501    0  0.37135683423E+02  0.18473721260E+02  0.13026800607E+03  0.22042351129E+03  0.17290585173E+03 0.  0.
         24    2    3    3    0    0  0.57024652265E+02  0.36021013100E+02  0.15593503448E+03  0.18321645712E+03  0.68579959394E+02 0.  0.
         -6    2    1    2    0  502 -0.37135683423E+02 -0.18473721260E+02 -0.14146274402E+03  0.22690560426E+03  0.17249379102E+03 0.  0.
        -24    2    5    5    0    0 -0.89565051170E+02 -0.27529009055E+02 -0.11030846132E+03  0.16507101710E+03  0.79377196443E+02 0.  0.
          5    1    3    3  501    0 -0.19888968843E+02 -0.17547291840E+02 -0.25667028408E+02  0.37207054168E+02  0.47000000000E+01 0. -1.
        -13    1    4    4    0    0  0.16056656150E+01  0.36271448790E+01  0.93780238266E+02  0.93864090211E+02  0.00000000000E+00 0.  1.
         14    1    4    4    0    0  0.55418986650E+02  0.32393868221E+02  0.62154796213E+02  0.89352366907E+02  0.00000000000E+00 0. -1.
         -5    1    5    5    0  502  0.52429367748E+02  0.90552877948E+01 -0.31154282699E+02  0.61834587166E+02  0.47000000000E+01 0.  1.
         13    1    6    6    0    0 -0.36616891461E+02  0.25606321631E+02 -0.59756828885E+02  0.74614737459E+02  0.00000000000E+00 0. -1.
        -14    1    6    6    0    0 -0.52948159709E+02 -0.53135330686E+02 -0.50551632440E+02  0.90456279639E+02  0.00000000000E+00 0.  1.
</event>
<event>
12    1  0.1035051E+000  0.3317695E+03  0.7818608E-02  0.1070379E+00
         21   -1    0    0  503  502  0.00000000000E+00  0.00000000000E+00  0.65281144622E+03  0.65281144622E+03  0.00000000000E+00 0.  1.
         21   -1    0    0  501  503 -0.00000000000E+00 -0.00000000000E+00 -0.19027293517E+03  0.19027293517E+03  0.00000000000E+00 0. -1.
          6    2    1    2  501    0 -0.14592410339E+02  0.28377599853E+03  0.37389845667E+03  0.49987107348E+03  0.17125792952E+03 0.  0.
         24    2    3    3    0    0  0.44041789157E+02  0.17385677663E+03  0.28234008192E+03  0.34519324482E+03  0.85302968508E+02 0.  0.
         -6    2    1    2    0  502  0.14592410339E+02 -0.28377599853E+03  0.88640054389E+02  0.34321330791E+03  0.17087000820E+03 0.  0.
        -24    2    5    5    0    0 -0.12140014559E+02 -0.46864241566E+02  0.17080624650E+02  0.94246151214E+02  0.79037663105E+02 0.  0.
          5    1    3    3  501    0 -0.58634199496E+02  0.10991922190E+03  0.91558374744E+02  0.15467782866E+03  0.47000000000E+01 0. -1.
        -11    1    4    4    0    0  0.16700822053E+02  0.15443055711E+02  0.30600526090E+01  0.22951456357E+02  0.00000000000E+00 0.  1.
         12    1    4    4    0    0  0.27340967104E+02  0.15841372092E+03  0.27928002932E+03  0.32224178846E+03  0.00000000000E+00 0. -1.
         -5    1    5    5    0  502  0.26732424898E+02 -0.23691175696E+03  0.71559429739E+02  0.24896715670E+03  0.47000000000E+01 0.  1.
         13    1    6    6    0    0 -0.79356471667E+01 -0.46094691437E+02  0.45650713073E+02  0.65358111040E+02  0.00000000000E+00 0. -1.
        -14    1    6    6    0    0 -0.42043673924E+01 -0.76955012909E+00 -0.28570088424E+02  0.28888040174E+02  0.00000000000E+00 0.  1.
</event>
<event>
12    1  0.1035051E+000  0.2559295E+03  0.7818608E-02  0.1109639E+00
         21   -1    0    0  501  502  0.00000000000E+00  0.00000000000E+00  0.10746747055E+04  0.10746747055E+04  0.00000000000E+00 0. -1.
         21   -1    0    0  502  503 -0.00000000000E+00 -0.00000000000E+00 -0.97862620618E+02  0.97862620618E+02  0.00000000000E+00 0. -1.
         -6    2    1    2    0  503  0.17720945627E+03  0.66410548220E+02  0.12805246509E+03  0.28603137980E+03  0.17205511939E+03 0.  0.
        -24    2    3    3    0    0  0.14603603661E+03  0.43750357492E+02  0.16132729513E+03  0.23489850729E+03  0.76877791377E+02 0.  0.
          6    2    1    2  501    0 -0.17720945627E+03 -0.66410548220E+02  0.84875961977E+03  0.88650594630E+03  0.17229726744E+03 0.  0.
         24    2    5    5    0    0 -0.57256577692E+02 -0.32844234326E+02  0.19325894484E+03  0.21925890409E+03  0.79802179441E+02 0.  0.
          5    1    5    5  501    0 -0.11995287857E+03 -0.33566313894E+02  0.65550067493E+03  0.66724704221E+03  0.47000000000E+01 0. -1.
        -13    1    6    6    0    0 -0.67629398381E+02 -0.48337846976E+01  0.16392706275E+03  0.17739555491E+03  0.00000000000E+00 0.  1.
         14    1    6    6    0    0  0.10372820689E+02 -0.28010449629E+02  0.29331882092E+02  0.41863349180E+02  0.00000000000E+00 0. -1.
         -5    1    3    3    0  503  0.31173419660E+02  0.22660190728E+02 -0.33274830033E+02  0.51132872508E+02  0.47000000000E+01 0.  1.
         13    1    4    4    0    0  0.85077077553E+02  0.22008780469E+02  0.38248588825E+02  0.95840753805E+02  0.00000000000E+00 0. -1.
        -14    1    4    4    0    0  0.60958959053E+02  0.21741577023E+02  0.12307870630E+03  0.13905775349E+03  0.00000000000E+00 0.  1.
</event>
<event>
12    1  0.1035051E+000  0.2033209E+03  0.7818608E-02  0.1147027E+00
         21   -1    0    0  501  502  0.00000000000E+00  0.00000000000E+00  0.10792078432E+04  0.10792078432E+04  0.00000000000E+00 0.  1.
         21   -1    0    0  502  503 -0.00000000000E+00 -0.00000000000E+00 -0.38295993400E+02  0.38295993400E+02  0.00000000000E+00 0.  1.
         -6    2    1    2    0  503 -0.47871208687E+02 -0.97196367837E+02  0.50161137211E+03  0.54125167467E+03  0.17204830763E+03 0.  0.
        -24    2    3    3    0    0 -0.37768024514E+02 -0.27810571718E+02  0.10625654700E+03  0.13969969700E+03  0.77625382354E+02 0.  0.
          6    2    1    2  501    0  0.47871208687E+02  0.97196367837E+02  0.53930047766E+03  0.57625216190E+03  0.17170545230E+03 0.  0.
         24    2    5    5    0    0 -0.24303524502E+02  0.75150446273E+02  0.20669110840E+03  0.23515643152E+03  0.79618352868E+02 0.  0.
          5    1    5    5  501    0  0.72174733190E+02  0.22045921564E+02  0.33260936925E+03  0.34109573038E+03  0.47000000000E+01 0. -1.
        -11    1    6    6    0    0 -0.72724499372E+01 -0.16187301316E+02  0.20819762711E+02  0.27356530689E+02  0.00000000000E+00 0.  1.
         12    1    6    6    0    0 -0.17031074565E+02  0.91337747589E+02  0.18587134569E+03  0.20779990083E+03  0.00000000000E+00 0. -1.
         -5    1    3    3    0  503 -0.10103184173E+02 -0.69385796119E+02  0.39535482511E+03  0.40155197767E+03  0.47000000000E+01 0.  1.
         13    1    4    4    0    0 -0.22385127874E+02 -0.42041119604E+02  0.10862715390E+03  0.11861032102E+03  0.00000000000E+00 0. -1.
        -14    1    4    4    0    0 -0.15382896640E+02  0.14230547886E+02 -0.23706068979E+01  0.21089375980E+02  0.00000000000E+00 0.  1.
</event>
<event>
12    1  0.1035051E+000  0.1805318E+03  0.7818608E-02  0.1168097E+00
         21   -1    0    0  501  502  0.00000000000E+00  0.00000000000E+00  0.11745759567E+03  0.11745759567E+03  0.00000000000E+00 0. -1.
         21   -1    0    0  502  503 -0.00000000000E+00 -0.00000000000E+00 -0.28511420998E+03  0.28511420998E+03  0.00000000000E+00 0. -1.
         -6    2    1    2    0  503 -0.54654209904E+01  0.54376139992E+02 -0.42066354198E+02  0.18536806201E+03  0.17206134031E+03 0.  0.
        -24    2    3    3    0    0 -0.46819314141E+02  0.75970500181E+02  0.31881170761E+01  0.12020274884E+03  0.80467208619E+02 0.  0.
          6    2    1    2  501    0  0.54654209904E+01 -0.54376139992E+02 -0.12559026012E+03  0.21720374364E+03  0.16857614715E+03 0.  0.
         24    2    5    5    0    0 -0.16656814588E+02 -0.72092309816E+02 -0.14687799593E+03  0.18144743404E+03  0.76650342616E+02 0.  0.
          5    1    5    5  501    0  0.22122235578E+02  0.17716169824E+02  0.21287735813E+02  0.35756309600E+02  0.47000000000E+01 0. -1.
        -11    1    6    6    0    0 -0.41323282711E+02 -0.37589764713E+02 -0.11673934882E+03  0.12941669007E+03  0.00000000000E+00 0.  1.
         12    1    6    6    0    0  0.24666468123E+02 -0.34502545103E+02 -0.30138647108E+02  0.52030743967E+02  0.00000000000E+00 0. -1.
         -5    1    3    3    0  503  0.41353893151E+02 -0.21594360189E+02 -0.45254471274E+02  0.65165313174E+02  0.47000000000E+01 0.  1.
         13    1    4    4    0    0  0.18020355817E+02  0.21144534564E+02 -0.17464459145E+02  0.32815116927E+02  0.00000000000E+00 0. -1.
        -14    1    4    4    0    0 -0.64839669958E+02  0.54825965618E+02  0.20652576221E+02  0.87387631910E+02  0.00000000000E+00 0.  1.
</event>
<event>
12    1  0.1035051E+000  0.2393505E+03  0.7818608E-02  0.1122202E+00
         21   -1    0    0  503  502  0.00000000000E+00  0.00000000000E+00  0.86739166639E+02  0.86739166639E+02  0.00000000000E+00 0.  1.
         21   -1    0    0  501  503 -0.00000000000E+00 -0.00000000000E+00 -0.12600689335E+04  0.12600689335E+04  0.00000000000E+00 0.  1.
          6    2    1    2  501    0 -0.24174279232E+02 -0.14639320272E+03 -0.11742661597E+03  0.26660392188E+03  0.18781180859E+03 0.  0.
         24    2    3    3    0    0 -0.83979250475E+02 -0.58356169635E+02 -0.42717401344E+02  0.13648585807E+03  0.79659626101E+02 0.  0.
         -6    2    1    2    0  502  0.24174279232E+02  0.14639320272E+03 -0.10559031509E+04  0.10802041783E+04  0.17289949995E+03 0.  0.
        -24    2    5    5    0    0 -0.17930531552E+02  0.96486781406E+01 -0.43671833176E+03  0.44468564168E+03  0.81288484223E+02 0.  0.
          5    1    3    3  501    0  0.59804971243E+02 -0.88037033088E+02 -0.74709214628E+02  0.13011806381E+03  0.47000000000E+01 0. -1.
        -13    1    4    4    0    0 -0.73990891715E+02 -0.60731951166E+01 -0.37006338432E+02  0.82951822403E+02  0.00000000000E+00 0.  1.
         14    1    4    4    0    0 -0.99883587598E+01 -0.52282974519E+02 -0.57110629121E+01  0.53534035667E+02  0.00000000000E+00 0. -1.
         -5    1    5    5    0  502  0.42104810783E+02  0.13674452458E+03 -0.61918481915E+03  0.63551853660E+03  0.47000000000E+01 0.  1.
         11    1    6    6    0    0 -0.17302180329E+02  0.36401799318E+02 -0.11503947667E+03  0.12189560136E+03  0.00000000000E+00 0. -1.
        -12    1    6    6    0    0 -0.62835122216E+00 -0.26753121177E+02 -0.32167885510E+03  0.32279004033E+03  0.00000000000E+00 0.  1.
</event>
<event>
12    1  0.1035051E+000  0.2085395E+03  0.7818608E-02  0.1142906E+00
         21   -1    0    0  501  502  0.00000000000E+00  0.00000000000E+00  0.76602394017E+02  0.76602394017E+02  0.00000000000E+00 0.  1.
         21   -1    0    0  502  503 -0.00000000000E+00 -0.00000000000E+00 -0.93389461358E+03  0.93389461358E+03  0.00000000000E+00 0.  1.
         -6    2    1    2    0  503  0.10560843205E+02  0.11639438075E+03 -0.11178463802E+03  0.23661052650E+03  0.17271234083E+03 0.  0.
        -24    2    3    3    0    0 -0.58544062153E+02  0.78231375736E+02 -0.87642456912E+02  0.15392535368E+03  0.80400614973E+02 0.  0.
          6    2    1    2  501    0 -0.10560843205E+02 -0.11639438075E+03 -0.74550758154E+03  0.77388648110E+03  0.17163784026E+03 0.  0.
         24    2    5    5    0    0  0.35153169528E+02 -0.12940713854E+03 -0.50593685052E+03  0.52960113977E+03  0.80767058244E+02 0.  0.
          5    1    5    5  501    0 -0.45714012732E+02  0.13012757793E+02 -0.23957073102E+03  0.24428534132E+03  0.47000000000E+01 0. -1.
        -11    1    6    6    0    0  0.27690948288E+01 -0.21183926173E+02 -0.15687155338E+02  0.26504970418E+02  0.00000000000E+00 0.  1.
         12    1    6    6    0    0  0.32384074699E+02 -0.10822321237E+03 -0.49024969519E+03  0.50309616935E+03  0.00000000000E+00 0. -1.
         -5    1    3    3    0  503  0.69104905357E+02  0.38163005011E+02 -0.24142181108E+02  0.82685172822E+02  0.47000000000E+01 0.  1.
         11    1    4    4    0    0  0.83729579353E+01  0.54402883811E+02 -0.31790489254E+02  0.63564261961E+02  0.00000000000E+00 0. -1.
        -12    1    4    4    0    0 -0.66917020088E+02  0.23828491925E+02 -0.55851967657E+02  0.90361091716E+02  0.00000000000E+00 0.  1.
</event>
<event>
12    1  0.1035051E+000  0.4610377E+03  0.7818608E-02  0.1024485E+00
         21   -1    0    0  501  502  0.00000000000E+00  0.00000000000E+00  0.22903170492E+03  0.22903170492E+03  0.00000000000E+00 0.  1.
         21   -1    0    0  502  503 -0.00000000000E+00 -0.00000000000E+00 -0.95184274030E+03  0.95184274030E+03  0.00000000000E+00 0. -1.
         -6    2    1    2    0  503  0.20389121795E+03 -0.37600723521E+03 -0.26781356236E+03  0.53312571020E+03  0.17188906017E+03 0.  0.
        -24    2    3    3    0    0  0.12407587719E+03 -0.12668077135E+03 -0.15365464359E+03  0.24748866264E+03  0.78727679447E+02 0.  0.
          6    2    1    2  501    0 -0.20389121795E+03  0.37600723521E+03 -0.45499747302E+03  0.64774873502E+03  0.17205421696E+03 0.  0.
         24    2    5    5    0    0 -0.40758775440E+02  0.15807976051E+03 -0.12977106521E+03  0.22360384896E+03  0.80670090163E+02 0.  0.
          5    1    5    5  501    0 -0.16313244251E+03  0.21792747470E+03 -0.32522640782E+03  0.42414488606E+03  0.47000000000E+01 0. -1.
        -11    1    6    6    0    0 -0.57091590304E+01  0.14433117366E+03 -0.10301510028E+03  0.17741531240E+03  0.00000000000E+00 0.  1.
         12    1    6    6    0    0 -0.35049616410E+02  0.13748586850E+02 -0.26755964925E+02  0.46188536564E+02  0.00000000000E+00 0. -1.
         -5    1    3    3    0  503  0.79815340766E+02 -0.24932646386E+03 -0.11415891877E+03  0.28563704755E+03  0.47000000000E+01 0.  1.
         11    1    4    4    0    0  0.22392932450E+02 -0.24516690754E+02  0.44948324108E+01  0.33506940588E+02  0.00000000000E+00 0. -1.
        -12    1    4    4    0    0  0.10168294474E+03 -0.10216408060E+03 -0.15814947600E+03  0.21398172206E+03  0.00000000000E+00 0.  1.
</event>
<event>
12    1  0.1035051E+000  0.2644763E+03  0.7818608E-02  0.1104659E+00
         21   -1    0    0  501  502  0.00000000000E+00  0.00000000000E+00  0.15437193658E+04  0.15437193658E+04  0.00000000000E+00 0. -1.
         21   -1    0    0  502  503 -0.00000000000E+00 -0.00000000000E+00 -0.45106727348E+02  0.45106727348E+02  0.00000000000E+00 0. -1.
         -6    2    1    2    0  503 -0.53304782811E+02 -0.19354327361E+03  0.74728340015E+03  0.79230657236E+03  0.17034325885E+03 0.  0.
        -24    2    3    3    0    0 -0.10147396585E+03 -0.12562397315E+03  0.50458967117E+03  0.53568303942E+03  0.79165864484E+02 0.  0.
          6    2    1    2  501    0  0.53304782811E+02  0.19354327361E+03  0.75132923835E+03  0.79651952084E+03  0.17218398313E+03 0.  0.
         24    2    5    5    0    0  0.24678092448E+02  0.11923946953E+03  0.25897295232E+03  0.29774367430E+03  0.82202470820E+02 0.  0.
          5    1    5    5  501    0  0.28626690364E+02  0.74303804075E+02  0.49235628603E+03  0.49877584654E+03  0.47000000000E+01 0. -1.
        -11    1    6    6    0    0  0.10693490444E+01  0.10613950603E+03  0.24572165091E+03  0.26766745781E+03  0.00000000000E+00 0.  1.
         12    1    6    6    0    0  0.23608743403E+02  0.13099963504E+02  0.13251301415E+02  0.30076216486E+02  0.00000000000E+00 0. -1.
         -5    1    3    3    0  503  0.48169183042E+02 -0.67919300454E+02  0.24269372898E+03  0.25662353294E+03  0.47000000000E+01 0.  1.
         13    1    4    4    0    0 -0.32339876628E+02 -0.11612467221E+02  0.20364683310E+03  0.20652542131E+03  0.00000000000E+00 0. -1.
        -14    1    4    4    0    0 -0.69134089226E+02 -0.11401150593E+03  0.30094283806E+03  0.32915761811E+03  0.00000000000E+00 0.  1.
</event>
<event>
12    1  0.1035051E+000  0.2195413E+03  0.7818608E-02  0.1137512E+00
         21   -1    0    0  503  502  0.00000000000E+00  0.00000000000E+00  0.33529269532E+03  0.33529269532E+03  0.00000000000E+00 0.  1.
         21   -1    0    0  501  503 -0.00000000000E+00 -0.00000000000E+00 -0.15000404318E+03  0.15000404318E+03  0.00000000000E+00 0.  1.
          6    2    1    2  501    0  0.52410820696E+02 -0.97321890602E+02  0.17773617608E+03  0.28246865170E+03  0.18968380634E+03 0.  0.
         24    2    3    3    0    0  0.83266115972E+00 -0.86709761923E+02  0.19397890768E+03  0.22716186960E+03  0.80345642319E+02 0.  0.
         -6    2    1    2    0  502 -0.52410820696E+02  0.97321890602E+02  0.75524760614E+01  0.20282808680E+03  0.16989334415E+03 0.  0.
        -24    2    5    5    0    0 -0.67385956989E+02  0.85510115856E+01 -0.20115782816E+02  0.10852990963E+03  0.82219885480E+02 0.  0.
          5    1    3    3  501    0  0.51578159536E+02 -0.10612128680E+02 -0.16242731597E+02  0.55306782098E+02  0.47000000000E+01 0. -1.
        -11    1    4    4    0    0  0.15278041631E+02 -0.30177629092E+02  0.11730731982E+02  0.35801088343E+02  0.00000000000E+00 0.  1.
         12    1    4    4    0    0 -0.14445380471E+02 -0.56532132831E+02  0.18224817570E+03  0.19136078126E+03  0.00000000000E+00 0. -1.
         -5    1    5    5    0  502  0.14975136293E+02  0.88770879017E+02  0.27668258877E+02  0.94298177171E+02  0.47000000000E+01 0.  1.
         11    1    6    6    0    0 -0.24383579193E+02 -0.21797375974E+02  0.23418474833E+02  0.40225731778E+02  0.00000000000E+00 0. -1.
        -12    1    6    6    0    0 -0.43002377795E+02  0.30348387559E+02 -0.43534257649E+02  0.68304177855E+02  0.00000000000E+00 0.  1.
</event>
<event>
12    1  0.1601028E+000  0.2717301E+03  0.7818608E-02  0.1101938E+00
         21   -1    0    0  503  502  0.00000000000E+00  0.00000000000E+00  0.43621257544E+03  0.43621257544E+03  0.00000000000E+00 0.  1.
         21   -1    0    0  501  503 -0.00000000000E+00 -0.00000000000E+00 -0.55395613615E+03  0.55395613615E+03  0.00000000000E+00 0.  1.
          6    2    1    2  501    0  0.13268310965E+03 -0.14478476743E+03  0.35702933078E+03  0.44867272762E+03  0.18780265442E+03 0.  0.
         24    2    3    3    0    0  0.18419312406E+02 -0.18124763730E+02  0.14690378975E+03  0.17798138145E+03  0.97102371601E+02 0.  0.
         -6    2    1    2    0  502 -0.13268310965E+03  0.14478476743E+03 -0.47477289148E+03  0.54149598397E+03  0.17100048451E+03 0.  0.
        -24    2    5    5    0    0 -0.56876564524E+02  0.10238863002E+03 -0.40754412976E+03  0.43156027023E+03  0.80210186355E+02 0.  0.
          5    1    3    3  501    0  0.11426379725E+03 -0.12666000370E+03  0.21012554103E+03  0.27069134617E+03  0.47000000000E+01 0. -1.
        -13    1    4    4    0    0 -0.29787086678E+01  0.96255647189E+01 -0.11764495248E+02  0.15489594892E+02  0.00000000000E+00 0.  1.
         14    1    4    4    0    0  0.21398021074E+02 -0.27750328449E+02  0.15866828499E+03  0.16249178656E+03  0.00000000000E+00 0. -1.
         -5    1    5    5    0  502 -0.75806545131E+02  0.42396137408E+02 -0.67228761723E+02  0.10993571374E+03  0.47000000000E+01 0.  1.
         11    1    6    6    0    0 -0.49738353556E+02  0.10454343325E+03 -0.26949669660E+03  0.29331161369E+03  0.00000000000E+00 0. -1.
        -12    1    6    6    0    0 -0.71382109680E+01 -0.21548032359E+01 -0.13804743316E+03  0.13824865654E+03  0.00000000000E+00 0.  1.
</event>
<event>
12    1  0.1035051E+000  0.1910850E+03  0.7818608E-02  0.1157569E+00
         21   -1    0    0  501  502  0.00000000000E+00  0.00000000000E+00  0.10677083957E+04  0.10677083957E+04  0.00000000000E+00 0. -1.
         21   -1    0    0  502  503 -0.00000000000E+00 -0.00000000000E+00 -0.35815033643E+02  0.35815033643E+02  0.00000000000E+00 0. -1.
         -6    2    1    2    0  503  0.82101182778E+02 -0.21788216773E+02  0.63601351773E+03  0.66409837593E+03  0.17116695818E+03 0.  0.
        -24    2    3    3    0    0  0.56580845909E+02 -0.79918970483E+02  0.35549857035E+03  0.37645067852E+03  0.75811911139E+02 0.  0.
          6    2    1    2  501    0 -0.82101182778E+02  0.21788216773E+02  0.39587984430E+03  0.43942505339E+03  0.17075771086E+03 0.  0.
         24    2    5    5    0    0 -0.50258506442E+02  0.17534800497E+02  0.91941488402E+02  0.13375748597E+03  0.81267712312E+02 0.  0.
          5    1    5    5  501    0 -0.31842676336E+02  0.42534162766E+01  0.30393835590E+03  0.30566756742E+03  0.47000000000E+01 0. -1.
        -13    1    6    6    0    0 -0.28449129315E+02  0.36077145309E+01  0.10203009413E+03  0.10598353019E+03  0.00000000000E+00 0.  1.
         14    1    6    6    0    0 -0.21809377127E+02  0.13927085966E+02 -0.10088605727E+02  0.27773955780E+02  0.00000000000E+00 0. -1.
         -5    1    3    3    0  503  0.25520336869E+02  0.58130753709E+02  0.28051494739E+03  0.28764769741E+03  0.47000000000E+01 0.  1.
         11    1    4    4    0    0  0.68732143987E+02 -0.49529066016E+02  0.19435180798E+03  0.21201382328E+03  0.00000000000E+00 0. -1.
        -12    1    4    4    0    0 -0.12151298078E+02 -0.30389904466E+02  0.16114676236E+03  0.16443685523E+03  0.00000000000E+00 0.  1.
</event>
<event>
12    1  0.1035051E+000  0.2186764E+03  0.7818608E-02  0.1135115E+00
         21   -1    0    0  503  502  0.00000000000E+00  0.00000000000E+00  0.16111181748E+02  0.16111181748E+02  0.00000000000E+00 0.  1.
         21   -1    0    0  501  503 -0.00000000000E+00 -0.00000000000E+00 -0.31284769099E+04  0.31284769099E+04  0.00000000000E+00 0.  1.
          6    2    1    2  501    0 -0.10403881118E+03  0.85747574267E+02 -0.11771438113E+04  0.11970503536E+04  0.17054405867E+03 0.  0.
         24    2    3    3    0    0 -0.13916373857E+03  0.54427283406E+02 -0.83645306119E+03  0.85309250978E+03  0.76054134399E+02 0.  0.
         -6    2    1    2    0  502  0.10403881118E+03 -0.85747574267E+02 -0.19352219169E+04  0.19475377380E+04  0.17217041781E+03 0.  0.
        -24    2    5    5    0    0  0.13149437449E+03 -0.75539307318E+02 -0.18364167411E+04  0.18443749083E+04  0.79343544309E+02 0.  0.
          5    1    3    3  501    0  0.35124927387E+02  0.31320290861E+02 -0.34069075010E+03  0.34395784385E+03  0.47000000000E+01 0. -1.
        -11    1    4    4    0    0 -0.27813173301E+02 -0.18224967224E+02 -0.21687526220E+03  0.21940966568E+03  0.00000000000E+00 0.  1.
         12    1    4    4    0    0 -0.11135056526E+03  0.72652250630E+02 -0.61957779899E+03  0.63368284410E+03  0.00000000000E+00 0. -1.
         -5    1    5    5    0  502 -0.27455563313E+02 -0.10208266949E+02 -0.98805175774E+02  0.10316282969E+03  0.47000000000E+01 0.  1.
         13    1    6    6    0    0  0.77430390826E+02 -0.79990976538E+02 -0.99438966914E+03  0.10006022366E+04  0.00000000000E+00 0. -1.
        -14    1    6    6    0    0  0.54063983666E+02  0.44516692198E+01 -0.84202707196E+03  0.84377267176E+03  0.00000000000E+00 0.  1.
</event>
<event>
12    1  0.1035051E+000  0.2240093E+03  0.7818608E-02  0.1131002E+00
         21   -1    0    0  503  502  0.00000000000E+00  0.00000000000E+00  0.21602924007E+03  0.21602924007E+03  0.00000000000E+00 0. -1.
         21   -1    0    0  501  503 -0.00000000000E+00 -0.00000000000E+00 -0.23523341732E+03  0.23523341732E+03  0.00000000000E+00 0. -1.
          6    2    1    2  501    0 -0.13599943008E+03 -0.42003099868E+02  0.17401430132E+02  0.22428220508E+03  0.17245171024E+03 0.  0.
         24    2    3    3    0    0 -0.14290196526E+03 -0.63268363686E+02 -0.23820649780E+02  0.17715252961E+03  0.79948345046E+02 0.  0.
         -6    2    1    2    0  502  0.13599943008E+03  0.42003099868E+02 -0.36605607384E+02  0.22698045231E+03  0.17297413060E+03 0.  0.
        -24    2    5    5    0    0  0.59478858057E+01  0.42770363634E+02 -0.67661179462E+01  0.93464618073E+02  0.82614606024E+02 0.  0.
          5    1    3    3  501    0  0.69025351737E+01  0.21265263818E+02  0.41222079913E+02  0.47129675465E+02  0.47000000000E+01 0. -1.
        -11    1    4    4    0    0  0.12352854944E+01 -0.24062050863E+02 -0.13023993635E+02  0.27388549289E+02  0.00000000000E+00 0.  1.
         12    1    4    4    0    0 -0.14413725075E+03 -0.39206312823E+02 -0.10796656145E+02  0.14976398033E+03  0.00000000000E+00 0. -1.
         -5    1    5    5    0  502  0.13005154428E+03 -0.76726376601E+00 -0.29839489438E+02  0.13351583424E+03  0.47000000000E+01 0.  1.
         13    1    6    6    0    0  0.29148826884E+02  0.25324343186E+02 -0.35621489757E+02  0.52534436315E+02  0.00000000000E+00 0. -1.
        -14    1    6    6    0    0 -0.23200941078E+02  0.17446020448E+02  0.28855371811E+02  0.40930181758E+02  0.00000000000E+00 0.  1.
</event>
<event>
12    1  0.1035051E+000  0.3161188E+03  0.7818608E-02  0.1077702E+00
         21   -1    0    0  503  502  0.00000000000E+00  0.00000000000E+00  0.20420490005E+03  0.20420490005E+03  0.00000000000E+00 0.  1.
         21   -1    0    0  501  503 -0.00000000000E+00 -0.00000000000E+00 -0.71770052101E+03  0.71770052101E+03  0.00000000000E+00 0.  1.
          6    2    1    2  501    0 -0.16155155034E+01 -0.26283481624E+03 -0.51803817510E+03  0.60575398986E+03  0.17172534715E+03 0.  0.
         24    2    3    3    0    0  0.41059565551E+02 -0.68308534289E+02 -0.15437395754E+03  0.19110306432E+03  0.79606021433E+02 0.  0.
         -6    2    1    2    0  502  0.16155155034E+01  0.26283481624E+03  0.45425541401E+01  0.31615143119E+03  0.17563126751E+03 0.  0.
        -24    2    5    5    0    0 -0.60458731681E+02  0.12743410502E+03  0.29787490464E+02  0.16500262513E+03  0.80273671614E+02 0.  0.
          5    1    3    3  501    0 -0.42675081054E+02 -0.19452628195E+03 -0.36366421757E+03  0.41465092554E+03  0.47000000000E+01 0. -1.
        -13    1    4    4    0    0  0.26906471790E+02  0.22813968387E+01 -0.82983414749E+01  0.28249344540E+02  0.00000000000E+00 0.  1.
         14    1    4    4    0    0  0.14153093761E+02 -0.70589931128E+02 -0.14607561606E+03  0.16285371978E+03  0.00000000000E+00 0. -1.
         -5    1    5    5    0  502  0.62074247185E+02  0.13540071122E+03 -0.25244936323E+02  0.15114880606E+03  0.47000000000E+01 0.  1.
         11    1    6    6    0    0 -0.22243811394E+02 -0.61651249901E+01  0.74936197320E+01  0.24268297183E+02  0.00000000000E+00 0. -1.
        -12    1    6    6    0    0 -0.38214920287E+02  0.13359923001E+03  0.22293870732E+02  0.14073432795E+03  0.00000000000E+00 0.  1.
</event>
<event>
12    1  0.1035051E+000  0.4191626E+03  0.7818608E-02  0.1038001E+00
         21   -1    0    0  503  502  0.00000000000E+00  0.00000000000E+00  0.33090449420E+03  0.33090449420E+03  0.00000000000E+00 0.  1.
         21   -1    0    0  501  503 -0.00000000000E+00 -0.00000000000E+00 -0.53067641905E+03  0.53067641905E+03  0.00000000000E+00 0. -1.
          6    2    1    2  501    0 -0.31829524088E+03 -0.19483570291E+03 -0.15760890915E+03  0.44030310429E+03  0.17249186621E+03 0.  0.
         24    2    3    3    0    0 -0.28504698876E+03 -0.22007112455E+03 -0.15406021465E+03  0.39814914828E+03  0.71450044624E+02 0.  0.
         -6    2    1    2    0  502  0.31829524088E+03  0.19483570291E+03 -0.42163015697E+02  0.42127780895E+03  0.19085193458E+03 0.  0.
        -24    2    5    5    0    0  0.13308983065E+03  0.99663762315E+01 -0.37700043847E+02  0.15951509190E+03  0.78813320949E+02 0.  0.
          5    1    3    3  501    0 -0.33248252117E+02  0.25235421640E+02 -0.35486945001E+01  0.42153956005E+02  0.47000000000E+01 0. -1.
        -13    1    4    4    0    0 -0.86266771470E+02 -0.37103038126E+02 -0.17858395797E+02  0.95590342601E+02  0.00000000000E+00 0.  1.
         14    1    4    4    0    0 -0.19878021729E+03 -0.18296808643E+03 -0.13620181886E+03  0.30255880568E+03  0.00000000000E+00 0. -1.
         -5    1    5    5    0  502  0.18520541023E+03  0.18486932668E+03 -0.44629718500E+01  0.26176271706E+03  0.47000000000E+01 0.  1.
         13    1    6    6    0    0 -0.97758875649E+01 -0.41677423854E+01 -0.69428484323E+01  0.12694140326E+02  0.00000000000E+00 0. -1.
        -14    1    6    6    0    0  0.14286571821E+03  0.14134118617E+02 -0.30757195415E+02  0.14682095157E+03  0.00000000000E+00 0.  1.
</event>
<event>
12    1  0.1035051E+000  0.1852009E+03  0.7818608E-02  0.1163814E+00
         21   -1    0    0  503  502  0.00000000000E+00  0.00000000000E+00  0.31516585580E+03  0.31516585580E+03  0.00000000000E+00 0.  1.
         21   -1    0    0  501  503 -0.00000000000E+00 -0.00000000000E+00 -0.13208781117E+03  0.13208781117E+03  0.00000000000E+00 0.  1.
          6    2    1    2  501    0 -0.56396914794E+02  0.54612037750E+01  0.19082870066E+03  0.26592285484E+03  0.17632054612E+03 0.  0.
         24    2    3    3    0    0  0.27044811063E+02  0.25323604119E+02  0.14276912529E+03  0.16749090197E+03  0.79356615189E+02 0.  0.
         -6    2    1    2    0  502  0.56396914794E+02 -0.54612037750E+01 -0.77506560336E+01  0.18133081213E+03  0.17207659345E+03 0.  0.
        -24    2    5    5    0    0  0.63971525320E+02  0.47860038124E+02 -0.38244732844E+02  0.11926223487E+03  0.79861641452E+02 0.  0.
          5    1    3    3  501    0 -0.83441725857E+02 -0.19862400344E+02  0.48059575374E+02  0.98431952874E+02  0.47000000000E+01 0. -1.
        -13    1    4    4    0    0  0.63937446006E+01 -0.13982046269E+02  0.11298442214E+03  0.11402568673E+03  0.00000000000E+00 0.  1.
         14    1    4    4    0    0  0.20651066462E+02  0.39305650387E+02  0.29784703148E+02  0.53465215234E+02  0.00000000000E+00 0. -1.
         -5    1    5    5    0  502 -0.75746105254E+01 -0.53321241899E+02  0.30494076811E+02  0.62068577257E+02  0.47000000000E+01 0.  1.
         11    1    6    6    0    0  0.40559801698E+02 -0.54778604338E+01  0.11661686948E+02  0.42557013655E+02  0.00000000000E+00 0. -1.
        -12    1    6    6    0    0  0.23411723622E+02  0.53337898558E+02 -0.49906419792E+02  0.76705221217E+02  0.00000000000E+00 0.  1.
</event>
<event>
12    1  0.1035051E+000  0.3877647E+03  0.7818608E-02  0.1048112E+00
         21   -1    0    0  503  502  0.00000000000E+00  0.00000000000E+00  0.99931644925E+02  0.99931644925E+02  0.00000000000E+00 0. -1.
         21   -1    0    0  501  503 -0.00000000000E+00 -0.00000000000E+00 -0.15796897145E+04  0.15796897145E+04  0.00000000000E+00 0. -1.
          6    2    1    2  501    0 -0.34236139876E+03  0.58401432508E+02 -0.55610436788E+03  0.67787405652E+03  0.17216014013E+03 0.  0.
         24    2    3    3    0    0 -0.71410255373E+02  0.38631889070E+02 -0.13634473381E+03  0.17784845983E+03  0.80301561636E+02 0.  0.
         -6    2    1    2    0  502  0.34236139876E+03 -0.58401432508E+02 -0.92365370168E+03  0.10017473029E+04  0.17245127871E+03 0.  0.
        -24    2    5    5    0    0  0.23996293059E+03 -0.96091719719E+02 -0.55663469361E+03  0.61882296790E+03  0.79270781644E+02 0.  0.
          5    1    3    3  501    0 -0.27095114339E+03  0.19769543437E+02 -0.41975963407E+03  0.50002559669E+03  0.47000000000E+01 0. -1.
        -13    1    4    4    0    0 -0.22496349322E+02 -0.11177510713E+02 -0.91475018428E+02  0.94861485730E+02  0.00000000000E+00 0.  1.
         14    1    4    4    0    0 -0.48913906051E+02  0.49809399784E+02 -0.44869715379E+02  0.82986974099E+02  0.00000000000E+00 0. -1.
         -5    1    5    5    0  502  0.10239846818E+03  0.37690287212E+02 -0.36701900807E+03  0.38292433498E+03  0.47000000000E+01 0.  1.
         13    1    6    6    0    0  0.14944478088E+03 -0.46850015196E+02 -0.41578580662E+03  0.44430451657E+03  0.00000000000E+00 0. -1.
        -14    1    6    6    0    0  0.90518149705E+02 -0.49241704524E+02 -0.14084888698E+03  0.17451845133E+03  0.00000000000E+00 0.  1.
</event>
<event>
12    1  0.1035051E+000  0.1967304E+03  0.7818608E-02  0.1152678E+00
         21   -1    0    0  501  502  0.00000000000E+00  0.00000000000E+00  0.13754880564E+03  0.13754880564E+03  0.00000000000E+00 0.  1.
         21   -1    0    0  502  503 -0.00000000000E+00 -0.00000000000E+00 -0.30527188540E+03  0.30527188540E+03  0.00000000000E+00 0.  1.
         -6    2    1    2    0  503  0.22580467754E+01  0.94324306300E+02 -0.20494903724E+02  0.19709929701E+03  0.17183107481E+03 0.  0.
        -24    2    3    3    0    0 -0.28365956312E+02 -0.14677820861E+02 -0.28614858650E+01  0.82415729245E+02  0.75921659775E+02 0.  0.
          6    2    1    2  501    0 -0.22580467754E+01 -0.94324306300E+02 -0.14722817603E+03  0.24572139403E+03  0.17262877550E+03 0.  0.
         24    2    5    5    0    0 -0.16717569037E+02 -0.52633647365E+02 -0.56399519083E+01  0.97341799618E+02  0.79961484140E+02 0.  0.
          5    1    5    5  501    0  0.14459522261E+02 -0.41690658935E+02 -0.14158822413E+03  0.14837959441E+03  0.47000000000E+01 0. -1.
        -13    1    6    6    0    0  0.67933701745E+01  0.42399331695E+01  0.26661527021E+02  0.27838174055E+02  0.00000000000E+00 0.  1.
         14    1    6    6    0    0 -0.23510939211E+02 -0.56873580535E+02 -0.32301478929E+02  0.69503625563E+02  0.00000000000E+00 0. -1.
         -5    1    3    3    0  503  0.30624003087E+02  0.10900212716E+03 -0.17633417859E+02  0.11468356777E+03  0.47000000000E+01 0.  1.
         11    1    4    4    0    0 -0.33457724769E+02  0.21349383630E+02  0.14299743381E+02  0.42186469263E+02  0.00000000000E+00 0. -1.
        -12    1    4    4    0    0  0.50917684570E+01 -0.36027204491E+02 -0.17161229246E+02  0.40229259982E+02  0.00000000000E+00 0.  1.
</event>
<event>
12    1  0.1035051E+000  0.2597098E+03  0.7818608E-02  0.1107583E+00
         21   -1    0    0  503  502  0.00000000000E+00  0.00000000000E+00  0.75478833370E+03  0.75478833370E+03  0.00000000000E+00 0. -1.
         21   -1    0    0  501  503 -0.00000000000E+00 -0.00000000000E+00 -0.69248712775E+03  0.69248712775E+03  0.00000000000E+00 0. -1.
          6    2    1    2  501    0  0.42166668488E+02  0.18939941545E+03 -0.64450802387E+03  0.69486674047E+03  0.17262394870E+03 0.  0.
         24    2    3    3    0    0  0.10264116289E+02  0.14297539499E+03 -0.27369657883E+03  0.31977184542E+03  0.82443315117E+02 0.  0.
         -6    2    1    2    0  502 -0.42166668488E+02 -0.18939941545E+03  0.70680922982E+03  0.75240872098E+03  0.16996890757E+03 0.  0.
        -24    2    5    5    0    0 -0.53020894413E+02 -0.21017952901E+03  0.66781685996E+03  0.70666899812E+03  0.80094099635E+02 0.  0.
          5    1    3    3  501    0  0.31902552198E+02  0.46424020465E+02 -0.37081144505E+03  0.37509489505E+03  0.47000000000E+01 0. -1.
        -13    1    4    4    0    0  0.38670601463E+02  0.12691395556E+03 -0.22284922037E+03  0.25935370163E+03  0.00000000000E+00 0.  1.
         14    1    4    4    0    0 -0.28406485174E+02  0.16061439433E+02 -0.50847358462E+02  0.60418143791E+02  0.00000000000E+00 0. -1.
         -5    1    5    5    0  502  0.10854225926E+02  0.20780113557E+02  0.38992369857E+02  0.45739722856E+02  0.47000000000E+01 0.  1.
         11    1    6    6    0    0 -0.16688326988E+02 -0.76666299412E+02  0.37070064817E+03  0.37891317248E+03  0.00000000000E+00 0. -1.
        -12    1    6    6    0    0 -0.36332567426E+02 -0.13351322960E+03  0.29711621179E+03  0.32775582564E+03  0.00000000000E+00 0.  1.
</event>
<event>
12    1  0.1035051E+000  0.1948818E+03  0.7818608E-02  0.1154480E+00
         21   -1    0    0  501  502  0.00000000000E+00  0.00000000000E+00  0.32006136691E+03  0.32006136691E+03  0.00000000000E+00 0. -1.
         21   -1    0    0  502  503 -0.00000000000E+00 -0.00000000000E+00 -0.12074999094E+03  0.12074999094E+03  0.00000000000E+00 0. -1.
         -6    2    1    2    0  503 -0.22750844658E+02  0.90260482325E+02  0.64984875662E+02  0.20543110053E+03  0.17121433176E+03 0.  0.
        -24    2    3    3    0    0  0.30890696499E+02  0.94956305759E+02  0.11154195477E+02  0.12914677826E+03  0.81139011114E+02 0.  0.
          6    2    1    2  501    0  0.22750844658E+02 -0.90260482325E+02  0.13432650031E+03  0.23538025731E+03  0.16939805561E+03 0.  0.
         24    2    5    5    0    0  0.67649363228E+02 -0.50188078045E+02  0.13077196419E+03  0.17491208981E+03  0.79985330030E+02 0.  0.
          5    1    5    5  501    0 -0.44898518570E+02 -0.40072404280E+02  0.35545361230E+01  0.60468167507E+02  0.47000000000E+01 0. -1.
        -11    1    6    6    0    0  0.30959719875E+02  0.14102891146E+02  0.14291046257E+02  0.36900268245E+02  0.00000000000E+00 0.  1.
         12    1    6    6    0    0  0.36689643353E+02 -0.64290969190E+02  0.11648091793E+03  0.13801182156E+03  0.00000000000E+00 0. -1.
         -5    1    3    3    0  503 -0.53641541157E+02 -0.46958234343E+01  0.53830680185E+02  0.76284322273E+02  0.47000000000E+01 0.  1.
         11    1    4    4    0    0  0.23629672907E+02  0.22411306969E+02  0.39259935037E+02  0.51009515003E+02  0.00000000000E+00 0. -1.
        -12    1    4    4    0    0  0.72610235917E+01  0.72544998791E+02 -0.28105739560E+02  0.78137263257E+02  0.00000000000E+00 0.  1.
</event>
<event>
12    1  0.1035051E+000  0.2081382E+03  0.7818608E-02  0.1143237E+00
         21   -1    0    0  501  502  0.00000000000E+00  0.00000000000E+00  0.83164714377E+03  0.83164714377E+03  0.00000000000E+00 0. -1.
         21   -1    0    0  502  503 -0.00000000000E+00 -0.00000000000E+00 -0.53023586162E+02  0.53023586162E+02  0.00000000000E+00 0. -1.
         -6    2    1    2    0  503  0.69365013157E+02 -0.92724211967E+02  0.45579503257E+03  0.50106949393E+03  0.17295155825E+03 0.  0.
        -24    2    3    3    0    0  0.49315928475E+02 -0.53099633241E+02  0.44360431230E+03  0.45477935787E+03  0.69194267130E+02 0.  0.
          6    2    1    2  501    0 -0.69365013157E+02  0.92724211967E+02  0.32282852504E+03  0.38360123600E+03  0.17182074131E+03 0.  0.
         24    2    5    5    0    0 -0.20487881194E+02  0.52449338478E+02  0.66324681928E+02  0.11935258227E+03  0.81703054289E+02 0.  0.
          5    1    5    5  501    0 -0.48877131963E+02  0.40274873489E+02  0.25650384312E+03  0.26424865373E+03  0.47000000000E+01 0. -1.
        -13    1    6    6    0    0 -0.24677685290E+02  0.29163657852E+02  0.82347587130E+02  0.90777927916E+02  0.00000000000E+00 0.  1.
         14    1    6    6    0    0  0.41898040965E+01  0.23285680626E+02 -0.16022905202E+02  0.28574654358E+02  0.00000000000E+00 0. -1.
         -5    1    3    3    0  503  0.20049084682E+02 -0.39624578727E+02  0.12190720265E+02  0.46290136060E+02  0.47000000000E+01 0.  1.
         11    1    4    4    0    0  0.52072404038E+02 -0.39956708524E+02  0.19377527812E+03  0.20458966794E+03  0.00000000000E+00 0. -1.
        -12    1    4    4    0    0 -0.27564755624E+01 -0.13142924717E+02  0.24982903419E+03  0.25018968993E+03  0.00000000000E+00 0.  1.
</event>
<event>
12    1  0.1035051E+000  0.3020547E+03  0.7818608E-02  0.1085755E+00
         21   -1    0    0  503  502  0.00000000000E+00  0.00000000000E+00  0.90007272097E+02  0.90007272097E+02  0.00000000000E+00 0. -1.
         21   -1    0    0  501  503 -0.00000000000E+00 -0.00000000000E+00 -0.11128331952E+04  0.11128331952E+04  0.00000000000E+00 0. -1.
          6    2    1    2  501    0 -0.19977930499E+03  0.12203573755E+03 -0.28933731816E+03  0.40959235309E+03  0.17101263138E+03 0.  0.
         24    2    3    3    0    0 -0.64864038189E+02 -0.54254754805E+01 -0.12345876546E+03  0.16062192455E+03  0.79501928544E+02 0.  0.
         -6    2    1    2    0  502  0.19977930499E+03 -0.12203573755E+03 -0.73348860492E+03  0.79324811418E+03  0.19087311273E+03 0.  0.
        -24    2    5    5    0    0  0.67619439159E+02 -0.78131252693E+02 -0.18020000746E+03  0.22268330979E+03  0.80242959644E+02 0.  0.
          5    1    3    3  501    0 -0.13491526680E+03  0.12746121304E+03 -0.16587855270E+03  0.24897042854E+03  0.47000000000E+01 0. -1.
        -13    1    4    4    0    0 -0.17141703572E+02  0.13024579659E+02  0.52131052676E+01  0.22150714282E+02  0.00000000000E+00 0.  1.
         14    1    4    4    0    0 -0.47722334617E+02 -0.18450055140E+02 -0.12867187073E+03  0.13847121027E+03  0.00000000000E+00 0. -1.
         -5    1    5    5    0  502  0.13215986583E+03 -0.43904484861E+02 -0.55328859746E+03  0.57056480438E+03  0.47000000000E+01 0.  1.
         13    1    6    6    0    0  0.34659913780E+02 -0.62379457867E+02 -0.17058335396E+03  0.18490859102E+03  0.00000000000E+00 0. -1.
        -14    1    6    6    0    0  0.32959525380E+02 -0.15751794827E+02 -0.96166535011E+01  0.37774718769E+02  0.00000000000E+00 0.  1.
</event>
<event>
12    1  0.1035051E+000  0.2157743E+03  0.7818608E-02  0.1137462E+00
         21   -1    0    0  501  502  0.00000000000E+00  0.00000000000E+00  0.35322714479E+03  0.35322714479E+03  0.00000000000E+00 0.  1.
         21   -1    0    0  502  503 -0.00000000000E+00 -0.00000000000E+00 -0.16400454884E+03  0.16400454884E+03  0.00000000000E+00 0.  1.
         -6    2    1    2    0  503 -0.27984290154E+02  0.12647545889E+03  0.21101189630E+03  0.30036004039E+03  0.17003226542E+03 0.  0.
        -24    2    3    3    0    0  0.65565163623E+01  0.93717795424E+02  0.52491679427E+02  0.13477960378E+03  0.81142788339E+02 0.  0.
          6    2    1    2  501    0  0.27984290154E+02 -0.12647545889E+03 -0.21789300351E+02  0.21687165325E+03  0.17256702517E+03 0.  0.
         24    2    5    5    0    0 -0.41001984263E+02 -0.67847485460E+02  0.24324903797E+02  0.11516150061E+03  0.79912616528E+02 0.  0.
          5    1    5    5  501    0  0.68986274417E+02 -0.58627973425E+02 -0.46114204148E+02  0.10171015264E+03  0.47000000000E+01 0. -1.
        -11    1    6    6    0    0 -0.18442000189E+01  0.37477809705E+01  0.32849001698E+02  0.33113499489E+02  0.00000000000E+00 0.  1.
         12    1    6    6    0    0 -0.39157784244E+02 -0.71595266431E+02 -0.85240979006E+01  0.82048001117E+02  0.00000000000E+00 0. -1.
         -5    1    3    3    0  503 -0.34540806516E+02  0.32757663462E+02  0.15852021687E+03  0.16558043661E+03  0.47000000000E+01 0.  1.
         13    1    4    4    0    0 -0.29669168815E+02  0.78885703773E+02  0.42450941925E+02  0.94367877523E+02  0.00000000000E+00 0. -1.
        -14    1    4    4    0    0  0.36225685177E+02  0.14832091651E+02  0.10040737503E+02  0.40411726255E+02  0.00000000000E+00 0.  1.
</event>
<event>
12    1  0.1035051E+000  0.2029337E+03  0.7818608E-02  0.1147577E+00
         21   -1    0    0  503  502  0.00000000000E+00  0.00000000000E+00  0.15331602728E+04  0.15331602728E+04  0.00000000000E+00 0.  1.
         21   -1    0    0  501  503 -0.00000000000E+00 -0.00000000000E+00 -0.27545269388E+02  0.27545269388E+02  0.00000000000E+00 0. -1.
          6    2    1    2  501    0 -0.91319287609E+02  0.53153474765E+02  0.89391696184E+03  0.91666220788E+03  0.17325577772E+03 0.  0.
         24    2    3    3    0    0  0.12445557940E+02  0.19114434384E+02  0.25823086120E+03  0.27164693055E+03  0.81170337470E+02 0.  0.
         -6    2    1    2    0  502  0.91319287609E+02 -0.53153474765E+02  0.61169804155E+03  0.64404333429E+03  0.17161823399E+03 0.  0.
        -24    2    5    5    0    0  0.47595056219E+02  0.24180611999E+02  0.18796593609E+03  0.21107294663E+03  0.79816065417E+02 0.  0.
          5    1    3    3  501    0 -0.10376484555E+03  0.34039040381E+02  0.63568610064E+03  0.64501527733E+03  0.47000000000E+01 0. -1.
        -11    1    4    4    0    0 -0.24064674814E+02  0.33598425344E+02  0.92288814741E+02  0.10111967210E+03  0.00000000000E+00 0.  1.
         12    1    4    4    0    0  0.36510232754E+02 -0.14483990960E+02  0.16594204646E+03  0.17052725845E+03  0.00000000000E+00 0. -1.
         -5    1    5    5    0  502  0.43724231390E+02 -0.77334086764E+02  0.42373210547E+03  0.43297038766E+03  0.47000000000E+01 0.  1.
         13    1    6    6    0    0  0.63969832813E+02  0.17544465940E+02  0.91568046308E+02  0.11306924825E+03  0.00000000000E+00 0. -1.
        -14    1    6    6    0    0 -0.16374776594E+02  0.66361460581E+01  0.96397889779E+02  0.98003698384E+02  0.00000000000E+00 0.  1.
</event>
<event>
12    1  0.1035051E+000  0.2154140E+03  0.7818608E-02  0.1138578E+00
         21   -1    0    0  503  502  0.00000000000E+00  0.00000000000E+00  0.32354412823E+03  0.32354412823E+03  0.00000000000E+00 0. -1.
         21   -1    0    0  501  503 -0.00000000000E+00 -0.00000000000E+00 -0.14802243798E+03  0.14802243798E+03  0.00000000000E+00 0.  1.
          6    2    1    2  501    0  0.16244877295E+02  0.11883112752E+03  0.14393475275E+03  0.25384902322E+03  0.17128158289E+03 0.  0.
         24    2    3    3    0    0  0.21564763485E+02  0.13600006865E+03  0.65250218186E+02  0.17300089580E+03  0.81918625960E+02 0.  0.
         -6    2    1    2    0  502 -0.16244877295E+02 -0.11883112752E+03  0.31586937502E+02  0.21771754298E+03  0.17893703081E+03 0.  0.
        -24    2    5    5    0    0  0.14208596983E+02 -0.14404447556E+03 -0.47193533875E+01  0.16383467211E+03  0.76608304519E+02 0.  0.
          5    1    3    3  501    0 -0.53198861892E+01 -0.17168941124E+02  0.78684534561E+02  0.80848127420E+02  0.47000000000E+01 0. -1.
        -13    1    4    4    0    0 -0.30772971231E+02  0.51196851278E+02  0.33090215886E+02  0.68286570617E+02  0.00000000000E+00 0.  1.
         14    1    4    4    0    0  0.52337734716E+02  0.84803217369E+02  0.32160002299E+02  0.10471432519E+03  0.00000000000E+00 0. -1.
         -5    1    5    5    0  502 -0.30453474278E+02  0.25213348038E+02  0.36306290889E+02  0.53882870869E+02  0.47000000000E+01 0.  1.
         11    1    6    6    0    0  0.12950744887E+02 -0.91284281425E+02  0.34118865166E+02  0.98308894758E+02  0.00000000000E+00 0. -1.
        -12    1    6    6    0    0  0.12578520960E+01 -0.52760194137E+02 -0.38838218554E+02  0.65525777353E+02  0.00000000000E+00 0.  1.
</event>
<event>
12    1  0.1035051E+000  0.3009864E+03  0.7818608E-02  0.1084934E+00
         21   -1    0    0  501  502  0.00000000000E+00  0.00000000000E+00  0.28731500338E+03  0.28731500338E+03  0.00000000000E+00 0.  1.
         21   -1    0    0  502  503 -0.00000000000E+00 -0.00000000000E+00 -0.33026480019E+03  0.33026480019E+03  0.00000000000E+00 0. -1.
         -6    2    1    2    0  503 -0.22767839706E+03  0.91613197605E+02 -0.90475036642E+02  0.31286439682E+03  0.17166236651E+03 0.  0.
        -24    2    3    3    0    0 -0.68941768188E+02  0.30855118667E+00  0.75302181633E+01  0.10511219882E+03  0.78986122518E+02 0.  0.
          6    2    1    2  501    0  0.22767839706E+03 -0.91613197605E+02  0.47525239832E+02  0.30471540676E+03  0.17424809965E+03 0.  0.
         24    2    5    5    0    0  0.22512950674E+03 -0.49847850057E+02  0.61495437385E+02  0.26035216164E+03  0.10408389066E+03 0.  0.
          5    1    5    5  501    0  0.25488903256E+01 -0.41765347548E+02 -0.13970197552E+02  0.44363245117E+02  0.47000000000E+01 0. -1.
        -13    1    6    6    0    0  0.18542206951E+03 -0.37526916271E+02  0.37769623263E+01  0.18921912893E+03  0.00000000000E+00 0.  1.
         14    1    6    6    0    0  0.39707437222E+02 -0.12320933786E+02  0.57718475058E+02  0.71133032714E+02  0.00000000000E+00 0. -1.
         -5    1    3    3    0  503 -0.15873662887E+03  0.91304646418E+02 -0.98005254806E+02  0.20775219800E+03  0.47000000000E+01 0.  1.
         13    1    4    4    0    0 -0.18136230348E+02 -0.36526735918E+02  0.11074520168E+02  0.42258375324E+02  0.00000000000E+00 0. -1.
        -14    1    4    4    0    0 -0.50805537839E+02  0.36835287105E+02 -0.35443020043E+01  0.62853823495E+02  0.00000000000E+00 0.  1.
</event>
<event>
12    1  0.1035051E+000  0.1856214E+03  0.7818608E-02  0.1163511E+00
         21   -1    0    0  501  502  0.00000000000E+00  0.00000000000E+00  0.68819499826E+03  0.68819499826E+03  0.00000000000E+00 0. -1.
         21   -1    0    0  502  503 -0.00000000000E+00 -0.00000000000E+00 -0.50222160435E+02  0.50222160435E+02  0.00000000000E+00 0. -1.
         -6    2    1    2    0  503  0.44667820561E+02 -0.32495340343E+02  0.26241074594E+03  0.32142605543E+03  0.17721215586E+03 0.  0.
        -24    2    3    3    0    0 -0.37923063598E+02 -0.17384451389E+02  0.65032370893E+02  0.10688024203E+03  0.73849840681E+02 0.  0.
          6    2    1    2  501    0 -0.44667820561E+02  0.32495340343E+02  0.37556209188E+03  0.41699110326E+03  0.17257906596E+03 0.  0.
         24    2    5    5    0    0  0.15351883891E+02  0.74378408465E+02  0.21347581666E+03  0.23908492874E+03  0.76301054185E+02 0.  0.
          5    1    5    5  501    0 -0.60019704452E+02 -0.41883068121E+02  0.16208627522E+03  0.17790617452E+03  0.47000000000E+01 0. -1.
        -11    1    6    6    0    0 -0.13184944807E+02  0.20305290583E+01  0.16609425491E+01  0.13443383055E+02  0.00000000000E+00 0.  1.
         12    1    6    6    0    0  0.28536828698E+02  0.72347879406E+02  0.21181487411E+03  0.22564154569E+03  0.00000000000E+00 0. -1.
         -5    1    3    3    0  503  0.82590884159E+02 -0.15110888954E+02  0.19737837505E+03  0.21454581340E+03  0.47000000000E+01 0.  1.
         13    1    4    4    0    0 -0.86246211748E+01  0.28095582778E+02  0.32204861714E+02  0.43599300225E+02  0.00000000000E+00 0. -1.
        -14    1    4    4    0    0 -0.29298442423E+02 -0.45480034167E+02  0.32827509179E+02  0.63280941800E+02  0.00000000000E+00 0.  1.
</event>
<event>
12    1  0.1035051E+000  0.1798017E+03  0.7818608E-02  0.1168212E+00
         21   -1    0    0  503  502  0.00000000000E+00  0.00000000000E+00  0.63850325368E+03  0.63850325368E+03  0.00000000000E+00 0.  1.
         21   -1    0    0  501  503 -0.00000000000E+00 -0.00000000000E+00 -0.51188565976E+02  0.51188565976E+02  0.00000000000E+00 0.  1.
          6    2    1    2  501    0  0.50674133167E+02  0.33107590037E+01  0.33625237390E+03  0.38088613775E+03  0.17155104803E+03 0.  0.
         24    2    3    3    0    0  0.22986967745E+02 -0.53212436784E+02  0.27518775638E+03  0.29306570560E+03  0.82457518885E+02 0.  0.
         -6    2    1    2    0  502 -0.50674133167E+02 -0.33107590037E+01  0.25106231380E+03  0.30880568191E+03  0.17248140441E+03 0.  0.
        -24    2    5    5    0    0 -0.31725808833E+02 -0.69241854000E+02  0.14010116561E+03  0.17826674254E+03  0.79685215683E+02 0.  0.
          5    1    3    3  501    0  0.27687165422E+02  0.56523195787E+02  0.61064617522E+02  0.87820432157E+02  0.47000000000E+01 0. -1.
        -11    1    4    4    0    0  0.24758878733E+02 -0.60280433372E+02  0.11099538958E+03  0.12871172919E+03  0.00000000000E+00 0.  1.
         12    1    4    4    0    0 -0.17719109877E+01  0.70679965885E+01  0.16419236680E+03  0.16435397641E+03  0.00000000000E+00 0. -1.
         -5    1    5    5    0  502 -0.18948324335E+02  0.65931094996E+02  0.11096114819E+03  0.13053893937E+03  0.47000000000E+01 0.  1.
         11    1    6    6    0    0  0.93488204951E+01 -0.27084283219E+02  0.10693391335E+03  0.11070601008E+03  0.00000000000E+00 0. -1.
        -12    1    6    6    0    0 -0.41074629328E+02 -0.42157570781E+02  0.33167252260E+02  0.67560732464E+02  0.00000000000E+00 0.  1.
</event>
<event>
12    1  0.1035051E+000  0.2490676E+03  0.7818608E-02  0.1114072E+00
         21   -1    0    0  503  502  0.00000000000E+00  0.00000000000E+00  0.26916599829E+03  0.26916599829E+03  0.00000000000E+00 0. -1.
         21   -1    0    0  501  503 -0.00000000000E+00 -0.00000000000E+00 -0.23130708352E+03  0.23130708352E+03  0.00000000000E+00 0. -1.
          6    2    1    2  501    0 -0.11744065976E+03  0.13555281304E+03 -0.35694982706E+01  0.24798350279E+03  0.17121974959E+03 0.  0.
         24    2    3    3    0    0 -0.89935039392E+02  0.90053816663E+02 -0.68675792721E+02  0.16379539555E+03  0.76906214919E+02 0.  0.
         -6    2    1    2    0  502  0.11744065976E+03 -0.13555281304E+03  0.41428413043E+02  0.25248957902E+03  0.17282303208E+03 0.  0.
        -24    2    5    5    0    0  0.34222397925E+02 -0.27823539083E+02 -0.33269713589E+02  0.97142304526E+02  0.79902638501E+02 0.  0.
          5    1    3    3  501    0 -0.27505620371E+02  0.45498996374E+02  0.65106294450E+02  0.84188107236E+02  0.47000000000E+01 0. -1.
        -13    1    4    4    0    0 -0.59070949718E+02  0.98822050684E+02 -0.43741175419E+02  0.12316032327E+03  0.00000000000E+00 0.  1.
         14    1    4    4    0    0 -0.30864089674E+02 -0.87682340214E+01 -0.24934617301E+02  0.40635072280E+02  0.00000000000E+00 0. -1.
         -5    1    5    5    0  502  0.83218261837E+02 -0.10772927395E+03  0.74698126633E+02  0.15534727449E+03  0.47000000000E+01 0.  1.
         11    1    6    6    0    0  0.13799457703E+02  0.16643459216E+02  0.16613196155E+02  0.27265877101E+02  0.00000000000E+00 0. -1.
        -12    1    6    6    0    0  0.20422940222E+02 -0.44466998299E+02 -0.49882909744E+02  0.69876427425E+02  0.00000000000E+00 0.  1.
</event>
<event>
12    1  0.1035051E+000  0.2394331E+03  0.7818608E-02  0.1121434E+00
         21   -1    0    0  503  502  0.00000000000E+00  0.00000000000E+00  0.13638479590E+03  0.13638479590E+03  0.00000000000E+00 0. -1.
         21   -1    0    0  501  503 -0.00000000000E+00 -0.00000000000E+00 -0.50017723605E+03  0.50017723605E+03  0.00000000000E+00 0. -1.
          6    2    1    2  501    0 -0.19568015001E+02  0.14992835284E+03 -0.32129879993E+03  0.40070079048E+03  0.18565232683E+03 0.  0.
         24    2    3    3    0    0 -0.58671829041E+02  0.26041183468E+02 -0.17433161800E+03  0.20449023630E+03  0.85464711706E+02 0.  0.
         -6    2    1    2    0  502  0.19568015001E+02 -0.14992835284E+03 -0.42493640217E+02  0.23586124147E+03  0.17596419400E+03 0.  0.
        -24    2    5    5    0    0 -0.38123754183E+02 -0.26191900126E+02 -0.35602415605E+02  0.99081751270E+02  0.80063881823E+02 0.  0.
          5    1    3    3  501    0  0.39103814040E+02  0.12388716937E+03 -0.14696718193E+03  0.19621055418E+03  0.47000000000E+01 0. -1.
        -13    1    4    4    0    0  0.18884428005E+02 -0.38599789542E+01 -0.60806997347E+02  0.63788807677E+02  0.00000000000E+00 0.  1.
         14    1    4    4    0    0 -0.77556257046E+02  0.29901162423E+02 -0.11352462065E+03  0.14070142862E+03  0.00000000000E+00 0. -1.
         -5    1    5    5    0  502  0.57691769184E+02 -0.12373645272E+03 -0.68912246128E+01  0.13677949020E+03  0.47000000000E+01 0.  1.
         13    1    6    6    0    0 -0.26806623654E+02  0.24215801023E+02  0.37426732818E+00  0.36126723723E+02  0.00000000000E+00 0. -1.
        -14    1    6    6    0    0 -0.11317130530E+02 -0.50407701149E+02 -0.35976682933E+02  0.62955027547E+02  0.00000000000E+00 0.  1.
</event>
<event>
12    1  0.1035051E+000  0.2604258E+03  0.7818608E-02  0.1106907E+00
         21   -1    0    0  503  502  0.00000000000E+00  0.00000000000E+00  0.62560947943E+03  0.62560947943E+03  0.00000000000E+00 0.  1.
         21   -1    0    0  501  503 -0.00000000000E+00 -0.00000000000E+00 -0.19920421247E+03  0.19920421247E+03  0.00000000000E+00 0.  1.
          6    2    1    2  501    0 -0.73778137870E+02 -0.18223959514E+03 -0.65333213754E+02  0.26837112096E+03  0.17058764927E+03 0.  0.
         24    2    3    3    0    0 -0.10192764224E+03 -0.11383757991E+03 -0.39340754594E+01  0.17212573423E+03  0.79142609134E+02 0.  0.
         -6    2    1    2    0  502  0.73778137870E+02  0.18223959514E+03  0.49173848072E+03  0.55644257094E+03  0.17078383317E+03 0.  0.
        -24    2    5    5    0    0 -0.19585041921E+02  0.12954673066E+03  0.29911069919E+03  0.33594138382E+03  0.78888996042E+02 0.  0.
          5    1    3    3  501    0  0.28149504375E+02 -0.68402015230E+02 -0.61399138295E+02  0.96245386733E+02  0.47000000000E+01 0. -1.
        -13    1    4    4    0    0 -0.83114000100E+02 -0.34750328555E+02  0.56796523317E+01  0.90265058566E+02  0.00000000000E+00 0.  1.
         14    1    4    4    0    0 -0.18813642145E+02 -0.79087251359E+02 -0.96137277911E+01  0.81860675665E+02  0.00000000000E+00 0. -1.
         -5    1    5    5    0  502  0.93363179790E+02  0.52692864479E+02  0.19262778152E+03  0.22050118712E+03  0.47000000000E+01 0.  1.
         13    1    6    6    0    0  0.21572519538E+01  0.10543271703E+02 -0.24358227018E+01  0.11033927063E+02  0.00000000000E+00 0. -1.
        -14    1    6    6    0    0 -0.21742293874E+02  0.11900345896E+03  0.30154652190E+03  0.32490745675E+03  0.00000000000E+00 0.  1.
</event>
<event>
12    1  0.1035051E+000  0.1750489E+03  0.7818608E-02  0.1172840E+00
         21   -1    0    0  503  502  0.00000000000E+00  0.00000000000E+00  0.60624363139E+02  0.60624363139E+02  0.00000000000E+00 0.  1.
         21   -1    0    0  501  503 -0.00000000000E+00 -0.00000000000E+00 -0.56768511061E+03  0.56768511061E+03  0.00000000000E+00 0.  1.
          6    2    1    2  501    0  0.21427068800E+02 -0.18100914571E+02 -0.35945306638E+03  0.39981075315E+03  0.17278706264E+03 0.  0.
         24    2    3    3    0    0 -0.51636616367E+02 -0.33302805725E+02 -0.21603321141E+03  0.23806791904E+03  0.78933951036E+02 0.  0.
         -6    2    1    2    0  502 -0.21427068800E+02  0.18100914571E+02 -0.14760768110E+03  0.22849872061E+03  0.17215363898E+03 0.  0.
        -24    2    5    5    0    0 -0.76296820047E+02 -0.92247200948E+01 -0.92917066935E+02  0.14621547086E+03  0.82698744732E+02 0.  0.
          5    1    3    3  501    0  0.73063685167E+02  0.15201891154E+02 -0.14341985497E+03  0.16174283410E+03  0.47000000000E+01 0. -1.
        -11    1    4    4    0    0 -0.48415746097E+02 -0.12406731046E+02 -0.21030555372E+03  0.21616298798E+03  0.00000000000E+00 0.  1.
         12    1    4    4    0    0 -0.32208702701E+01 -0.20896074679E+02 -0.57276576858E+01  0.21904931062E+02  0.00000000000E+00 0. -1.
         -5    1    5    5    0  502  0.54869751247E+02  0.27325634665E+02 -0.54690614164E+02  0.82283249750E+02  0.47000000000E+01 0.  1.
         13    1    6    6    0    0 -0.71731387317E+02  0.70667673742E+01 -0.10359898081E+03  0.12620649727E+03  0.00000000000E+00 0. -1.
        -14    1    6    6    0    0 -0.45654327299E+01 -0.16291487469E+02  0.10681913878E+02  0.20008973588E+02  0.00000000000E+00 0.  1.
</event>
<event>
12    1  0.1035051E+000  0.3502427E+03  0.7818608E-02  0.1062572E+00
         21   -1    0    0  501  502  0.00000000000E+00  0.00000000000E+00  0.33804785793E+03  0.33804785793E+03  0.00000000000E+00 0.  1.
         21   -1    0    0  502  503 -0.00000000000E+00 -0.00000000000E+00 -0.36510442251E+03  0.36510442251E+03  0.00000000000E+00 0.  1.
         -6    2    1    2    0  503 -0.24079753913E+01 -0.30462526298E+03  0.17280451967E+02  0.35011440103E+03  0.17169487645E+03 0.  0.
        -24    2    3    3    0    0 -0.58701173509E+02 -0.25169121815E+03 -0.73518834349E+01  0.26887537590E+03  0.73794447708E+02 0.  0.
          6    2    1    2  501    0  0.24079753913E+01  0.30462526298E+03 -0.44337016552E+02  0.35303787940E+03  0.17282252187E+03 0.  0.
         24    2    5    5    0    0 -0.39807341823E+02  0.87633036564E+02  0.18869820714E+02  0.12307059127E+03  0.74337922635E+02 0.  0.
          5    1    5    5  501    0  0.42215317215E+02  0.21699222642E+03 -0.63206837266E+02  0.22996728813E+03  0.47000000000E+01 0. -1.
        -11    1    6    6    0    0  0.13338608222E+02  0.16455032419E+02  0.26485989253E+02  0.33914512940E+02  0.00000000000E+00 0.  1.
         12    1    6    6    0    0 -0.53145950046E+02  0.71178004144E+02 -0.76161685385E+01  0.89156078331E+02  0.00000000000E+00 0. -1.
         -5    1    3    3    0  503  0.56293198118E+02 -0.52934044837E+02  0.24632335402E+02  0.81239025133E+02  0.47000000000E+01 0.  1.
         13    1    4    4    0    0  0.63702282603E+01 -0.12911986006E+03  0.63128145381E+01  0.12943094567E+03  0.00000000000E+00 0. -1.
        -14    1    4    4    0    0 -0.65071401770E+02 -0.12257135809E+03 -0.13664697973E+02  0.13944443023E+03  0.00000000000E+00 0.  1.
</event>
<event>
12    1  0.1035051E+000  0.1950411E+03  0.7818608E-02  0.1154922E+00
         21   -1    0    0  501  502  0.00000000000E+00  0.00000000000E+00  0.15305160452E+03  0.15305160452E+03  0.00000000000E+00 0.  1.
         21   -1    0    0  502  503 -0.00000000000E+00 -0.00000000000E+00 -0.35929621590E+03  0.35929621590E+03  0.00000000000E+00 0.  1.
         -6    2    1    2    0  503 -0.72053641403E+02  0.42330909295E+02  0.43251664535E+02  0.19566275241E+03  0.17155049716E+03 0.  0.
        -24    2    3    3    0    0 -0.53250804731E+02  0.18222652612E+02 -0.41022708528E+02  0.10589073749E+03  0.79763853965E+02 0.  0.
          6    2    1    2  501    0  0.72053641403E+02 -0.42330909295E+02 -0.24949627592E+03  0.31668506801E+03  0.17623111951E+03 0.  0.
         24    2    5    5    0    0  0.28806040465E+02 -0.47053776225E+02 -0.44740758641E+02  0.10730605208E+03  0.80430140522E+02 0.  0.
          5    1    5    5  501    0  0.43247600938E+02  0.47228669299E+01 -0.20475551728E+03  0.20937901594E+03  0.47000000000E+01 0. -1.
        -11    1    6    6    0    0 -0.84980976701E+01 -0.39453574088E+01  0.19368730345E+02  0.21515836593E+02  0.00000000000E+00 0.  1.
         12    1    6    6    0    0  0.37304138135E+02 -0.43108418816E+02 -0.64109488987E+02  0.85790215485E+02  0.00000000000E+00 0. -1.
         -5    1    3    3    0  503 -0.18802836672E+02  0.24108256683E+02  0.84274373063E+02  0.89772014918E+02  0.47000000000E+01 0.  1.
         13    1    4    4    0    0 -0.54039929737E+02  0.73521584236E+01  0.84882165382E+01  0.55194366193E+02  0.00000000000E+00 0. -1.
        -14    1    4    4    0    0  0.78912500562E+00  0.10870494188E+02 -0.49510925066E+02  0.50696371301E+02  0.00000000000E+00 0.  1.
</event>
<event>
12    1  0.1035051E+000  0.4691246E+03  0.7818608E-02  0.1022185E+00
         21   -1    0    0  501  502  0.00000000000E+00  0.00000000000E+00  0.11631691550E+04  0.11631691550E+04  0.00000000000E+00 0. -1.
         21   -1    0    0  502  503 -0.00000000000E+00 -0.00000000000E+00 -0.23023291081E+03  0.23023291081E+03  0.00000000000E+00 0. -1.
         -6    2    1    2    0  503 -0.11495049329E+03 -0.42133725131E+03  0.76082774928E+03  0.89370297334E+03  0.17060904206E+03 0.  0.
        -24    2    3    3    0    0 -0.13914510826E+03 -0.26672234781E+03  0.48784144299E+03  0.57900508456E+03  0.82191498833E+02 0.  0.
          6    2    1    2  501    0  0.11495049329E+03  0.42133725131E+03  0.17210849493E+03  0.49969909250E+03  0.17128675887E+03 0.  0.
         24    2    5    5    0    0  0.61183444153E+02  0.31020786713E+03  0.57518080097E+02  0.33119482319E+03  0.80058395587E+02 0.  0.
          5    1    5    5  501    0  0.53767049134E+02  0.11112938418E+03  0.11459041484E+03  0.16850426930E+03  0.47000000000E+01 0. -1.
        -11    1    6    6    0    0  0.60545639997E+02  0.25282308189E+03  0.76086680310E+02  0.27087721975E+03  0.00000000000E+00 0.  1.
         12    1    6    6    0    0  0.63780415563E+00  0.57384785240E+02 -0.18568600213E+02  0.60317603442E+02  0.00000000000E+00 0. -1.
         -5    1    3    3    0  503  0.24194614968E+02 -0.15461490351E+03  0.27298630629E+03  0.31469788878E+03  0.47000000000E+01 0.  1.
         13    1    4    4    0    0 -0.67325608387E+02 -0.87254851979E+02  0.24479613971E+03  0.26846097809E+03  0.00000000000E+00 0. -1.
        -14    1    4    4    0    0 -0.71819499869E+02 -0.17946749583E+03  0.24304530327E+03  0.31054410647E+03  0.00000000000E+00 0.  1.
</event>
<event>
12    1  0.1035051E+000  0.1905609E+03  0.7818608E-02  0.1158145E+00
         21   -1    0    0  503  502  0.00000000000E+00  0.00000000000E+00  0.29026531965E+02  0.29026531965E+02  0.00000000000E+00 0.  1.
         21   -1    0    0  501  503 -0.00000000000E+00 -0.00000000000E+00 -0.16838035231E+04  0.16838035231E+04  0.00000000000E+00 0. -1.
          6    2    1    2  501    0  0.17498239439E+02 -0.77644985769E+02 -0.12629573337E+04  0.12771282057E+04  0.17222164463E+03 0.  0.
         24    2    3    3    0    0 -0.29217453450E+02 -0.70957034447E+02 -0.47158553650E+03  0.48433662146E+03  0.79375590258E+02 0.  0.
         -6    2    1    2    0  502 -0.17498239439E+02  0.77644985769E+02 -0.39181965746E+03  0.43570184938E+03  0.17314307777E+03 0.  0.
        -24    2    5    5    0    0  0.18082686874E+02  0.11301155534E+03 -0.29611999736E+03  0.32754773941E+03  0.80634195909E+02 0.  0.
          5    1    3    3  501    0  0.46715692889E+02 -0.66879513223E+01 -0.79137179719E+03  0.79279158424E+03  0.47000000000E+01 0. -1.
        -13    1    4    4    0    0 -0.13243589006E+01 -0.66820106296E+02 -0.19134536933E+03  0.20268135310E+03  0.00000000000E+00 0.  1.
         14    1    4    4    0    0 -0.27893094549E+02 -0.41369281507E+01 -0.28024016717E+03  0.28165526836E+03  0.00000000000E+00 0. -1.
         -5    1    5    5    0  502 -0.35580926313E+02 -0.35366569569E+02 -0.95699660099E+02  0.10815410997E+03  0.47000000000E+01 0.  1.
         11    1    6    6    0    0  0.43294320983E+02  0.78162144888E+02 -0.24473780370E+03  0.26053850327E+03  0.00000000000E+00 0. -1.
        -12    1    6    6    0    0 -0.25211634109E+02  0.34849410450E+02 -0.51382193656E+02  0.67009236140E+02  0.00000000000E+00 0.  1.
</event>
<event>
12    1  0.1035051E+000  0.2599592E+03  0.7818608E-02  0.1109059E+00
         21   -1    0    0  503  502  0.00000000000E+00  0.00000000000E+00  0.21496440165E+03  0.21496440165E+03  0.00000000000E+00 0. -1.
         21   -1    0    0  501  503 -0.00000000000E+00 -0.00000000000E+00 -0.30501658232E+03  0.30501658232E+03  0.00000000000E+00 0. -1.
          6    2    1    2  501    0  0.82518944038E+02  0.15880615277E+03 -0.78237500630E+02  0.25975341886E+03  0.17123656684E+03 0.  0.
         24    2    3    3    0    0  0.14569891318E+02  0.90369566913E+02  0.21277916797E+02  0.12109539221E+03  0.76370176866E+02 0.  0.
         -6    2    1    2    0  502 -0.82518944038E+02 -0.15880615277E+03 -0.11814680038E+02  0.26022756511E+03  0.18854715244E+03 0.  0.
        -24    2    5    5    0    0 -0.76219803325E+01 -0.92316731726E+02 -0.73568013044E+02  0.14247374385E+03  0.79410588731E+02 0.  0.
          5    1    3    3  501    0  0.67949052720E+02  0.68436585859E+02 -0.99515417427E+02  0.13865802665E+03  0.47000000000E+01 0. -1.
        -13    1    4    4    0    0  0.31823426263E+02  0.94951828666E+02  0.11664602261E+02  0.10081985505E+03  0.00000000000E+00 0.  1.
         14    1    4    4    0    0 -0.17253534944E+02 -0.45822617533E+01  0.96133145364E+01  0.20275537163E+02  0.00000000000E+00 0. -1.
         -5    1    5    5    0  502 -0.74896963705E+02 -0.66489421045E+02  0.61753333006E+02  0.11775382126E+03  0.47000000000E+01 0.  1.
         11    1    6    6    0    0 -0.93704781704E+00  0.11457329993E+02  0.45997496329E+01  0.12381686713E+02  0.00000000000E+00 0. -1.
        -12    1    6    6    0    0 -0.66849325154E+01 -0.10377406172E+03 -0.78167762677E+02  0.13009205714E+03  0.00000000000E+00 0.  1.
</event>
<event>
12    1  0.1035051E+000  0.1750783E+03  0.7818608E-02  0.1172939E+00
         21   -1    0    0  501  502  0.00000000000E+00  0.00000000000E+00  0.41780261289E+03  0.41780261289E+03  0.00000000000E+00 0.  1.
         21   -1    0    0  502  503 -0.00000000000E+00 -0.00000000000E+00 -0.12158786268E+03  0.12158786268E+03  0.00000000000E+00 0.  1.
         -6    2    1    2    0  503  0.23254628873E+02 -0.22293204930E+02  0.31849709988E+03  0.36289996059E+03  0.17093336132E+03 0.  0.
        -24    2    3    3    0    0  0.18026840813E+01 -0.78224565386E+01  0.32592299214E+03  0.33557190961E+03  0.79487541304E+02 0.  0.
          6    2    1    2  501    0 -0.23254628873E+02  0.22293204930E+02 -0.22282349671E+02  0.17649051498E+03  0.17208902934E+03 0.  0.
         24    2    5    5    0    0  0.29861982322E+02  0.20562468341E+02  0.38711313749E+02  0.95455418809E+02  0.79363833548E+02 0.  0.
          5    1    5    5  501    0 -0.53116611195E+02  0.17307365895E+01 -0.60993663420E+02  0.81035096170E+02  0.47000000000E+01 0. -1.
        -13    1    6    6    0    0  0.17408205395E+02  0.42528688386E+02  0.49900400453E+02  0.67836457132E+02  0.00000000000E+00 0.  1.
         14    1    6    6    0    0  0.12453776927E+02 -0.21966220045E+02 -0.11189086704E+02  0.27618961677E+02  0.00000000000E+00 0. -1.
         -5    1    3    3    0  503  0.21451944791E+02 -0.14470748391E+02 -0.74258922559E+01  0.27328050976E+02  0.47000000000E+01 0.  1.
         13    1    4    4    0    0  0.37410210744E+02 -0.14007815784E+02  0.11925367942E+03  0.12576638194E+03  0.00000000000E+00 0. -1.
        -14    1    4    4    0    0 -0.35607526662E+02  0.61853592453E+01  0.20666931272E+03  0.20980552768E+03  0.00000000000E+00 0.  1.
</event>
<event>
12    1  0.1035051E+000  0.2849988E+03  0.7818608E-02  0.1093058E+00
         21   -1    0    0  501  502  0.00000000000E+00  0.00000000000E+00  0.15300816273E+03  0.15300816273E+03  0.00000000000E+00 0.  1.
         21   -1    0    0  502  503 -0.00000000000E+00 -0.00000000000E+00 -0.56461907329E+03  0.56461907329E+03  0.00000000000E+00 0.  1.
         -6    2    1    2    0  503 -0.15134770578E+03  0.16886446767E+03 -0.11699576530E+03  0.30807846532E+03  0.17263544019E+03 0.  0.
        -24    2    3    3    0    0 -0.15344405584E+03  0.18217293318E+03 -0.72626661781E+02  0.26147141344E+03  0.79753446237E+02 0.  0.
          6    2    1    2  501    0  0.15134770578E+03 -0.16886446767E+03 -0.29461514525E+03  0.40954877070E+03  0.17178700558E+03 0.  0.
         24    2    5    5    0    0  0.47294429190E+02 -0.23368477422E+02 -0.54330091746E+02  0.10995710779E+03  0.79724261776E+02 0.  0.
          5    1    5    5  501    0  0.10405327659E+03 -0.14549599025E+03 -0.24028505350E+03  0.29959166291E+03  0.47000000000E+01 0. -1.
        -13    1    6    6    0    0  0.38587831611E+01 -0.30282248164E+02 -0.58286763897E+02  0.65797048619E+02  0.00000000000E+00 0.  1.
         14    1    6    6    0    0  0.43435646029E+02  0.69137707420E+01  0.39566721505E+01  0.44160059175E+02  0.00000000000E+00 0. -1.
         -5    1    3    3    0  503  0.20963500623E+01 -0.13308465511E+02 -0.44369103523E+02  0.46607051884E+02  0.47000000000E+01 0.  1.
         13    1    4    4    0    0 -0.68184777993E+02  0.11867876304E+03 -0.80897578430E+01  0.13711038228E+03  0.00000000000E+00 0. -1.
        -14    1    4    4    0    0 -0.85259277846E+02  0.63494170141E+02 -0.64536903938E+02  0.12436103116E+03  0.00000000000E+00 0.  1.
</event>
<event>
12    1  0.1035051E+000  0.1791308E+03  0.7818608E-02  0.1168803E+00
         21   -1    0    0  503  502  0.00000000000E+00  0.00000000000E+00  0.37511219157E+03  0.37511219157E+03  0.00000000000E+00 0.  1.
         21   -1    0    0  501  503 -0.00000000000E+00 -0.00000000000E+00 -0.10223835281E+03  0.10223835281E+03  0.00000000000E+00 0.  1.
          6    2    1    2  501    0  0.23242910863E+02  0.38243109517E+02  0.23396951891E+03  0.29466861481E+03  0.17345053601E+03 0.  0.
         24    2    3    3    0    0  0.17062086243E+02 -0.18444324572E+02  0.22067361817E+03  0.23592732819E+03  0.79583607214E+02 0.  0.
         -6    2    1    2    0  502 -0.23242910863E+02 -0.38243109517E+02  0.38904319846E+02  0.18268192957E+03  0.17278996776E+03 0.  0.
        -24    2    5    5    0    0 -0.26149976002E+02 -0.52087361411E+02  0.88121419179E+02  0.13125696283E+03  0.77885116092E+02 0.  0.
          5    1    3    3  501    0  0.61808246197E+01  0.56687434089E+02  0.13295900745E+02  0.58741286615E+02  0.47000000000E+01 0. -1.
        -13    1    4    4    0    0  0.72778647698E+01 -0.47979085161E+02  0.16678865278E+03  0.17370496430E+03  0.00000000000E+00 0.  1.
         14    1    4    4    0    0  0.97842214735E+01  0.29534760588E+02  0.53884965388E+02  0.62222363887E+02  0.00000000000E+00 0. -1.
         -5    1    5    5    0  502  0.29070651385E+01  0.13844251894E+02 -0.49217099334E+02  0.51424966748E+02  0.47000000000E+01 0.  1.
         11    1    6    6    0    0 -0.48747383814E+02 -0.16069080559E+02  0.30705869881E+02  0.59811146318E+02  0.00000000000E+00 0. -1.
        -12    1    6    6    0    0  0.22597407812E+02 -0.36018280852E+02  0.57415549298E+02  0.71445816509E+02  0.00000000000E+00 0.  1.
</event>
<event>
12    1  0.1449105E+000  0.1977463E+03  0.7818608E-02  0.1151906E+00
         21   -1    0    0  501  502  0.00000000000E+00  0.00000000000E+00  0.48688639438E+03  0.48688639438E+03  0.00000000000E+00 0. -1.
         21   -1    0    0  502  503 -0.00000000000E+00 -0.00000000000E+00 -0.20012290269E+03  0.20012290269E+03  0.00000000000E+00 0. -1.
         -6    2    1    2    0  503 -0.89841613573E+02  0.33216022400E+02  0.40986295796E+03  0.45507279142E+03  0.17299936853E+03 0.  0.
        -24    2    3    3    0    0  0.10047245496E+02  0.12542777176E+02  0.27020539578E+03  0.28206558953E+03  0.79320693918E+02 0.  0.
          6    2    1    2  501    0  0.89841613573E+02 -0.33216022400E+02 -0.12309946628E+03  0.23193650565E+03  0.17165734584E+03 0.  0.
         24    2    5    5    0    0  0.59450309981E+02  0.30642223429E+00  0.14270644245E+01  0.99360744372E+02  0.79599546216E+02 0.  0.
          5    1    5    5  501    0  0.30391303592E+02 -0.33522444634E+02 -0.12452653071E+03  0.13257576128E+03  0.47000000000E+01 0. -1.
        -13    1    6    6    0    0  0.34378705911E+02 -0.30511822613E+02 -0.24335441478E+02  0.52010387916E+02  0.00000000000E+00 0.  1.
         14    1    6    6    0    0  0.25071604070E+02  0.30818244847E+02  0.25762505903E+02  0.47350356455E+02  0.00000000000E+00 0. -1.
         -5    1    3    3    0  503 -0.99888859069E+02  0.20673245224E+02  0.13965756218E+03  0.17300720190E+03  0.47000000000E+01 0.  1.
         11    1    4    4    0    0  0.25735159609E+02 -0.22705349296E+02  0.67527988112E+02  0.75748666689E+02  0.00000000000E+00 0. -1.
        -12    1    4    4    0    0 -0.15687914113E+02  0.35248126472E+02  0.20267740767E+03  0.20631692284E+03  0.00000000000E+00 0.  1.
</event>
<event>
12    1  0.1035051E+000  0.1943539E+03  0.7818608E-02  0.1154850E+00
         21   -1    0    0  503  502  0.00000000000E+00  0.00000000000E+00  0.15523080015E+03  0.15523080015E+03  0.00000000000E+00 0. -1.
         21   -1    0    0  501  503 -0.00000000000E+00 -0.00000000000E+00 -0.24780156473E+03  0.24780156473E+03  0.00000000000E+00 0. -1.
          6    2    1    2  501    0  0.40245445214E+02 -0.79913584102E+02 -0.14967747530E+02  0.19375825609E+03  0.17120850315E+03 0.  0.
         24    2    3    3    0    0 -0.92617396773E+01 -0.10883097072E+03 -0.11939840342E+02  0.13615239852E+03  0.80404949015E+02 0.  0.
         -6    2    1    2    0  502 -0.40245445214E+02  0.79913584102E+02 -0.77603017048E+02  0.20927410879E+03  0.17253274347E+03 0.  0.
        -24    2    5    5    0    0 -0.42259154056E+02 -0.17766646069E+02 -0.65056786661E+02  0.11065879413E+03  0.76886236824E+02 0.  0.
          5    1    3    3  501    0  0.49507184892E+02  0.28917386615E+02 -0.30279071879E+01  0.57605857571E+02  0.47000000000E+01 0. -1.
        -13    1    4    4    0    0  0.15105321002E+02 -0.23679097633E+02 -0.34760824381E+02  0.44689879155E+02  0.00000000000E+00 0.  1.
         14    1    4    4    0    0 -0.24367060679E+02 -0.85151873084E+02  0.22820984039E+02  0.91462519364E+02  0.00000000000E+00 0. -1.
         -5    1    5    5    0  502  0.20137088416E+01  0.97680230171E+02 -0.12546230387E+02  0.98615314665E+02  0.47000000000E+01 0.  1.
         13    1    6    6    0    0 -0.74599020085E+01 -0.26224825468E+02 -0.69419247904E+02  0.74581657185E+02  0.00000000000E+00 0. -1.
        -14    1    6    6    0    0 -0.34799252047E+02  0.84581793995E+01  0.43624612440E+01  0.36077136942E+02  0.00000000000E+00 0.  1.
</event>
<event>
12    1  0.1035051E+000  0.2144050E+03  0.7818608E-02  0.1138939E+00
         21   -1    0    0  501  502  0.00000000000E+00  0.00000000000E+00  0.33138862229E+02  0.33138862229E+02  0.00000000000E+00 0.  1.
         21   -1    0    0  502  503 -0.00000000000E+00 -0.00000000000E+00 -0.14484073938E+04  0.14484073938E+04  0.00000000000E+00 0.  1.
         -6    2    1    2    0  503 -0.90544280555E+02 -0.88950201362E+02 -0.89691722559E+03  0.92218762422E+03  0.17279785777E+03 0.  0.
        -24    2    3    3    0    0 -0.56771549317E+02 -0.12717551403E+03 -0.60834874261E+03  0.62910805948E+03  0.79322995936E+02 0.  0.
          6    2    1    2  501    0  0.90544280555E+02  0.88950201362E+02 -0.51835130594E+03  0.55935863176E+03  0.16758161443E+03 0.  0.
         24    2    5    5    0    0  0.87754225138E+01 -0.75852286424E+01 -0.17466863975E+03  0.19310038894E+03  0.81511243182E+02 0.  0.
          5    1    5    5  501    0  0.81768858041E+02  0.96535430004E+02 -0.34368266619E+03  0.36625824282E+03  0.47000000000E+01 0. -1.
        -11    1    6    6    0    0  0.70905141976E+01 -0.43885448182E+02 -0.77294143822E+02  0.89166095703E+02  0.00000000000E+00 0.  1.
         12    1    6    6    0    0  0.16849083162E+01  0.36300219540E+02 -0.97374495923E+02  0.10393429324E+03  0.00000000000E+00 0. -1.
         -5    1    3    3    0  503 -0.33772731238E+02  0.38225312664E+02 -0.28856848297E+03  0.29307956474E+03  0.47000000000E+01 0. -1.
         13    1    4    4    0    0 -0.15203913389E+02 -0.57270699220E+02 -0.11780299347E+03  0.13186598213E+03  0.00000000000E+00 0. -1.
        -14    1    4    4    0    0 -0.41567635928E+02 -0.69904814806E+02 -0.49054574914E+03  0.49724207735E+03  0.00000000000E+00 0.  1.
</event>
<event>
12    1  0.1035051E+000  0.2023990E+03  0.7818608E-02  0.1147885E+00
         21   -1    0    0  501  502  0.00000000000E+00  0.00000000000E+00  0.29600758708E+03  0.29600758708E+03  0.00000000000E+00 0. -1.
         21   -1    0    0  502  503 -0.00000000000E+00 -0.00000000000E+00 -0.14492614013E+03  0.14492614013E+03  0.00000000000E+00 0. -1.
         -6    2    1    2    0  503  0.21399813509E+02 -0.10407578887E+03  0.26820505859E+02  0.20343395809E+03  0.17139519807E+03 0.  0.
        -24    2    3    3    0    0 -0.30229896153E+02 -0.10503487942E+03  0.53056001211E+02  0.14532253072E+03  0.79734096556E+02 0.  0.
          6    2    1    2  501    0 -0.21399813509E+02  0.10407578887E+03  0.12426094108E+03  0.23749976912E+03  0.17226618069E+03 0.  0.
         24    2    5    5    0    0  0.37741274508E+02  0.11071966427E+03  0.89702007335E+02  0.16851992226E+03  0.81665575488E+02 0.  0.
          5    1    5    5  501    0 -0.59141088017E+02 -0.66438753995E+01  0.34558933748E+02  0.68979846868E+02  0.47000000000E+01 0. -1.
        -11    1    6    6    0    0  0.53814005890E+01  0.92704585083E+02  0.28770795276E+02  0.97215524627E+02  0.00000000000E+00 0.  1.
         12    1    6    6    0    0  0.32359873919E+02  0.18015079186E+02  0.60931212059E+02  0.71304397629E+02  0.00000000000E+00 0. -1.
         -5    1    3    3    0  503  0.51629709662E+02  0.95909055248E+00 -0.26235495352E+02  0.58111427368E+02  0.47000000000E+01 0.  1.
         11    1    4    4    0    0 -0.39170846225E+02 -0.46138519430E+02 -0.67634678314E+01  0.60900432398E+02  0.00000000000E+00 0. -1.
        -12    1    4    4    0    0  0.89409500722E+01 -0.58896359992E+02  0.59819469043E+02  0.84422098322E+02  0.00000000000E+00 0.  1.
</event>
<event>
12    1  0.1035051E+000  0.1801765E+03  0.7818608E-02  0.1169535E+00
         21   -1    0    0  503  502  0.00000000000E+00  0.00000000000E+00  0.55477523783E+03  0.55477523783E+03  0.00000000000E+00 0. -1.
         21   -1    0    0  501  503 -0.00000000000E+00 -0.00000000000E+00 -0.13153346633E+03  0.13153346633E+03  0.00000000000E+00 0. -1.
          6    2    1    2  501    0  0.31497458611E+02  0.39048615820E+02 -0.50281658865E+02  0.17966484477E+03  0.16502826101E+03 0.  0.
         24    2    3    3    0    0  0.61442835379E+02  0.69439667099E+02 -0.61067245584E+02  0.13540695882E+03  0.77516105606E+02 0.  0.
         -6    2    1    2    0  502 -0.31497458611E+02 -0.39048615820E+02  0.47352343037E+03  0.50664385939E+03  0.17305108164E+03 0.  0.
        -24    2    5    5    0    0  0.21531297290E+02 -0.82476093240E+01  0.41122537828E+03  0.41910022314E+03  0.77505260960E+02 0.  0.
          5    1    3    3  501    0 -0.29945376767E+02 -0.30391051280E+02  0.10785586720E+02  0.44257885947E+02  0.47000000000E+01 0. -1.
        -13    1    4    4    0    0  0.21863353856E+02  0.35986010740E+02  0.13837463649E+02  0.44322394013E+02  0.00000000000E+00 0.  1.
         14    1    4    4    0    0  0.39579481523E+02  0.33453656360E+02 -0.74904709233E+02  0.91084564811E+02  0.00000000000E+00 0. -1.
         -5    1    5    5    0  502 -0.53028755901E+02 -0.30801006496E+02  0.62298052089E+02  0.87543636249E+02  0.47000000000E+01 0.  1.
         11    1    6    6    0    0  0.44686108152E+02 -0.24757422690E+02  0.29869323776E+03  0.30303040858E+03  0.00000000000E+00 0. -1.
        -12    1    6    6    0    0 -0.23154810863E+02  0.16509813366E+02  0.11253214052E+03  0.11606981456E+03  0.00000000000E+00 0.  1.
</event>
<event>
12    1  0.1035051E+000  0.1909253E+03  0.7818608E-02  0.1157838E+00
         21   -1    0    0  501  502  0.00000000000E+00  0.00000000000E+00  0.86616300926E+03  0.86616300926E+03  0.00000000000E+00 0.  1.
         21   -1    0    0  502  503 -0.00000000000E+00 -0.00000000000E+00 -0.14225758582E+03  0.14225758582E+03  0.00000000000E+00 0.  1.
         -6    2    1    2    0  503  0.61732090062E+02  0.55149415972E+02 -0.61324310660E+02  0.20053215917E+03  0.17204698997E+03 0.  0.
        -24    2    3    3    0    0  0.70152167720E+02 -0.18795362562E+02 -0.64348138482E+02  0.12589998437E+03  0.80221760442E+02 0.  0.
          6    2    1    2  501    0 -0.61732090062E+02 -0.55149415972E+02  0.78522973410E+03  0.80788843592E+03  0.17101368526E+03 0.  0.
         24    2    5    5    0    0 -0.97572072496E+02 -0.76912917930E+02  0.62958391842E+03  0.64662509756E+03  0.79449356125E+02 0.  0.
          5    1    5    5  501    0  0.35839982435E+02  0.21763501958E+02  0.15564581568E+03  0.16126333836E+03  0.47000000000E+01 0. -1.
        -13    1    6    6    0    0  0.19950327259E+01  0.10491937370E+02  0.10607901371E+03  0.10661528058E+03  0.00000000000E+00 0.  1.
         14    1    6    6    0    0 -0.99567105222E+02 -0.87404855300E+02  0.52350490471E+03  0.54000981697E+03  0.00000000000E+00 0. -1.
         -5    1    3    3    0  503 -0.84200776585E+01  0.73944778534E+02  0.30238278218E+01  0.74632174797E+02  0.47000000000E+01 0.  1.
         13    1    4    4    0    0  0.36399100763E+02 -0.91414277058E+01 -0.79307569833E+02  0.87739106843E+02  0.00000000000E+00 0. -1.
        -14    1    4    4    0    0  0.33753066957E+02 -0.96539348560E+01  0.14959431351E+02  0.38160877526E+02  0.00000000000E+00 0.  1.
</event>
<event>
12    1  0.1035051E+000  0.1922332E+03  0.7818608E-02  0.1156913E+00
         21   -1    0    0  501  502  0.00000000000E+00  0.00000000000E+00  0.50089639500E+02  0.50089639500E+02  0.00000000000E+00 0.  1.
         21   -1    0    0  502  503 -0.00000000000E+00 -0.00000000000E+00 -0.74713871468E+03  0.74713871468E+03  0.00000000000E+00 0.  1.
         -6    2    1    2    0  503 -0.28117076054E+02  0.79379855223E+02 -0.28641433272E+03  0.34382511442E+03  0.17056027656E+03 0.  0.
        -24    2    3    3    0    0 -0.75314603012E+02  0.13696209109E+02 -0.16379268710E+03  0.19685536960E+03  0.77872438149E+02 0.  0.
          6    2    1    2  501    0  0.28117076054E+02 -0.79379855223E+02 -0.41063474247E+03  0.45340323976E+03  0.17280588742E+03 0.  0.
         24    2    5    5    0    0  0.61520121706E+01 -0.62726027928E+02 -0.41292217880E+03  0.42534728924E+03  0.80269476663E+02 0.  0.
          5    1    5    5  501    0  0.21965063884E+02 -0.16653827295E+02  0.22874363312E+01  0.28055950527E+02  0.47000000000E+01 0. -1.
        -13    1    6    6    0    0 -0.28622036193E+01  0.18920343892E+02 -0.59342477468E+02  0.62351433460E+02  0.00000000000E+00 0.  1.
         14    1    6    6    0    0  0.90142157898E+01 -0.81646371819E+02 -0.35357970133E+03  0.36299585577E+03  0.00000000000E+00 0. -1.
         -5    1    3    3    0  503  0.47197526958E+02  0.65683646114E+02 -0.12262164561E+03  0.14696974481E+03  0.47000000000E+01 0.  1.
         11    1    4    4    0    0 -0.53676028274E+02  0.43198987476E+02 -0.81010865954E+02  0.10634861980E+03  0.00000000000E+00 0. -1.
        -12    1    4    4    0    0 -0.21638574738E+02 -0.29502778367E+02 -0.82781821147E+02  0.90506749807E+02  0.00000000000E+00 0.  1.
</event>
<event>
12    1  0.1035051E+000  0.3205513E+03  0.7818608E-02  0.1076054E+00
         21   -1    0    0  503  502  0.00000000000E+00  0.00000000000E+00  0.22095244954E+03  0.22095244954E+03  0.00000000000E+00 0.  1.
         21   -1    0    0  501  503 -0.00000000000E+00 -0.00000000000E+00 -0.51873303621E+03  0.51873303621E+03  0.00000000000E+00 0.  1.
          6    2    1    2  501    0  0.20105356443E+02  0.27058278145E+03 -0.27780713489E+03  0.42418149619E+03  0.17068646854E+03 0.  0.
         24    2    3    3    0    0  0.55517708901E+02  0.19384400986E+03 -0.12708013269E+03  0.25131278022E+03  0.79693395046E+02 0.  0.
         -6    2    1    2    0  502 -0.20105356443E+02 -0.27058278145E+03 -0.19973451782E+02  0.31550398956E+03  0.15976408131E+03 0.  0.
        -24    2    5    5    0    0  0.72034900125E+00 -0.27355786849E+03 -0.34986828455E+02  0.28923513672E+03  0.87169144959E+02 0.  0.
          5    1    3    3  501    0 -0.35412352458E+02  0.76738771583E+02 -0.15072700219E+03  0.17286871597E+03  0.47000000000E+01 0. -1.
        -13    1    4    4    0    0  0.64672428601E+02  0.10071633328E+03 -0.93536399339E+02  0.15190576293E+03  0.00000000000E+00 0.  1.
         14    1    4    4    0    0 -0.91547197006E+01  0.93127676580E+02 -0.33543733355E+02  0.99407017285E+02  0.00000000000E+00 0. -1.
         -5    1    5    5    0  502 -0.20825705444E+02  0.29750870433E+01  0.15013376674E+02  0.26268852835E+02  0.47000000000E+01 0.  1.
         13    1    6    6    0    0 -0.70909744911E+01 -0.13493272516E+03 -0.60534465248E+02  0.14805925747E+03  0.00000000000E+00 0. -1.
        -14    1    6    6    0    0  0.78113234923E+01 -0.13862514333E+03  0.25547636792E+02  0.14117587925E+03  0.00000000000E+00 0.  1.
</event>
<event>
12    1  0.1035051E+000  0.2297647E+03  0.7818608E-02  0.1128684E+00
         21   -1    0    0  503  502  0.00000000000E+00  0.00000000000E+00  0.61281533858E+03  0.61281533858E+03  0.00000000000E+00 0.  1.
         21   -1    0    0  501  503 -0.00000000000E+00 -0.00000000000E+00 -0.90541738345E+02  0.90541738345E+02  0.00000000000E+00 0. -1.
          6    2    1    2  501    0 -0.22805249593E+02  0.13683932896E+03  0.37276517692E+03  0.43788776749E+03  0.18315768734E+03 0.  0.
         24    2    3    3    0    0 -0.63461879852E+02  0.13550394519E+03  0.20977526615E+03  0.26983258058E+03  0.80095130309E+02 0.  0.
         -6    2    1    2    0  502  0.22805249593E+02 -0.13683932896E+03  0.14950842332E+03  0.26546930944E+03  0.16992970386E+03 0.  0.
        -24    2    5    5    0    0 -0.18343328591E+02 -0.47800392222E+02  0.10008916008E+02  0.94872298091E+02  0.79241525382E+02 0.  0.
          5    1    3    3  501    0  0.40656630259E+02  0.13353837749E+01  0.16298991076E+03  0.16805518690E+03  0.47000000000E+01 0. -1.
        -13    1    4    4    0    0  0.18697387788E+02  0.15764534714E+02  0.32459159060E+02  0.40641233639E+02  0.00000000000E+00 0.  1.
         14    1    4    4    0    0 -0.82159267640E+02  0.11973941047E+03  0.17731610709E+03  0.22919134694E+03  0.00000000000E+00 0. -1.
         -5    1    5    5    0  502  0.41148578185E+02 -0.89038936738E+02  0.13949950731E+03  0.17059701135E+03  0.47000000000E+01 0.  1.
         11    1    6    6    0    0 -0.23470153302E+02  0.13898278550E+02  0.17653418512E+02  0.32490820670E+02  0.00000000000E+00 0. -1.
        -12    1    6    6    0    0  0.51268247104E+01 -0.61698670772E+02 -0.76445025035E+01  0.62381477421E+02  0.00000000000E+00 0.  1.
</event>
<event>
12    1  0.1035051E+000  0.1758095E+03  0.7818608E-02  0.1172008E+00
         21   -1    0    0  503  502  0.00000000000E+00  0.00000000000E+00  0.49715296684E+03  0.49715296684E+03  0.00000000000E+00 0. -1.
         21   -1    0    0  501  503 -0.00000000000E+00 -0.00000000000E+00 -0.26515000749E+03  0.26515000749E+03  0.00000000000E+00 0. -1.
          6    2    1    2  501    0 -0.32828176704E+02  0.39088218890E+01 -0.21755735977E+03  0.27971450022E+03  0.17267318487E+03 0.  0.
         24    2    3    3    0    0 -0.46066115734E+02 -0.21587658429E+02 -0.22965178839E+03  0.24819182994E+03  0.79190444620E+02 0.  0.
         -6    2    1    2    0  502  0.32828176704E+02 -0.39088218890E+01  0.44956031911E+03  0.48258847411E+03  0.17232001262E+03 0.  0.
        -24    2    5    5    0    0  0.54040279107E+02 -0.12056498326E+01  0.12659237876E+03  0.15887928221E+03  0.79342237154E+02 0.  0.
          5    1    3    3  501    0  0.13237939030E+02  0.25496480318E+02  0.12094428625E+02  0.31522670289E+02  0.47000000000E+01 0. -1.
        -11    1    4    4    0    0 -0.62306360073E+02 -0.31277214668E+02 -0.13801118503E+03  0.15462028928E+03  0.00000000000E+00 0.  1.
         12    1    4    4    0    0  0.16240244339E+02  0.96895562389E+01 -0.91640603364E+02  0.93571540659E+02  0.00000000000E+00 0. -1.
         -5    1    5    5    0  502 -0.21212102403E+02 -0.27031720564E+01  0.32296794035E+03  0.32370919190E+03  0.47000000000E+01 0.  1.
         11    1    6    6    0    0  0.42521054141E+02 -0.31960132017E+02  0.10977267177E+03  0.12198167712E+03  0.00000000000E+00 0. -1.
        -12    1    6    6    0    0  0.11519224966E+02  0.30754482184E+02  0.16819706988E+02  0.36897605090E+02  0.00000000000E+00 0.  1.
</event>
<event>
12    1  0.1035051E+000  0.2836319E+03  0.7818608E-02  0.1093861E+00
         21   -1    0    0  501  502  0.00000000000E+00  0.00000000000E+00  0.21021551394E+04  0.21021551394E+04  0.00000000000E+00 0.  1.
         21   -1    0    0  502  503 -0.00000000000E+00 -0.00000000000E+00 -0.38798843415E+02  0.38798843415E+02  0.00000000000E+00 0.  1.
         -6    2    1    2    0  503  0.19254732872E+03 -0.11524148762E+03  0.11741094417E+04  0.12078824535E+04  0.17347036099E+03 0.  0.
        -24    2    3    3    0    0  0.18607932019E+03 -0.10219864364E+03  0.74801636170E+03  0.78151482606E+03  0.78529420078E+02 0.  0.
          6    2    1    2  501    0 -0.19254732872E+03  0.11524148762E+03  0.88924685430E+03  0.93307152932E+03  0.17177728801E+03 0.  0.
         24    2    5    5    0    0 -0.24473393162E+02  0.68857505437E+02  0.31879569343E+03  0.33655083516E+03  0.79343981949E+02 0.  0.
          5    1    5    5  501    0 -0.16807393556E+03  0.46383982187E+02  0.57045116087E+03  0.59652069416E+03  0.47000000000E+01 0. -1.
        -13    1    6    6    0    0 -0.87895870314E+01 -0.10156372500E+02  0.13761795769E+03  0.13827187357E+03  0.00000000000E+00 0.  1.
         14    1    6    6    0    0 -0.15683806131E+02  0.79013877937E+02  0.18117773574E+03  0.19827896159E+03  0.00000000000E+00 0. -1.
         -5    1    3    3    0  503  0.64680085349E+01 -0.13042843984E+02  0.42609308000E+03  0.42636762745E+03  0.47000000000E+01 0.  1.
         13    1    4    4    0    0  0.18041788612E+03 -0.10729491054E+03  0.74370665407E+03  0.77276283475E+03  0.00000000000E+00 0. -1.
        -14    1    4    4    0    0  0.56614340687E+01  0.50962669027E+01  0.43097076283E+01  0.87519913105E+01  0.00000000000E+00 0.  1.
</event>
<event>
12    1  0.1035051E+000  0.2417738E+03  0.7818608E-02  0.1118725E+00
         21   -1    0    0  503  502  0.00000000000E+00  0.00000000000E+00  0.72328924855E+03  0.72328924855E+03  0.00000000000E+00 0.  1.
         21   -1    0    0  501  503 -0.00000000000E+00 -0.00000000000E+00 -0.80906364402E+02  0.80906364402E+02  0.00000000000E+00 0. -1.
          6    2    1    2  501    0  0.69601152472E+00  0.16960447790E+03  0.34643651881E+03  0.42246046682E+03  0.17230328234E+03 0.  0.
         24    2    3    3    0    0  0.63024285814E+02  0.10106319758E+03  0.16455641255E+03  0.21829096876E+03  0.79914351800E+02 0.  0.
         -6    2    1    2    0  502 -0.69601152472E+00 -0.16960447790E+03  0.29594636533E+03  0.38173514613E+03  0.17138059191E+03 0.  0.
        -24    2    5    5    0    0 -0.43412422892E+01 -0.14809699516E+03  0.12517036678E+03  0.20950741549E+03  0.79209658914E+02 0.  0.
          5    1    3    3  501    0 -0.62328274289E+02  0.68541280317E+02  0.18188010627E+03  0.20416949806E+03  0.47000000000E+01 0. -1.
        -11    1    4    4    0    0  0.13028464088E+02  0.29353139676E+02  0.11149830800E+03  0.11603111812E+03  0.00000000000E+00 0.  1.
         12    1    4    4    0    0  0.49995821725E+02  0.71710057904E+02  0.53058104549E+02  0.10225985064E+03  0.00000000000E+00 0. -1.
         -5    1    5    5    0  502  0.36452307645E+01 -0.21507482739E+02  0.17077599855E+03  0.17222773064E+03  0.47000000000E+01 0.  1.
         11    1    6    6    0    0 -0.14902754490E+02  0.29034055292E+01  0.20341845797E+02  0.25383312343E+02  0.00000000000E+00 0. -1.
        -12    1    6    6    0    0  0.10561512201E+02 -0.15100040069E+03  0.10482852099E+03  0.18412410315E+03  0.00000000000E+00 0.  1.
</event>
<event>
12    1  0.1035051E+000  0.3043976E+03  0.7818608E-02  0.1083153E+00
         21   -1    0    0  503  502  0.00000000000E+00  0.00000000000E+00  0.11424652816E+03  0.11424652816E+03  0.00000000000E+00 0. -1.
         21   -1    0    0  501  503 -0.00000000000E+00 -0.00000000000E+00 -0.13224676704E+04  0.13224676704E+04  0.00000000000E+00 0.  1.
          6    2    1    2  501    0 -0.90255457687E+02 -0.23318265946E+03 -0.10512431569E+04  0.10942233479E+04  0.17231471136E+03 0.  0.
         24    2    3    3    0    0 -0.10866790471E+03 -0.10829430258E+03 -0.52191243040E+03  0.55002740161E+03  0.81247695575E+02 0.  0.
         -6    2    1    2    0  502  0.90255457687E+02  0.23318265946E+03 -0.15697798529E+03  0.34249085065E+03  0.17360211578E+03 0.  0.
        -24    2    5    5    0    0  0.57505717277E+02  0.41409638679E+02 -0.74387620541E+02  0.13108438116E+03  0.81412107202E+02 0.  0.
          5    1    3    3  501    0  0.18412447020E+02 -0.12488835687E+03 -0.52933072653E+03  0.54419594627E+03  0.47000000000E+01 0. -1.
        -13    1    4    4    0    0 -0.42740632094E+01  0.12710911667E+02 -0.51111718596E+02  0.52841675499E+02  0.00000000000E+00 0.  1.
         14    1    4    4    0    0 -0.10439384150E+03 -0.12100521425E+03 -0.47080071180E+03  0.49718572611E+03  0.00000000000E+00 0. -1.
         -5    1    5    5    0  502  0.32749740410E+02  0.19177302078E+03 -0.82590364747E+02  0.21140646949E+03  0.47000000000E+01 0.  1.
         11    1    6    6    0    0 -0.20733775969E+02  0.57478040821E+01 -0.10358579248E+02  0.23879423815E+02  0.00000000000E+00 0. -1.
        -12    1    6    6    0    0  0.78239493246E+02  0.35661834597E+02 -0.64029041293E+02  0.10720495734E+03  0.00000000000E+00 0.  1.
</event>
<event>
12    1  0.1035051E+000  0.2088526E+03  0.7818608E-02  0.1142632E+00
         21   -1    0    0  503  502  0.00000000000E+00  0.00000000000E+00  0.93605060716E+02  0.93605060716E+02  0.00000000000E+00 0.  1.
         21   -1    0    0  501  503 -0.00000000000E+00 -0.00000000000E+00 -0.84320190664E+03  0.84320190664E+03  0.00000000000E+00 0.  1.
          6    2    1    2  501    0 -0.17216102341E+02 -0.11778826702E+03 -0.61178547955E+02  0.21762867698E+03  0.17160698205E+03 0.  0.
         24    2    3    3    0    0  0.56761424236E+02 -0.66166286720E+02 -0.22247644356E+02  0.11926603904E+03  0.78291721200E+02 0.  0.
         -6    2    1    2    0  502  0.17216102341E+02  0.11778826702E+03 -0.68841829797E+03  0.71917829038E+03  0.17066689878E+03 0.  0.
        -24    2    5    5    0    0  0.59542989440E+02  0.86031107258E+02 -0.61301164203E+03  0.62693764680E+03  0.79503589210E+02 0.  0.
          5    1    3    3  501    0 -0.73977526577E+02 -0.51621980302E+02 -0.38930903599E+02  0.98362637947E+02  0.47000000000E+01 0. -1.
        -13    1    4    4    0    0 -0.10041108858E+02  0.70034946925E+01 -0.15787489088E+02  0.19977928238E+02  0.00000000000E+00 0.  1.
         14    1    4    4    0    0  0.66802533094E+02 -0.73169781412E+02 -0.64601552679E+01  0.99288110798E+02  0.00000000000E+00 0. -1.
         -5    1    5    5    0  502 -0.42326887099E+02  0.31757159764E+02 -0.75406655940E+02  0.92240643579E+02  0.47000000000E+01 0.  1.
         13    1    6    6    0    0 -0.11368332202E+02  0.49361170976E+02 -0.27504643559E+03  0.27967178247E+03  0.00000000000E+00 0. -1.
        -14    1    6    6    0    0  0.70911321642E+02  0.36669936282E+02 -0.33796520644E+03  0.34726586433E+03  0.00000000000E+00 0.  1.
</event>
<event>
12    1  0.1035051E+000  0.3306118E+03  0.7818608E-02  0.1070882E+00
         21   -1    0    0  501  502  0.00000000000E+00  0.00000000000E+00  0.32631086421E+03  0.32631086421E+03  0.00000000000E+00 0. -1.
         21   -1    0    0  502  503 -0.00000000000E+00 -0.00000000000E+00 -0.33907772157E+03  0.33907772157E+03  0.00000000000E+00 0. -1.
         -6    2    1    2    0  503  0.21591672604E+03 -0.18190598924E+03 -0.43617130618E+02  0.33347658087E+03  0.17203009736E+03 0.  0.
        -24    2    3    3    0    0  0.15150473148E+03 -0.46220714397E+02 -0.20449612390E+02  0.18142980270E+03  0.86072925815E+02 0.  0.
          6    2    1    2  501    0 -0.21591672604E+03  0.18190598924E+03  0.30850273256E+02  0.33191200491E+03  0.17176733723E+03 0.  0.
         24    2    5    5    0    0 -0.11903112075E+03  0.97735877920E+02  0.80237623785E+02  0.19431611637E+03  0.87177791148E+02 0.  0.
          5    1    5    5  501    0 -0.96885605289E+02  0.84170111316E+02 -0.49387350529E+02  0.13759588854E+03  0.47000000000E+01 0. -1.
        -13    1    6    6    0    0 -0.10305465040E+03  0.70146053265E+02  0.20130879330E+02  0.12627740122E+03  0.00000000000E+00 0.  1.
         14    1    6    6    0    0 -0.15976470353E+02  0.27589824656E+02  0.60106744455E+02  0.68038715144E+02  0.00000000000E+00 0. -1.
         -5    1    3    3    0  503  0.64411994558E+02 -0.13568527484E+03 -0.23167518229E+02  0.15204677817E+03  0.47000000000E+01 0.  1.
         13    1    4    4    0    0  0.23063456813E+01 -0.29106213366E+02  0.33124454528E+01  0.29384744032E+02  0.00000000000E+00 0. -1.
        -14    1    4    4    0    0  0.14919838580E+03 -0.17114501030E+02 -0.23762057843E+02  0.15204505866E+03  0.00000000000E+00 0.  1.
</event>
<event>
12    1  0.1035051E+000  0.2696273E+03  0.7818608E-02  0.1101808E+00
         21   -1    0    0  503  502  0.00000000000E+00  0.00000000000E+00  0.83816872023E+03  0.83816872023E+03  0.00000000000E+00 0.  1.
         21   -1    0    0  501  503 -0.00000000000E+00 -0.00000000000E+00 -0.86543448301E+02  0.86543448301E+02  0.00000000000E+00 0.  1.
          6    2    1    2  501    0 -0.17957183195E+03  0.10515893325E+03  0.34185551327E+03  0.43538957727E+03  0.17144809119E+03 0.  0.
         24    2    3    3    0    0 -0.71732523025E+02 -0.12808198935E+02  0.11915979606E+03  0.16123445095E+03  0.80547416823E+02 0.  0.
         -6    2    1    2    0  502  0.17957183195E+03 -0.10515893325E+03  0.40976975866E+03  0.48932259126E+03  0.16799077098E+03 0.  0.
        -24    2    5    5    0    0  0.16568554392E+03 -0.61511739437E+02  0.21574213287E+03  0.28990665385E+03  0.79156847455E+02 0.  0.
          5    1    3    3  501    0 -0.10783930892E+03  0.11796713219E+03  0.22269571721E+03  0.27415512632E+03  0.47000000000E+01 0. -1.
        -13    1    4    4    0    0  0.14994822372E+02 -0.10436689488E+02  0.39198581121E+02  0.43246941479E+02  0.00000000000E+00 0.  1.
         14    1    4    4    0    0 -0.86727345397E+02 -0.23715094477E+01  0.79961214935E+02  0.11798750947E+03  0.00000000000E+00 0. -1.
         -5    1    5    5    0  502  0.13886288030E+02 -0.43647193814E+02  0.19402762579E+03  0.19941593741E+03  0.47000000000E+01 0.  1.
         13    1    6    6    0    0  0.10043602853E+03 -0.25577755486E+02  0.66596441373E+02  0.12319376367E+03  0.00000000000E+00 0. -1.
        -14    1    6    6    0    0  0.65249515384E+02 -0.35933983952E+02  0.14914569149E+03  0.16671289018E+03  0.00000000000E+00 0.  1.
</event>
<event>
12    1  0.1035051E+000  0.8169821E+03  0.7818608E-02  0.9535818E-01
         21   -1    0    0  503  502  0.00000000000E+00  0.00000000000E+00  0.10630613159E+04  0.10630613159E+04  0.00000000000E+00 0. -1.
         21   -1    0    0  501  503 -0.00000000000E+00 -0.00000000000E+00 -0.62992877276E+03  0.62992877276E+03  0.00000000000E+00 0. -1.
          6    2    1    2  501    0  0.61141791830E+03 -0.51392611888E+03  0.26652720373E+03  0.85919333603E+03  0.17095178228E+03 0.  0.
         24    2    3    3    0    0  0.35028823034E+03 -0.27514034968E+03  0.81311965846E+02  0.45977609573E+03  0.79864673519E+02 0.  0.
         -6    2    1    2    0  502 -0.61141791830E+03  0.51392611888E+03  0.16660533945E+03  0.83379675267E+03  0.17177822666E+03 0.  0.
        -24    2    5    5    0    0 -0.29947103242E+03  0.32841539868E+03  0.60778130455E+02  0.45571399046E+03  0.80260118448E+02 0.  0.
          5    1    3    3  501    0  0.26112968795E+03 -0.23878576920E+03  0.18521523788E+03  0.39941724030E+03  0.47000000000E+01 0. -1.
        -13    1    4    4    0    0  0.34102783571E+03 -0.27337441852E+03  0.66334903762E+02  0.44207903918E+03  0.00000000000E+00 0.  1.
         14    1    4    4    0    0  0.92603946358E+01 -0.17659311563E+01  0.14977062085E+02  0.17697056545E+02  0.00000000000E+00 0. -1.
         -5    1    5    5    0  502 -0.31194688588E+03  0.18551072020E+03  0.10582720900E+03  0.37808276221E+03  0.47000000000E+01 0.  1.
         11    1    6    6    0    0 -0.13404093106E+03  0.19448017976E+03  0.56301085123E+02  0.24281541077E+03  0.00000000000E+00 0. -1.
        -12    1    6    6    0    0 -0.16543010135E+03  0.13393521892E+03  0.44770453322E+01  0.21289857969E+03  0.00000000000E+00 0.  1.
</event>
<event>
12    1  0.1035051E+000  0.2779023E+03  0.7818608E-02  0.1097123E+00
         21   -1    0    0  503  502  0.00000000000E+00  0.00000000000E+00  0.10406223625E+04  0.10406223625E+04  0.00000000000E+00 0. -1.
         21   -1    0    0  501  503 -0.00000000000E+00 -0.00000000000E+00 -0.11882224665E+03  0.11882224665E+03  0.00000000000E+00 0. -1.
          6    2    1    2  501    0 -0.19766646653E+02 -0.21662411503E+03  0.81720658550E+03  0.86251107963E+03  0.16965267924E+03 0.  0.
         24    2    3    3    0    0 -0.66365531991E+02 -0.16803054770E+03  0.70101016230E+03  0.72813664135E+03  0.78288390122E+02 0.  0.
         -6    2    1    2    0  502  0.19766646653E+02  0.21662411503E+03  0.10459353032E+03  0.29693352949E+03  0.17295371293E+03 0.  0.
        -24    2    5    5    0    0  0.70463935665E+02  0.11441422992E+03  0.92536179032E+02  0.18210955356E+03  0.80902180635E+02 0.  0.
          5    1    3    3  501    0  0.46598885338E+02 -0.48593567321E+02  0.11619642320E+03  0.13437443828E+03  0.47000000000E+01 0. -1.
        -11    1    4    4    0    0 -0.69369686997E+01 -0.75781792519E+02  0.41253842195E+03  0.41949845196E+03  0.00000000000E+00 0.  1.
         12    1    4    4    0    0 -0.59428563292E+02 -0.92248755185E+02  0.28847174035E+03  0.30863818939E+03  0.00000000000E+00 0. -1.
         -5    1    5    5    0  502 -0.50697289012E+02  0.10220988511E+03  0.12057351292E+02  0.11482397592E+03  0.47000000000E+01 0.  1.
         13    1    6    6    0    0 -0.61063216733E+01  0.63554475749E+02  0.48525153462E+02  0.80194445385E+02  0.00000000000E+00 0. -1.
        -14    1    6    6    0    0  0.76570257339E+02  0.50859754170E+02  0.44011025570E+02  0.10191510818E+03  0.00000000000E+00 0.  1.
</event>
<event>
12    1  0.1035051E+000  0.1833169E+03  0.7818608E-02  0.1164698E+00
         21   -1    0    0  503  502  0.00000000000E+00  0.00000000000E+00  0.52544423741E+03  0.52544423741E+03  0.00000000000E+00 0.  1.
         21   -1    0    0  501  503 -0.00000000000E+00 -0.00000000000E+00 -0.18740526083E+03  0.18740526083E+03  0.00000000000E+00 0.  1.
          6    2    1    2  501    0  0.24642264233E+02 -0.56781622066E+02 -0.12033455178E+03  0.21928403708E+03  0.17255054556E+03 0.  0.
         24    2    3    3    0    0  0.52311688739E+02 -0.96127562779E+02 -0.81729646938E+02  0.15742832772E+03  0.78274657931E+02 0.  0.
         -6    2    1    2    0  502 -0.24642264233E+02  0.56781622066E+02  0.45837352836E+03  0.49356546115E+03  0.17224743584E+03 0.  0.
        -24    2    5    5    0    0 -0.46077916216E+02  0.88723156012E+02  0.41933790634E+03  0.43855983823E+03  0.80594536050E+02 0.  0.
          5    1    3    3  501    0 -0.27669424506E+02  0.39345940713E+02 -0.38604904841E+02  0.61855709363E+02  0.47000000000E+01 0. -1.
        -13    1    4    4    0    0  0.36314291597E+02 -0.31757115517E+01 -0.40509008203E+02  0.54495804092E+02  0.00000000000E+00 0.  1.
         14    1    4    4    0    0  0.15997397142E+02 -0.92951851227E+02 -0.41220638735E+02  0.10293252362E+03  0.00000000000E+00 0. -1.
         -5    1    5    5    0  502  0.21435651983E+02 -0.31941533946E+02  0.39035622020E+02  0.55005622924E+02  0.47000000000E+01 0.  1.
         11    1    6    6    0    0 -0.18146312289E+02  0.87359127533E+02  0.37974956297E+03  0.39009054896E+03  0.00000000000E+00 0. -1.
        -12    1    6    6    0    0 -0.27931603927E+02  0.13640284795E+01  0.39588343367E+02  0.48469289268E+02  0.00000000000E+00 0.  1.
</event>
<event>
12    1  0.1035051E+000  0.1928206E+03  0.7818608E-02  0.1155977E+00
         21   -1    0    0  501  502  0.00000000000E+00  0.00000000000E+00  0.82281970253E+03  0.82281970253E+03  0.00000000000E+00 0. -1.
         21   -1    0    0  502  503 -0.00000000000E+00 -0.00000000000E+00 -0.15633304883E+03  0.15633304883E+03  0.00000000000E+00 0. -1.
         -6    2    1    2    0  503  0.86014916863E+02 -0.14300168203E+02  0.74615796796E+03  0.77066950936E+03  0.17197883234E+03 0.  0.
        -24    2    3    3    0    0 -0.15667485740E+00 -0.21891182988E+02  0.55551581793E+03  0.56126634297E+03  0.77089787542E+02 0.  0.
          6    2    1    2  501    0 -0.86014916863E+02  0.14300168203E+02 -0.79671314255E+02  0.20848324200E+03  0.17179837934E+03 0.  0.
         24    2    5    5    0    0 -0.53978207243E+02  0.46467456963E+02 -0.11027847084E+03  0.15352895860E+03  0.79604827656E+02 0.  0.
          5    1    5    5  501    0 -0.32036709619E+02 -0.32167288760E+02  0.30607156580E+02  0.54954283394E+02  0.47000000000E+01 0. -1.
        -13    1    6    6    0    0 -0.49846725159E+02  0.66641172786E+02 -0.71917413396E+02  0.10999025534E+03  0.00000000000E+00 0.  1.
         14    1    6    6    0    0 -0.41314820844E+01 -0.20173715823E+02 -0.38361057440E+02  0.43538703267E+02  0.00000000000E+00 0. -1.
         -5    1    3    3    0  503  0.86171591720E+02  0.75910147852E+01  0.19064215004E+03  0.20940316639E+03  0.47000000000E+01 0.  1.
         11    1    4    4    0    0 -0.12406929570E+01  0.12668645939E+02  0.15117237711E+02  0.19762711984E+02  0.00000000000E+00 0. -1.
        -12    1    4    4    0    0  0.10840180996E+01 -0.34559828927E+02  0.54039858022E+03  0.54150363099E+03  0.00000000000E+00 0.  1.
</event>
<event>
12    1  0.1035051E+000  0.2218234E+03  0.7818608E-02  0.1132624E+00
         21   -1    0    0  501  502  0.00000000000E+00  0.00000000000E+00  0.27763676585E+03  0.27763676585E+03  0.00000000000E+00 0. -1.
         21   -1    0    0  502  503 -0.00000000000E+00 -0.00000000000E+00 -0.37800514143E+03  0.37800514143E+03  0.00000000000E+00 0. -1.
         -6    2    1    2    0  503 -0.11942923851E+03  0.71807895995E+02 -0.28936411568E+03  0.36460557136E+03  0.17258596202E+03 0.  0.
        -24    2    3    3    0    0 -0.22832885282E+02 -0.20944209811E+02 -0.86397263103E+02  0.12139487704E+03  0.79449534449E+02 0.  0.
          6    2    1    2  501    0  0.11942923851E+03 -0.71807895995E+02  0.18899574010E+03  0.29103633591E+03  0.17193906510E+03 0.  0.
         24    2    5    5    0    0  0.46907136457E+02  0.28436525042E+02  0.94425847450E+02  0.13523532876E+03  0.79771160645E+02 0.  0.
          5    1    5    5  501    0  0.72522102056E+02 -0.10024442104E+03  0.94569892647E+02  0.15580100716E+03  0.47000000000E+01 0. -1.
        -13    1    6    6    0    0  0.43196444886E+02 -0.18382590758E+02  0.30777622296E+02  0.56134788928E+02  0.00000000000E+00 0.  1.
         14    1    6    6    0    0  0.37106915710E+01  0.46819115800E+02  0.63648225154E+02  0.79100539830E+02  0.00000000000E+00 0. -1.
         -5    1    3    3    0  503 -0.96596353231E+02  0.92752105806E+02 -0.20296685257E+03  0.24321069432E+03  0.47000000000E+01 0.  1.
         13    1    4    4    0    0  0.26235152153E+01 -0.16713338447E+02  0.11301449814E+02  0.20345546983E+02  0.00000000000E+00 0. -1.
        -14    1    4    4    0    0 -0.25456400497E+02 -0.42308713637E+01 -0.97698712917E+02  0.10104933005E+03  0.00000000000E+00 0.  1.
</event>
<event>
12    1  0.1035051E+000  0.3481154E+03  0.7818608E-02  0.1063524E+00
         21   -1    0    0  503  502  0.00000000000E+00  0.00000000000E+00  0.24140178702E+03  0.24140178702E+03  0.00000000000E+00 0.  1.
         21   -1    0    0  501  503 -0.00000000000E+00 -0.00000000000E+00 -0.50450173223E+03  0.50450173223E+03  0.00000000000E+00 0.  1.
          6    2    1    2  501    0 -0.30230857298E+03 -0.17401320372E+02 -0.97195565396E+02  0.36142952764E+03  0.17172957307E+03 0.  0.
         24    2    3    3    0    0 -0.27046076479E+03 -0.54983312887E+02 -0.47360305954E+02  0.29119896355E+03  0.79885216457E+02 0.  0.
         -6    2    1    2    0  502  0.30230857298E+03  0.17401320372E+02 -0.16590437981E+03  0.38447399162E+03  0.16912335067E+03 0.  0.
        -24    2    5    5    0    0  0.59866096144E+02  0.23817720621E+02 -0.36173382569E+02  0.10938901127E+03  0.80661074240E+02 0.  0.
          5    1    3    3  501    0 -0.31847808190E+02  0.37581992515E+02 -0.49835259442E+02  0.70230564084E+02  0.47000000000E+01 0. -1.
        -13    1    4    4    0    0 -0.54271494093E+02  0.73361265616E+01  0.16717642234E+02  0.57259875881E+02  0.00000000000E+00 0.  1.
         14    1    4    4    0    0 -0.21618927069E+03 -0.62319439449E+02 -0.64077948188E+02  0.23393908767E+03  0.00000000000E+00 0. -1.
         -5    1    5    5    0  502  0.24244247683E+03 -0.64164002495E+01 -0.12973099724E+03  0.27508498034E+03  0.47000000000E+01 0.  1.
         13    1    6    6    0    0  0.72040041406E+02  0.40106705104E+02 -0.24859497767E+02  0.86118000379E+02  0.00000000000E+00 0. -1.
        -14    1    6    6    0    0 -0.12173945261E+02 -0.16288984483E+02 -0.11313884802E+02  0.23271010894E+02  0.00000000000E+00 0.  1.
</event>
<event>
12    1  0.1035051E+000  0.2324520E+03  0.7818608E-02  0.1125017E+00
         21   -1    0    0  503  502  0.00000000000E+00  0.00000000000E+00  0.88279137687E+02  0.88279137687E+02  0.00000000000E+00 0.  1.
         21   -1    0    0  501  503 -0.00000000000E+00 -0.00000000000E+00 -0.12382943115E+04  0.12382943115E+04  0.00000000000E+00 0.  1.
          6    2    1    2  501    0 -0.15523581703E+03 -0.44742330954E+01 -0.10312362311E+03  0.25429985021E+03  0.17296171403E+03 0.  0.
         24    2    3    3    0    0 -0.59458908455E+02  0.59631724858E+02 -0.39728313861E+02  0.12267977083E+03  0.79879176535E+02 0.  0.
         -6    2    1    2    0  502  0.15523581703E+03  0.44742330954E+01 -0.10468915507E+04  0.10722735990E+04  0.17225148617E+03 0.  0.
        -24    2    5    5    0    0  0.16668761826E+03 -0.23718302138E+02 -0.71196084630E+03  0.73593057534E+03  0.79738605001E+02 0.  0.
          5    1    3    3  501    0 -0.95776908572E+02 -0.64105957953E+02 -0.63395309248E+02  0.13162007938E+03  0.47000000000E+01 0. -1.
        -13    1    4    4    0    0 -0.17265203086E+02  0.29852715058E+02 -0.58351730551E+02  0.67780500826E+02  0.00000000000E+00 0.  1.
         14    1    4    4    0    0 -0.42193705370E+02  0.29779009799E+02  0.18623416691E+02  0.54899270001E+02  0.00000000000E+00 0. -1.
         -5    1    5    5    0  502 -0.11451801236E+02  0.28192535233E+02 -0.33493070445E+03  0.33634302368E+03  0.47000000000E+01 0.  1.
         13    1    6    6    0    0  0.13723653441E+03 -0.50712101150E+02 -0.55311182670E+03  0.57213484111E+03  0.00000000000E+00 0. -1.
        -14    1    6    6    0    0  0.29451083850E+02  0.26993799012E+02 -0.15884901960E+03  0.16379573423E+03  0.00000000000E+00 0.  1.
</event>
<event>
12    1  0.1035051E+000  0.2241512E+03  0.7818608E-02  0.1130864E+00
         21   -1    0    0  503  502  0.00000000000E+00  0.00000000000E+00  0.83146283369E+02  0.83146283369E+02  0.00000000000E+00 0. -1.
         21   -1    0    0  501  503 -0.00000000000E+00 -0.00000000000E+00 -0.62662702471E+03  0.62662702471E+03  0.00000000000E+00 0. -1.
          6    2    1    2  501    0 -0.31263394930E+02 -0.13898757191E+03 -0.20399445767E+03  0.30308004659E+03  0.17305730518E+03 0.  0.
         24    2    3    3    0    0 -0.18018274720E+02 -0.47315335428E+01 -0.14806846352E+03  0.15696391515E+03  0.48645196419E+02 0.  0.
         -6    2    1    2    0  502  0.31263394930E+02  0.13898757191E+03 -0.33948628368E+03  0.40669326149E+03  0.17278173262E+03 0.  0.
        -24    2    5    5    0    0  0.55318788808E+02  0.14269409292E+03 -0.33999093201E+03  0.38189921094E+03  0.82652289257E+02 0.  0.
          5    1    3    3  501    0 -0.13245120210E+02 -0.13425603837E+03 -0.55925994144E+02  0.14611613145E+03  0.47000000000E+01 0. -1.
        -13    1    4    4    0    0 -0.62409767863E+01 -0.22933284120E+02 -0.11494434626E+03  0.11737584099E+03  0.00000000000E+00 0.  1.
         14    1    4    4    0    0 -0.11777297934E+02  0.18201750577E+02 -0.33124117260E+02  0.39588074151E+02  0.00000000000E+00 0. -1.
         -5    1    5    5    0  502 -0.24055393878E+02 -0.37065210138E+01  0.50464833011E+00  0.24794050548E+02  0.47000000000E+01 0.  1.
         13    1    6    6    0    0  0.70974953935E+02  0.84954193010E+02 -0.18277137624E+03  0.21368208855E+03  0.00000000000E+00 0. -1.
        -14    1    6    6    0    0 -0.15656165127E+02  0.57739899915E+02 -0.15721955577E+03  0.16821712239E+03  0.00000000000E+00 0.  1.
</event>
<event>
12    1  0.1035051E+000  0.2594598E+03  0.7818608E-02  0.1107847E+00
         21   -1    0    0  503  502  0.00000000000E+00  0.00000000000E+00  0.72010904423E+02  0.72010904423E+02  0.00000000000E+00 0.  1.
         21   -1    0    0  501  503 -0.00000000000E+00 -0.00000000000E+00 -0.10230443858E+04  0.10230443858E+04  0.00000000000E+00 0.  1.
          6    2    1    2  501    0  0.25497113274E+02  0.18958271430E+03 -0.30466996003E+03  0.39856035519E+03  0.17156591689E+03 0.  0.
         24    2    3    3    0    0  0.16418452939E+02  0.10077432760E+03 -0.70940945598E+02  0.14831908400E+03  0.80875844450E+02 0.  0.
         -6    2    1    2    0  502 -0.25497113274E+02 -0.18958271430E+03 -0.64636352137E+03  0.69649493505E+03  0.17529313861E+03 0.  0.
        -24    2    5    5    0    0 -0.38856530583E+02 -0.70439229374E+02 -0.16576984666E+03  0.20115059603E+03  0.80687082090E+02 0.  0.
          5    1    3    3  501    0  0.90786603352E+01  0.88808386703E+02 -0.23372901443E+03  0.25024127120E+03  0.47000000000E+01 0. -1.
        -11    1    4    4    0    0 -0.13074303560E+02  0.85365461589E+02 -0.21968330804E+02  0.89111205828E+02  0.00000000000E+00 0.  1.
         12    1    4    4    0    0  0.29492756499E+02  0.15408866013E+02 -0.48972614794E+02  0.59207878171E+02  0.00000000000E+00 0. -1.
         -5    1    5    5    0  502  0.13359417309E+02 -0.11914348493E+03 -0.48059367471E+03  0.49534433902E+03  0.47000000000E+01 0.  1.
         13    1    6    6    0    0 -0.35402229060E+02 -0.35142175456E+02 -0.15683500604E+03  0.16457675850E+03  0.00000000000E+00 0. -1.
        -14    1    6    6    0    0 -0.34543015231E+01 -0.35297053918E+02 -0.89348406142E+01  0.36573837523E+02  0.00000000000E+00 0.  1.
</event>
<event>
12    1  0.1035051E+000  0.2033065E+03  0.7818608E-02  0.1147164E+00
         21   -1    0    0  501  502  0.00000000000E+00  0.00000000000E+00  0.46035440292E+02  0.46035440292E+02  0.00000000000E+00 0. -1.
         21   -1    0    0  502  503 -0.00000000000E+00 -0.00000000000E+00 -0.11109153436E+04  0.11109153436E+04  0.00000000000E+00 0. -1.
         -6    2    1    2    0  503  0.88201582023E+02 -0.60743925889E+02 -0.27771746365E+03  0.34418093426E+03  0.17281256403E+03 0.  0.
        -24    2    3    3    0    0  0.19696316472E+02 -0.44340256732E+02 -0.51541938198E+02  0.10724315744E+03  0.80563764655E+02 0.  0.
          6    2    1    2  501    0 -0.88201582023E+02  0.60743925889E+02 -0.78716243970E+03  0.81276984967E+03  0.17175790654E+03 0.  0.
         24    2    5    5    0    0 -0.74579766053E+02  0.49329749706E+02 -0.78519933463E+03  0.79428252780E+03  0.79694247946E+02 0.  0.
          5    1    5    5  501    0 -0.13621815971E+02  0.11414176183E+02 -0.19631050625E+01  0.18487321866E+02  0.47000000000E+01 0. -1.
        -11    1    6    6    0    0 -0.62715582532E+02  0.69667886473E+02 -0.68320765898E+03  0.68960826850E+03  0.00000000000E+00 0.  1.
         12    1    6    6    0    0 -0.11864183520E+02 -0.20338136767E+02 -0.10199167565E+03  0.10467425930E+03  0.00000000000E+00 0. -1.
         -5    1    3    3    0  503  0.68505265552E+02 -0.16403669157E+02 -0.22617552545E+03  0.23693777681E+03  0.47000000000E+01 0.  1.
         11    1    4    4    0    0 -0.12769099989E+02 -0.57573922352E+02 -0.33198538663E+02  0.67675323559E+02  0.00000000000E+00 0. -1.
        -12    1    4    4    0    0  0.32465416460E+02  0.13233665620E+02 -0.18343399535E+02  0.39567833883E+02  0.00000000000E+00 0.  1.
</event>
<event>
12    1  0.1035051E+000  0.5501725E+03  0.7818608E-02  0.1001474E+00
         21   -1    0    0  501  502  0.00000000000E+00  0.00000000000E+00  0.32600616766E+03  0.32600616766E+03  0.00000000000E+00 0. -1.
         21   -1    0    0  502  503 -0.00000000000E+00 -0.00000000000E+00 -0.20565785906E+04  0.20565785906E+04  0.00000000000E+00 0. -1.
         -6    2    1    2    0  503 -0.49488321271E+03 -0.16704450770E+03  0.17374949764E+02  0.55009743579E+03  0.17173246111E+03 0.  0.
        -24    2    3    3    0    0 -0.13429868350E+03 -0.23781449889E+02 -0.26722368618E+02  0.15956937030E+03  0.78400288299E+02 0.  0.
          6    2    1    2  501    0  0.49488321271E+03  0.16704450770E+03 -0.17479473728E+04  0.18324873225E+04  0.17284822101E+03 0.  0.
         24    2    5    5    0    0  0.44067186559E+03  0.92668573269E+02 -0.14013996726E+04  0.14738955654E+04  0.75285707827E+02 0.  0.
          5    1    5    5  501    0  0.54211347123E+02  0.74375934433E+02 -0.34654770020E+03  0.35859175714E+03  0.47000000000E+01 0. -1.
        -13    1    6    6    0    0  0.93192950043E+02 -0.11153532213E+02 -0.27990251311E+03  0.29521982329E+03  0.00000000000E+00 0.  1.
         14    1    6    6    0    0  0.34747891555E+03  0.10382210548E+03 -0.11214971595E+04  0.11786757421E+04  0.00000000000E+00 0. -1.
         -5    1    3    3    0  503 -0.36058452922E+03 -0.14326305781E+03  0.44097318382E+02  0.39052806549E+03  0.47000000000E+01 0.  1.
         11    1    4    4    0    0 -0.12149833216E+03 -0.80537321673E+01 -0.47346368056E+02  0.13064603280E+03  0.00000000000E+00 0. -1.
        -12    1    4    4    0    0 -0.12800351340E+02 -0.15727717722E+02  0.20623999438E+02  0.28923337498E+02  0.00000000000E+00 0.  1.
</event>
<event>
12    1  0.1035051E+000  0.1838395E+03  0.7818608E-02  0.1167818E+00
         21   -1    0    0  503  502  0.00000000000E+00  0.00000000000E+00  0.23093922209E+02  0.23093922209E+02  0.00000000000E+00 0. -1.
         21   -1    0    0  501  503 -0.00000000000E+00 -0.00000000000E+00 -0.13776312291E+04  0.13776312291E+04  0.00000000000E+00 0. -1.
          6    2    1    2  501    0 -0.45897663098E+02 -0.16823803757E+02 -0.75368336204E+03  0.77237618779E+03  0.16166857889E+03 0.  0.
         24    2    3    3    0    0 -0.82432481608E+02 -0.13906072770E+02 -0.69602793107E+03  0.70389593635E+03  0.63451678400E+02 0.  0.
         -6    2    1    2    0  502  0.45897663098E+02  0.16823803757E+02 -0.60085394486E+03  0.62834896353E+03  0.17722110783E+03 0.  0.
        -24    2    5    5    0    0  0.40152377723E+02  0.22699491745E+02 -0.60909108909E+03  0.61580015648E+03  0.78040999206E+02 0.  0.
          5    1    3    3  501    0  0.36534818510E+02 -0.29177309877E+01 -0.57655430972E+02  0.68480251447E+02  0.47000000000E+01 0. -1.
        -11    1    4    4    0    0 -0.62727091239E+02  0.19330736777E+02 -0.47542648904E+03  0.47993615392E+03  0.00000000000E+00 0.  1.
         12    1    4    4    0    0 -0.19705390369E+02 -0.33236809546E+02 -0.22060144203E+03  0.22395978243E+03  0.00000000000E+00 0. -1.
         -5    1    5    5    0  502  0.57452853752E+01 -0.58756879877E+01  0.82371442222E+01  0.12548807047E+02  0.47000000000E+01 0.  1.
         11    1    6    6    0    0  0.24096457224E+02 -0.23170678156E+02 -0.12920745035E+03  0.13346192267E+03  0.00000000000E+00 0. -1.
        -12    1    6    6    0    0  0.16055920499E+02  0.45870169902E+02 -0.47988363874E+03  0.48233823382E+03  0.00000000000E+00 0.  1.
</event>
<event>
12    1  0.1035051E+000  0.1915974E+03  0.7818608E-02  0.1157216E+00
         21   -1    0    0  503  502  0.00000000000E+00  0.00000000000E+00  0.17320849631E+03  0.17320849631E+03  0.00000000000E+00 0.  1.
         21   -1    0    0  501  503 -0.00000000000E+00 -0.00000000000E+00 -0.23296724818E+03  0.23296724818E+03  0.00000000000E+00 0.  1.
          6    2    1    2  501    0  0.11008302385E+02  0.83178004823E+02  0.32527127651E+02  0.19351107181E+03  0.17131479117E+03 0.  0.
         24    2    3    3    0    0 -0.37101767493E+02 -0.54598486412E+01  0.29739265298E+02  0.92510526926E+02  0.79167054975E+02 0.  0.
         -6    2    1    2    0  502 -0.11008302385E+02 -0.83178004823E+02 -0.92285879525E+02  0.21266467267E+03  0.17224928515E+03 0.  0.
        -24    2    5    5    0    0  0.33124005270E+02 -0.33528983355E+01 -0.81003166349E+02  0.12063697129E+03  0.82965801582E+02 0.  0.
          5    1    3    3  501    0  0.48110069878E+02  0.88637853465E+02  0.27878623523E+01  0.10100054488E+03  0.47000000000E+01 0. -1.
        -13    1    4    4    0    0  0.11318194478E+02  0.14263433502E+02 -0.15083266471E+02  0.23644280259E+02  0.00000000000E+00 0.  1.
         14    1    4    4    0    0 -0.48419961971E+02 -0.19723282143E+02  0.44822531770E+02  0.68866246667E+02  0.00000000000E+00 0. -1.
         -5    1    5    5    0  502 -0.44132307655E+02 -0.79825106488E+02 -0.11282713176E+02  0.92027701381E+02  0.47000000000E+01 0.  1.
         11    1    6    6    0    0  0.46558276945E+02 -0.24736476455E+02 -0.23282466660E+02  0.57633667879E+02  0.00000000000E+00 0. -1.
        -12    1    6    6    0    0 -0.13434271674E+02  0.21383578119E+02 -0.57720699689E+02  0.63003303415E+02  0.00000000000E+00 0.  1.
</event>
<event>
12    1  0.1035051E+000  0.1827805E+03  0.7818608E-02  0.1165286E+00
         21   -1    0    0  501  502  0.00000000000E+00  0.00000000000E+00  0.22929365622E+03  0.22929365622E+03  0.00000000000E+00 0. -1.
         21   -1    0    0  502  503 -0.00000000000E+00 -0.00000000000E+00 -0.18085721825E+03  0.18085721825E+03  0.00000000000E+00 0. -1.
         -6    2    1    2    0  503 -0.18740260543E+02  0.61144158521E+02  0.11529683360E+03  0.21610665246E+03  0.17122768442E+03 0.  0.
        -24    2    3    3    0    0  0.38061875648E+02 -0.10105909707E+02  0.86064992023E+02  0.12029618612E+03  0.74250614503E+02 0.  0.
          6    2    1    2  501    0  0.18740260543E+02 -0.61144158521E+02 -0.66860395629E+02  0.19404422201E+03  0.17056682593E+03 0.  0.
         24    2    5    5    0    0  0.43157647264E+01 -0.64647182778E+02  0.21374706873E+02  0.10444589294E+03  0.79083388853E+02 0.  0.
          5    1    5    5  501    0  0.14424495816E+02  0.35030242576E+01 -0.88235102502E+02  0.89598329070E+02  0.47000000000E+01 0. -1.
        -13    1    6    6    0    0  0.36381693245E+02 -0.92463646837E+01  0.21068089845E+01  0.37597360377E+02  0.00000000000E+00 0.  1.
         14    1    6    6    0    0 -0.32065928518E+02 -0.55400818095E+02  0.19267897889E+02  0.66848532567E+02  0.00000000000E+00 0. -1.
         -5    1    3    3    0  503 -0.56802136191E+02  0.71250068228E+02  0.29231841574E+02  0.95810466339E+02  0.47000000000E+01 0.  1.
         13    1    4    4    0    0  0.17796254507E+02 -0.14067760519E+02  0.95091722766E+02  0.97760136554E+02  0.00000000000E+00 0. -1.
        -14    1    4    4    0    0  0.20265621142E+02  0.39618508116E+01 -0.90267307431E+01  0.22536049565E+02  0.00000000000E+00 0.  1.
</event>
<event>
12    1  0.1035051E+000  0.1855654E+03  0.7818608E-02  0.1163548E+00
         21   -1    0    0  503  502  0.00000000000E+00  0.00000000000E+00  0.13257703333E+04  0.13257703333E+04  0.00000000000E+00 0.  1.
         21   -1    0    0  501  503 -0.00000000000E+00 -0.00000000000E+00 -0.26510712950E+02  0.26510712950E+02  0.00000000000E+00 0.  1.
          6    2    1    2  501    0 -0.69985059188E+02 -0.13131543170E+02  0.78264972541E+03  0.80335454092E+03  0.16663606991E+03 0.  0.
         24    2    3    3    0    0 -0.10520182272E+02  0.44483425556E+02  0.27908750449E+03  0.29300901429E+03  0.76648534955E+02 0.  0.
         -6    2    1    2    0  502  0.69985059188E+02  0.13131543170E+02  0.51660989491E+03  0.54892650530E+03  0.17135979333E+03 0.  0.
        -24    2    5    5    0    0  0.69606368251E+02 -0.31767700385E+02  0.47453016747E+03  0.48721038958E+03  0.79629458027E+02 0.  0.
          5    1    3    3  501    0 -0.59464876916E+02 -0.57614968727E+02  0.50356222093E+03  0.51034552663E+03  0.47000000000E+01 0. -1.
        -11    1    4    4    0    0  0.24939589148E+02  0.33934115878E+02  0.21433520956E+03  0.21843326071E+03  0.00000000000E+00 0.  1.
         12    1    4    4    0    0 -0.35459771420E+02  0.10549309678E+02  0.64752294927E+02  0.74575753581E+02  0.00000000000E+00 0. -1.
         -5    1    5    5    0  502  0.37869093718E+00  0.44899243555E+02  0.42079727444E+02  0.61716115727E+02  0.47000000000E+01 0.  1.
         11    1    6    6    0    0  0.41277358801E+00  0.85203674485E+01  0.31733751624E+01  0.91015028107E+01  0.00000000000E+00 0. -1.
        -12    1    6    6    0    0  0.69193594663E+02 -0.40288067833E+02  0.47135679231E+03  0.47810888677E+03  0.00000000000E+00 0.  1.
</event>
<event>
12    1  0.1035051E+000  0.2104469E+03  0.7818608E-02  0.1141322E+00
         21   -1    0    0  503  502  0.00000000000E+00  0.00000000000E+00  0.40816176583E+03  0.40816176583E+03  0.00000000000E+00 0.  1.
         21   -1    0    0  501  503 -0.00000000000E+00 -0.00000000000E+00 -0.11001227902E+03  0.11001227902E+03  0.00000000000E+00 0.  1.
          6    2    1    2  501    0 -0.37160744760E+02  0.11537979673E+03  0.11620387917E+03  0.24039809677E+03  0.17203047681E+03 0.  0.
         24    2    3    3    0    0 -0.85458667721E+02  0.58497581306E+02  0.50430124028E+02  0.14081620755E+03  0.80999111061E+02 0.  0.
         -6    2    1    2    0  502  0.37160744760E+02 -0.11537979673E+03  0.18194560764E+03  0.27777594808E+03  0.17135301206E+03 0.  0.
        -24    2    5    5    0    0  0.53451939350E+02 -0.83007521864E+02  0.51850131342E+02  0.14264530701E+03  0.88948799794E+02 0.  0.
          5    1    3    3  501    0  0.48297922960E+02  0.56882215428E+02  0.65773755142E+02  0.99581889216E+02  0.47000000000E+01 0. -1.
        -13    1    4    4    0    0  0.20162277265E+01 -0.16260444494E+02  0.71703105834E+01  0.17885205709E+02  0.00000000000E+00 0.  1.
         14    1    4    4    0    0 -0.87474895447E+02  0.74758025800E+02  0.43259813445E+02  0.12293100184E+03  0.00000000000E+00 0. -1.
         -5    1    5    5    0  502 -0.16291194589E+02 -0.32372274870E+02  0.13009547630E+03  0.13513064107E+03  0.47000000000E+01 0.  1.
         13    1    6    6    0    0 -0.13181760436E+02 -0.46241027390E+02  0.45629303766E+02  0.66287440624E+02  0.00000000000E+00 0. -1.
        -14    1    6    6    0    0  0.66633699785E+02 -0.36766494474E+02  0.62208275759E+01  0.76357866384E+02  0.00000000000E+00 0.  1.
</event>
<event>
12    1  0.1035051E+000  0.2294462E+03  0.7818608E-02  0.1127900E+00
         21   -1    0    0  503  502  0.00000000000E+00  0.00000000000E+00  0.45569894838E+03  0.45569894838E+03  0.00000000000E+00 0. -1.
         21   -1    0    0  501  503 -0.00000000000E+00 -0.00000000000E+00 -0.37225199767E+03  0.37225199767E+03  0.00000000000E+00 0. -1.
          6    2    1    2  501    0  0.43968685549E+02  0.14454639150E+03 -0.30355100102E+03  0.38051119710E+03  0.17268079307E+03 0.  0.
         24    2    3    3    0    0  0.57527388858E+02  0.40241111960E+02 -0.77198196251E+02  0.13086922947E+03  0.78983834787E+02 0.  0.
         -6    2    1    2    0  502 -0.43968685549E+02 -0.14454639150E+03  0.38699795173E+03  0.44743974896E+03  0.16615658188E+03 0.  0.
        -24    2    5    5    0    0 -0.91659349380E+02 -0.11158870144E+03  0.27782422514E+03  0.32374010737E+03  0.82267140649E+02 0.  0.
          5    1    3    3  501    0 -0.13558703309E+02  0.10430527954E+03 -0.22635280477E+03  0.24964196763E+03  0.47000000000E+01 0. -1.
        -13    1    4    4    0    0 -0.16330655710E+01  0.30675279099E+02 -0.61769333605E+02  0.68986159662E+02  0.00000000000E+00 0.  1.
         14    1    4    4    0    0  0.59160454429E+02  0.95658328611E+01 -0.15428862646E+02  0.61883069810E+02  0.00000000000E+00 0. -1.
         -5    1    5    5    0  502  0.47690663832E+02 -0.32957690051E+02  0.10917372659E+03  0.12369964159E+03  0.47000000000E+01 0.  1.
         13    1    6    6    0    0 -0.22468765978E+02 -0.47392499053E+00  0.10254337708E+03  0.10497720816E+03  0.00000000000E+00 0. -1.
        -14    1    6    6    0    0 -0.69190583402E+02 -0.11111477645E+03  0.17528084805E+03  0.21876289921E+03  0.00000000000E+00 0.  1.
</event>
<event>
12    1  0.1035051E+000  0.1724096E+03  0.7818608E-02  0.1175400E+00
         21   -1    0    0  503  502  0.00000000000E+00  0.00000000000E+00  0.22844470616E+03  0.22844470616E+03  0.00000000000E+00 0. -1.
         21   -1    0    0  501  503 -0.00000000000E+00 -0.00000000000E+00 -0.13311622418E+03  0.13311622418E+03  0.00000000000E+00 0. -1.
          6    2    1    2  501    0 -0.18812432399E+01  0.36075856247E+01  0.75320644995E+02  0.18799426603E+03  0.17219782446E+03 0.  0.
         24    2    3    3    0    0  0.34788399534E+02  0.74261380132E+01 -0.14326337378E+02  0.90948320765E+02  0.82468011007E+02 0.  0.
         -6    2    1    2    0  502  0.18812432399E+01 -0.36075856247E+01  0.20007836987E+02  0.17356666431E+03  0.17236159569E+03 0.  0.
        -24    2    5    5    0    0 -0.68583642620E+02  0.30360515522E+01  0.77352392188E+00  0.10007185597E+03  0.72806897848E+02 0.  0.
          5    1    3    3  501    0 -0.36669642774E+02 -0.38185523885E+01  0.89646982373E+02  0.97045945264E+02  0.47000000000E+01 0. -1.
        -11    1    4    4    0    0 -0.23011839533E+02 -0.91191090741E+01 -0.18167007167E+02  0.30704121196E+02  0.00000000000E+00 0.  1.
         12    1    4    4    0    0  0.57800239067E+02  0.16545247087E+02  0.38406697884E+01  0.60244199570E+02  0.00000000000E+00 0. -1.
         -5    1    5    5    0  502  0.70464885859E+02 -0.66436371769E+01  0.19234313066E+02  0.73494808342E+02  0.47000000000E+01 0.  1.
         13    1    6    6    0    0 -0.47491520250E+02 -0.24947871358E+02 -0.22320635152E+02  0.58103799657E+02  0.00000000000E+00 0. -1.
        -14    1    6    6    0    0 -0.21092122369E+02  0.27983922910E+02  0.23094159074E+02  0.41968056314E+02  0.00000000000E+00 0.  1.
</event>
<event>
12    1  0.1035051E+000  0.2025937E+03  0.7818608E-02  0.1147831E+00
         21   -1    0    0  501  502  0.00000000000E+00  0.00000000000E+00  0.33383867154E+03  0.33383867154E+03  0.00000000000E+00 0.  1.
         21   -1    0    0  502  503 -0.00000000000E+00 -0.00000000000E+00 -0.22104823394E+03  0.22104823394E+03  0.00000000000E+00 0.  1.
         -6    2    1    2    0  503  0.49911814190E+01 -0.10484654895E+03  0.24203870076E+03  0.31563737428E+03  0.17328158776E+03 0.  0.
        -24    2    3    3    0    0  0.53347109051E+02 -0.11659247806E+03  0.19778910293E+03  0.24888125474E+03  0.79885103357E+02 0.  0.
          6    2    1    2  501    0 -0.49911814190E+01  0.10484654895E+03 -0.12924826316E+03  0.23924953121E+03  0.17180661784E+03 0.  0.
         24    2    5    5    0    0 -0.48606114654E+02  0.11568055129E+03 -0.65782249635E+02  0.16134149003E+03  0.77196034289E+02 0.  0.
          5    1    5    5  501    0  0.43614933235E+02 -0.10834002336E+02 -0.63466013524E+02  0.77908041179E+02  0.47000000000E+01 0. -1.
        -13    1    6    6    0    0  0.97449756979E+01  0.68275890265E+02 -0.48174505171E+02  0.84126955795E+02  0.00000000000E+00 0.  1.
         14    1    6    6    0    0 -0.58351090352E+02  0.47404661025E+02 -0.17607744463E+02  0.77214534236E+02  0.00000000000E+00 0. -1.
         -5    1    3    3    0  503 -0.48355927632E+02  0.11745929105E+02  0.44249597825E+02  0.66756119535E+02  0.47000000000E+01 0.  1.
         11    1    4    4    0    0 -0.27851410320E+01 -0.81443871675E+02  0.82748089656E+02  0.11613831231E+03  0.00000000000E+00 0. -1.
        -12    1    4    4    0    0  0.56132250083E+02 -0.35148606385E+02  0.11504101328E+03  0.13274294243E+03  0.00000000000E+00 0.  1.
</event>
<event>
12    1  0.1035051E+000  0.4396928E+03  0.7818608E-02  0.1030853E+00
         21   -1    0    0  501  502  0.00000000000E+00  0.00000000000E+00  0.15451250588E+03  0.15451250588E+03  0.00000000000E+00 0. -1.
         21   -1    0    0  502  503 -0.00000000000E+00 -0.00000000000E+00 -0.12573634605E+04  0.12573634605E+04  0.00000000000E+00 0. -1.
         -6    2    1    2    0  503 -0.35924544842E+03  0.18602545287E+03 -0.50024791418E+03  0.66591338060E+03  0.17184264166E+03 0.  0.
        -24    2    3    3    0    0 -0.36932004601E+03  0.16426521003E+03 -0.45102852677E+03  0.61096209506E+03  0.80421353034E+02 0.  0.
          6    2    1    2  501    0  0.35924544842E+03 -0.18602545287E+03 -0.60260304048E+03  0.74596258582E+03  0.17224109185E+03 0.  0.
         24    2    5    5    0    0  0.15419308687E+03 -0.10974619534E+03 -0.18959104689E+03  0.27855912738E+03  0.76358935033E+02 0.  0.
          5    1    5    5  501    0  0.20505236154E+03 -0.76279257538E+02 -0.41301199359E+03  0.46740345844E+03  0.47000000000E+01 0. -1.
        -11    1    6    6    0    0  0.11984199631E+03 -0.40669397822E+02 -0.10942714366E+03  0.16730332862E+03  0.00000000000E+00 0.  1.
         12    1    6    6    0    0  0.34351090564E+02 -0.69076797514E+02 -0.80163903223E+02  0.11125579876E+03  0.00000000000E+00 0. -1.
         -5    1    3    3    0  503  0.10074597597E+02  0.21760242844E+02 -0.49219387417E+02  0.54951285545E+02  0.47000000000E+01 0.  1.
         13    1    4    4    0    0 -0.12560340027E+03  0.15492165667E+02 -0.14215782408E+03  0.19032884254E+03  0.00000000000E+00 0. -1.
        -14    1    4    4    0    0 -0.24371664574E+03  0.14877304436E+03 -0.30887070269E+03  0.42063325252E+03  0.00000000000E+00 0.  1.
</event>
<event>
12    1  0.1035051E+000  0.2430990E+03  0.7818608E-02  0.1117874E+00
         21   -1    0    0  503  502  0.00000000000E+00  0.00000000000E+00  0.24736639610E+04  0.24736639610E+04  0.00000000000E+00 0.  1.
         21   -1    0    0  501  503 -0.00000000000E+00 -0.00000000000E+00 -0.91324273028E+02  0.91324273028E+02  0.00000000000E+00 0.  1.
          6    2    1    2  501    0  0.12705091127E+03 -0.11433345542E+03  0.22943491897E+04  0.23071920891E+04  0.17286717020E+03 0.  0.
         24    2    3    3    0    0 -0.56715169493E+01 -0.39080331142E+02  0.95652264019E+03  0.96068540797E+03  0.80133972316E+02 0.  0.
         -6    2    1    2    0  502 -0.12705091127E+03  0.11433345542E+03  0.87990498246E+02  0.25779614493E+03  0.17176277674E+03 0.  0.
        -24    2    5    5    0    0 -0.12063636527E+03  0.14220420628E+03  0.97125802388E+02  0.22740751324E+03  0.86634789073E+02 0.  0.
          5    1    3    3  501    0  0.13272242822E+03 -0.75253124278E+02  0.13378265495E+04  0.13465066811E+04  0.47000000000E+01 0. -1.
        -11    1    4    4    0    0 -0.21176647699E+02  0.13895229877E+02  0.53014465953E+03  0.53074936444E+03  0.00000000000E+00 0.  1.
         12    1    4    4    0    0  0.15505130750E+02 -0.52975561018E+02  0.42637798065E+03  0.42993604354E+03  0.00000000000E+00 0. -1.
         -5    1    5    5    0  502 -0.64145460024E+01 -0.27870750862E+02 -0.91353041418E+01  0.30388631687E+02  0.47000000000E+01 0.  1.
         11    1    6    6    0    0 -0.73602594050E+02  0.36767723221E+02  0.71826719123E+02  0.10921668784E+03  0.00000000000E+00 0. -1.
        -12    1    6    6    0    0 -0.47033771222E+02  0.10543648306E+03  0.25299083265E+02  0.11819082540E+03  0.00000000000E+00 0.  1.
</event>
<event>
12    1  0.1035051E+000  0.4117760E+03  0.7818608E-02  0.1039785E+00
         21   -1    0    0  501  502  0.00000000000E+00  0.00000000000E+00  0.73356323389E+03  0.73356323389E+03  0.00000000000E+00 0.  1.
         21   -1    0    0  502  503 -0.00000000000E+00 -0.00000000000E+00 -0.23472011793E+03  0.23472011793E+03  0.00000000000E+00 0.  1.
         -6    2    1    2    0  503  0.37176456902E+03 -0.45774801649E+02  0.30958345983E+03  0.51509609200E+03  0.17081521639E+03 0.  0.
        -24    2    3    3    0    0  0.37108966523E+03 -0.21243783295E+02  0.30930127832E+03  0.49010817526E+03  0.79874305771E+02 0.  0.
          6    2    1    2  501    0 -0.37176456902E+03  0.45774801649E+02  0.18925965613E+03  0.45318725981E+03  0.17104165508E+03 0.  0.
         24    2    5    5    0    0 -0.38414778852E+03  0.39247840280E+02  0.19176322601E+03  0.43821050408E+03  0.78392567530E+02 0.  0.
          5    1    5    5  501    0  0.12383219504E+02  0.65269613689E+01 -0.25035698798E+01  0.14976755728E+02  0.47000000000E+01 0. -1.
        -11    1    6    6    0    0 -0.80863094627E+02 -0.22464338426E+02  0.31168555086E+02  0.89526339140E+02  0.00000000000E+00 0.  1.
         12    1    6    6    0    0 -0.30328469390E+03  0.61712178706E+02  0.16059467092E+03  0.34868416494E+03  0.00000000000E+00 0. -1.
         -5    1    3    3    0  503  0.67490378773E+00 -0.24531018353E+02  0.28218151621E+00  0.24987916740E+02  0.47000000000E+01 0.  1.
         11    1    4    4    0    0  0.96501226069E+02  0.27704090251E+02  0.96795930266E+02  0.13946130419E+03  0.00000000000E+00 0. -1.
        -12    1    4    4    0    0  0.27458843916E+03 -0.48947873546E+02  0.21250534805E+03  0.35064687108E+03  0.00000000000E+00 0.  1.
</event>
<event>
12    1  0.1035051E+000  0.1900666E+03  0.7818608E-02  0.1158606E+00
         21   -1    0    0  501  502  0.00000000000E+00  0.00000000000E+00  0.38124986989E+03  0.38124986989E+03  0.00000000000E+00 0.  1.
         21   -1    0    0  502  503 -0.00000000000E+00 -0.00000000000E+00 -0.12032263037E+03  0.12032263037E+03  0.00000000000E+00 0.  1.
         -6    2    1    2    0  503 -0.43504301137E+02  0.65920939848E+02  0.24733078033E+03  0.31192601955E+03  0.17287895257E+03 0.  0.
        -24    2    3    3    0    0  0.48018443951E+01  0.75603940905E+02  0.23676797594E+03  0.26132061428E+03  0.80562866315E+02 0.  0.
          6    2    1    2  501    0  0.43504301137E+02 -0.65920939848E+02  0.13596459178E+02  0.18964648071E+03  0.17187998550E+03 0.  0.
         24    2    5    5    0    0  0.65073233351E+01 -0.88888199246E+02 -0.35896841211E+02  0.12355602638E+03  0.77679155653E+02 0.  0.
          5    1    5    5  501    0  0.36996977801E+02  0.22967259398E+02  0.49493300389E+02  0.66090454334E+02  0.47000000000E+01 0. -1.
        -13    1    6    6    0    0  0.32859854186E+02 -0.83055990379E+02 -0.36670830066E+02  0.96554737495E+02  0.00000000000E+00 0.  1.
         14    1    6    6    0    0 -0.26352530851E+02 -0.58322088668E+01  0.77398885502E+00  0.27001288882E+02  0.00000000000E+00 0. -1.
         -5    1    3    3    0  503 -0.48306145532E+02 -0.96830010576E+01  0.10562804397E+02  0.50605405268E+02  0.47000000000E+01 0.  1.
         11    1    4    4    0    0  0.18550856535E+02 -0.46812122256E+01  0.12848633751E+02  0.23046375319E+02  0.00000000000E+00 0. -1.
        -12    1    4    4    0    0 -0.13749012140E+02  0.80285153131E+02  0.22391934218E+03  0.23827423896E+03  0.00000000000E+00 0.  1.
</event>
<event>
12    1  0.1035051E+000  0.2171726E+03  0.7818608E-02  0.1136175E+00
         21   -1    0    0  503  502  0.00000000000E+00  0.00000000000E+00  0.28733091635E+03  0.28733091635E+03  0.00000000000E+00 0. -1.
         21   -1    0    0  501  503 -0.00000000000E+00 -0.00000000000E+00 -0.18202123255E+03  0.18202123255E+03  0.00000000000E+00 0. -1.
          6    2    1    2  501    0 -0.11286301242E+03 -0.70719358746E+02 -0.22328804758E+02  0.21744833615E+03  0.17042862464E+03 0.  0.
         24    2    3    3    0    0 -0.96830395941E+02  0.47924607005E+01 -0.38418690251E+02  0.13845432319E+03  0.91074203773E+02 0.  0.
         -6    2    1    2    0  502  0.11286301242E+03  0.70719358746E+02  0.12763848856E+03  0.25190381275E+03  0.17153617648E+03 0.  0.
        -24    2    5    5    0    0  0.49047538572E+02  0.20455452868E+02  0.13919967042E+03  0.16971728184E+03  0.81260820330E+02 0.  0.
          5    1    3    3  501    0 -0.16032616478E+02 -0.75511819446E+02  0.16089885493E+02  0.78994012953E+02  0.47000000000E+01 0. -1.
        -13    1    4    4    0    0 -0.39462364606E+02 -0.41630323356E+02 -0.54285555293E+01  0.57617976866E+02  0.00000000000E+00 0.  1.
         14    1    4    4    0    0 -0.57368031335E+02  0.46422784056E+02 -0.32990134722E+02  0.80836346328E+02  0.00000000000E+00 0. -1.
         -5    1    5    5    0  502  0.63815473847E+02  0.50263905878E+02 -0.11561181852E+02  0.82186530906E+02  0.47000000000E+01 0.  1.
         11    1    6    6    0    0  0.56100354785E+02 -0.13615364609E+02  0.60259498204E+02  0.83449596070E+02  0.00000000000E+00 0. -1.
        -12    1    6    6    0    0 -0.70528162130E+01  0.34070817477E+02  0.78940172212E+02  0.86267685775E+02  0.00000000000E+00 0.  1.
</event>
<event>
12    1  0.1035051E+000  0.2000539E+03  0.7818608E-02  0.1149809E+00
         21   -1    0    0  501  502  0.00000000000E+00  0.00000000000E+00  0.40411841963E+02  0.40411841963E+02  0.00000000000E+00 0.  1.
         21   -1    0    0  502  503 -0.00000000000E+00 -0.00000000000E+00 -0.13960555649E+04  0.13960555649E+04  0.00000000000E+00 0.  1.
         -6    2    1    2    0  503 -0.18995665113E+02  0.10036750157E+03 -0.29000128529E+03  0.35230993987E+03  0.17200894627E+03 0.  0.
        -24    2    3    3    0    0  0.16822415177E+00  0.12337258655E+03 -0.15834974835E+03  0.21721476688E+03  0.82986678069E+02 0.  0.
          6    2    1    2  501    0  0.18995665113E+02 -0.10036750157E+03 -0.10656424377E+04  0.10841574670E+04  0.17137426194E+03 0.  0.
         24    2    5    5    0    0  0.35742232748E+01 -0.69235021911E+02 -0.30395571931E+03  0.32166432011E+03  0.79199698208E+02 0.  0.
          5    1    5    5  501    0  0.15421441839E+02 -0.31132479659E+02 -0.76168671837E+03  0.76249314692E+03  0.47000000000E+01 0. -1.
        -13    1    6    6    0    0  0.15647667444E+01  0.17068848576E+02 -0.76025791746E+02  0.77934043250E+02  0.00000000000E+00 0.  1.
         14    1    6    6    0    0  0.20094565304E+01 -0.86303870487E+02 -0.22792992757E+03  0.24373027686E+03  0.00000000000E+00 0. -1.
         -5    1    3    3    0  503 -0.19163889265E+02 -0.23005084980E+02 -0.13165153694E+03  0.13509517299E+03  0.47000000000E+01 0.  1.
         13    1    4    4    0    0  0.30968859033E+02  0.11078661437E+03 -0.12907994423E+03  0.17289990213E+03  0.00000000000E+00 0. -1.
        -14    1    4    4    0    0 -0.30800634881E+02  0.12585972178E+02 -0.29269804123E+02  0.44314864754E+02  0.00000000000E+00 0.  1.
</event>
<event>
12    1  0.1035051E+000  0.2407498E+03  0.7818608E-02  0.1119312E+00
         21   -1    0    0  501  502  0.00000000000E+00  0.00000000000E+00  0.55478665223E+03  0.55478665223E+03  0.00000000000E+00 0. -1.
         21   -1    0    0  502  503 -0.00000000000E+00 -0.00000000000E+00 -0.19602663274E+03  0.19602663274E+03  0.00000000000E+00 0. -1.
         -6    2    1    2    0  503 -0.16771648587E+03  0.26204225323E+00  0.43597941352E+03  0.49798271634E+03  0.17256838776E+03 0.  0.
        -24    2    3    3    0    0 -0.61219656216E+02  0.40688552297E+02  0.30963146738E+03  0.32780113409E+03  0.78603647018E+02 0.  0.
          6    2    1    2  501    0  0.16771648587E+03 -0.26204225323E+00 -0.77219394030E+02  0.25283056863E+03  0.17271819048E+03 0.  0.
         24    2    5    5    0    0  0.11583376979E+03 -0.38185526156E+02  0.70757821539E+01  0.14672791274E+03  0.81261411828E+02 0.  0.
          5    1    5    5  501    0  0.51882716078E+02  0.37923483902E+02 -0.84295176184E+02  0.10610265589E+03  0.47000000000E+01 0. -1.
        -13    1    6    6    0    0  0.11120401126E+02 -0.11011895602E+02 -0.28779140593E+02  0.32759183434E+02  0.00000000000E+00 0.  1.
         14    1    6    6    0    0  0.10471336867E+03 -0.27173630554E+02  0.35854922747E+02  0.11396872931E+03  0.00000000000E+00 0. -1.
         -5    1    3    3    0  503 -0.10649682965E+03 -0.40426510044E+02  0.12634794614E+03  0.17018158224E+03  0.47000000000E+01 0.  1.
         13    1    4    4    0    0 -0.43880492776E+02 -0.12967461759E+02  0.88941055511E+02  0.10002081816E+03  0.00000000000E+00 0. -1.
        -14    1    4    4    0    0 -0.17339163440E+02  0.53656014056E+02  0.22069041187E+03  0.22778031593E+03  0.00000000000E+00 0.  1.
</event>
<event>
12    1  0.1215130E+000  0.1733513E+03  0.7818608E-02  0.1174808E+00
         21   -1    0    0  501  502  0.00000000000E+00  0.00000000000E+00  0.27645186194E+03  0.27645186194E+03  0.00000000000E+00 0.  1.
         21   -1    0    0  502  503 -0.00000000000E+00 -0.00000000000E+00 -0.82284591220E+03  0.82284591220E+03  0.00000000000E+00 0.  1.
         -6    2    1    2    0  503 -0.33799587843E+01  0.17948191013E+02  0.23905434879E+03  0.29529251329E+03  0.17238655704E+03 0.  0.
        -24    2    3    3    0    0 -0.35622496379E+02  0.65022986181E+02  0.11362765902E+03  0.15741734483E+03  0.79824962130E+02 0.  0.
          6    2    1    2  501    0  0.33799587843E+01 -0.17948191013E+02 -0.78544839905E+03  0.80400526086E+03  0.17076800119E+03 0.  0.
         24    2    5    5    0    0 -0.41808553669E+02 -0.35941208947E+02 -0.68839995494E+03  0.69534873387E+03  0.81090308145E+02 0.  0.
          5    1    5    5  501    0  0.45188512453E+02  0.17993017934E+02 -0.97048444109E+02  0.10865652698E+03  0.47000000000E+01 0. -1.
        -11    1    6    6    0    0 -0.52278688130E+02 -0.19292847537E+02 -0.23477677807E+03  0.24129942130E+03  0.00000000000E+00 0.  1.
         12    1    6    6    0    0  0.10470134461E+02 -0.16648361410E+02 -0.45362317687E+03  0.45404931258E+03  0.00000000000E+00 0. -1.
         -5    1    3    3    0  503  0.32242537595E+02 -0.47074795168E+02  0.12542668976E+03  0.13787516845E+03  0.47000000000E+01 0.  1.
         11    1    4    4    0    0 -0.53073638913E+02  0.40557424539E+02  0.10778296330E+03  0.12680253550E+03  0.00000000000E+00 0. -1.
        -12    1    4    4    0    0  0.17451142534E+02  0.24465561642E+02  0.58446957251E+01  0.30614809330E+02  0.00000000000E+00 0.  1.
</event>
<event>
12    1  0.1035051E+000  0.3594388E+03  0.7818608E-02  0.1058820E+00
         21   -1    0    0  503  502  0.00000000000E+00  0.00000000000E+00  0.14178367794E+04  0.14178367794E+04  0.00000000000E+00 0.  1.
         21   -1    0    0  501  503 -0.00000000000E+00 -0.00000000000E+00 -0.12839645589E+03  0.12839645589E+03  0.00000000000E+00 0.  1.
          6    2    1    2  501    0 -0.31479928130E+03  0.20441120103E+02  0.10615629335E+04  0.11207640665E+04  0.17227827508E+03 0.  0.
         24    2    3    3    0    0 -0.17522494299E+03  0.59998249743E+02  0.46527182935E+03  0.50706142407E+03  0.79560304059E+02 0.  0.
         -6    2    1    2    0  502  0.31479928130E+03 -0.20441120103E+02  0.22787739003E+03  0.42546916881E+03  0.17198686528E+03 0.  0.
        -24    2    5    5    0    0  0.24725003755E+03 -0.70181304885E+02  0.13916749325E+03  0.30328683745E+03  0.80977268193E+02 0.  0.
          5    1    3    3  501    0 -0.13957433831E+03 -0.39557129640E+02  0.59629110418E+03  0.61370264244E+03  0.47000000000E+01 0. -1.
        -11    1    4    4    0    0 -0.11431256103E+03  0.43592343953E+02  0.39059105967E+03  0.40930310279E+03  0.00000000000E+00 0.  1.
         12    1    4    4    0    0 -0.60912381955E+02  0.16405905789E+02  0.74680769679E+02  0.97758321283E+02  0.00000000000E+00 0. -1.
         -5    1    5    5    0  502  0.67549243744E+02  0.49740184782E+02  0.88709896776E+02  0.12218233137E+03  0.47000000000E+01 0.  1.
         13    1    6    6    0    0  0.10620346032E+03 -0.29905603418E+02  0.15478978496E+02  0.11141417717E+03  0.00000000000E+00 0. -1.
        -14    1    6    6    0    0  0.14104657724E+03 -0.40275701467E+02  0.12368851476E+03  0.19187266028E+03  0.00000000000E+00 0.  1.
</event>
<event>
12    1  0.1035051E+000  0.2501715E+03  0.7818608E-02  0.1113430E+00
         21   -1    0    0  501  502  0.00000000000E+00  0.00000000000E+00  0.81362948415E+03  0.81362948415E+03  0.00000000000E+00 0.  1.
         21   -1    0    0  502  503 -0.00000000000E+00 -0.00000000000E+00 -0.76546850543E+02  0.76546850543E+02  0.00000000000E+00 0.  1.
         -6    2    1    2    0  503 -0.10517411165E+03  0.14772924839E+03  0.35319796171E+03  0.43196980204E+03  0.17018691233E+03 0.  0.
        -24    2    3    3    0    0  0.66098309136E+01  0.25033818160E+02  0.12221102468E+03  0.14749331181E+03  0.78411482322E+02 0.  0.
          6    2    1    2  501    0  0.10517411165E+03 -0.14772924839E+03  0.38388467190E+03  0.45820653265E+03  0.17233763563E+03 0.  0.
         24    2    5    5    0    0  0.14036762704E+02 -0.25991301846E+02  0.94902283462E+02  0.13161955369E+03  0.86282588209E+02 0.  0.
          5    1    5    5  501    0  0.91137348944E+02 -0.12173794655E+03  0.28898238844E+03  0.32658697896E+03  0.47000000000E+01 0. -1.
        -13    1    6    6    0    0 -0.35179964253E+02 -0.22343496048E+02  0.39443495485E+02  0.57381626297E+02  0.00000000000E+00 0.  1.
         14    1    6    6    0    0  0.49216726957E+02 -0.36478057976E+01  0.55458787977E+02  0.74237927391E+02  0.00000000000E+00 0. -1.
         -5    1    3    3    0  503 -0.11178394256E+03  0.12269543023E+03  0.23098693704E+03  0.28447649023E+03  0.47000000000E+01 0.  1.
         11    1    4    4    0    0  0.24366811408E+02  0.32206682498E+02  0.12181833568E+03  0.12833829827E+03  0.00000000000E+00 0. -1.
        -12    1    4    4    0    0 -0.17756980494E+02 -0.71728643384E+01  0.39268899947E+00  0.19155013540E+02  0.00000000000E+00 0.  1.
</event>
<event>
12    1  0.1035051E+000  0.2913121E+03  0.7818608E-02  0.1089725E+00
         21   -1    0    0  501  502  0.00000000000E+00  0.00000000000E+00  0.14195539243E+03  0.14195539243E+03  0.00000000000E+00 0. -1.
         21   -1    0    0  502  503 -0.00000000000E+00 -0.00000000000E+00 -0.59901123051E+03  0.59901123051E+03  0.00000000000E+00 0. -1.
         -6    2    1    2    0  503 -0.22372453348E+03  0.73188084369E+02 -0.25077599823E+03  0.38438438428E+03  0.17162048541E+03 0.  0.
        -24    2    3    3    0    0 -0.19348969137E+03  0.11334867648E+03 -0.20353595801E+03  0.31524155937E+03  0.87545253558E+02 0.  0.
          6    2    1    2  501    0  0.22372453348E+03 -0.73188084369E+02 -0.20627983985E+03  0.35658223866E+03  0.17085185989E+03 0.  0.
         24    2    5    5    0    0  0.20948819633E+03 -0.47189172366E+02 -0.10655370651E+03  0.25243806748E+03  0.79114873137E+02 0.  0.
          5    1    5    5  501    0  0.14236337155E+02 -0.25998912003E+02 -0.99726133344E+02  0.10414417119E+03  0.47000000000E+01 0. -1.
        -13    1    6    6    0    0  0.13176009150E+03 -0.23037018648E+02 -0.10660505725E+03  0.17104404161E+03  0.00000000000E+00 0.  1.
         14    1    6    6    0    0  0.77728104828E+02 -0.24152153719E+02  0.51350741793E-01  0.81394025864E+02  0.00000000000E+00 0. -1.
         -5    1    3    3    0  503 -0.30234842109E+02 -0.40160592115E+02 -0.47240040220E+02  0.69142824909E+02  0.47000000000E+01 0.  1.
         11    1    4    4    0    0 -0.49791792625E+02  0.77938228053E+02 -0.85265252514E+02  0.12579250093E+03  0.00000000000E+00 0. -1.
        -12    1    4    4    0    0 -0.14369789875E+03  0.35410448431E+02 -0.11827070550E+03  0.18944905843E+03  0.00000000000E+00 0.  1.
</event>
<event>
12    1  0.1035051E+000  0.1961445E+03  0.7818608E-02  0.1153755E+00
         21   -1    0    0  501  502  0.00000000000E+00  0.00000000000E+00  0.10379803280E+03  0.10379803280E+03  0.00000000000E+00 0.  1.
         21   -1    0    0  502  503 -0.00000000000E+00 -0.00000000000E+00 -0.37163597482E+03  0.37163597482E+03  0.00000000000E+00 0.  1.
         -6    2    1    2    0  503 -0.82619979809E+02  0.26803448914E+02 -0.10193063373E+03  0.22104871469E+03  0.17586413573E+03 0.  0.
        -24    2    3    3    0    0 -0.47608099682E+02  0.30356017845E+02  0.15631383502E+02  0.98242483612E+02  0.78862072388E+02 0.  0.
          6    2    1    2  501    0  0.82619979809E+02 -0.26803448914E+02 -0.16590730830E+03  0.25438529293E+03  0.17216897623E+03 0.  0.
         24    2    5    5    0    0  0.23597174065E+02 -0.48782312644E+02 -0.16565307823E+03  0.19122742183E+03  0.78679373941E+02 0.  0.
          5    1    5    5  501    0  0.59022805744E+02  0.21978863730E+02 -0.25423007169E+00  0.63157871099E+02  0.47000000000E+01 0. -1.
        -13    1    6    6    0    0  0.25361360513E+02 -0.37327693720E+02 -0.17213224325E+03  0.17794961223E+03  0.00000000000E+00 0.  1.
         14    1    6    6    0    0 -0.17641864485E+01 -0.11454618924E+02  0.64791650226E+01  0.13277809605E+02  0.00000000000E+00 0. -1.
         -5    1    3    3    0  503 -0.35011880128E+02 -0.35525689308E+01 -0.11756201723E+03  0.12280623108E+03  0.47000000000E+01 0.  1.
         13    1    4    4    0    0 -0.72129638621E+01 -0.84975788975E+01 -0.26089794274E+02  0.28370989762E+02  0.00000000000E+00 0. -1.
        -14    1    4    4    0    0 -0.40395135820E+02  0.38853596742E+02  0.41721177777E+02  0.69871493850E+02  0.00000000000E+00 0.  1.
</event>
<event>
12    1  0.1035051E+000  0.2625322E+03  0.7818608E-02  0.1105974E+00
         21   -1    0    0  501  502  0.00000000000E+00  0.00000000000E+00  0.64173236160E+02  0.64173236160E+02  0.00000000000E+00 0. -1.
         21   -1    0    0  502  503 -0.00000000000E+00 -0.00000000000E+00 -0.10786941205E+04  0.10786941205E+04  0.00000000000E+00 0. -1.
         -6    2    1    2    0  503  0.19690064668E+03  0.23231705950E+02 -0.44424327309E+03  0.51601862259E+03  0.17208589816E+03 0.  0.
        -24    2    3    3    0    0  0.82724009997E+02  0.51355430177E+02 -0.32501935988E+03  0.34849644582E+03  0.79571014902E+02 0.  0.
          6    2    1    2  501    0 -0.19690064668E+03 -0.23231705950E+02 -0.57027761126E+03  0.62684873408E+03  0.16856216864E+03 0.  0.
         24    2    5    5    0    0 -0.13117440616E+03 -0.56205641974E+02 -0.49499908427E+03  0.52151039456E+03  0.81136916240E+02 0.  0.
          5    1    5    5  501    0 -0.65726240514E+02  0.32973936024E+02 -0.75278526985E+02  0.10533833953E+03  0.47000000000E+01 0. -1.
        -11    1    6    6    0    0 -0.95905820099E+02  0.18195138602E+00 -0.32867157262E+03  0.34237839021E+03  0.00000000000E+00 0.  1.
         12    1    6    6    0    0 -0.35268586065E+02 -0.56387593360E+02 -0.16632751166E+03  0.17913200435E+03  0.00000000000E+00 0. -1.
         -5    1    3    3    0  503  0.11417663668E+03 -0.28123724228E+02 -0.11922391321E+03  0.16752217677E+03  0.47000000000E+01 0.  1.
         13    1    4    4    0    0  0.20000293342E+01  0.44701167410E+02 -0.11453549548E+03  0.12296574405E+03  0.00000000000E+00 0. -1.
        -14    1    4    4    0    0  0.80723980662E+02  0.66542627679E+01 -0.21048386440E+03  0.22553070176E+03  0.00000000000E+00 0.  1.
</event>
<event>
12    1  0.1035051E+000  0.2459411E+03  0.7818608E-02  0.1116025E+00
         21   -1    0    0  501  502  0.00000000000E+00  0.00000000000E+00  0.68301091843E+02  0.68301091843E+02  0.00000000000E+00 0.  1.
         21   -1    0    0  502  503 -0.00000000000E+00 -0.00000000000E+00 -0.91069934238E+03  0.91069934238E+03  0.00000000000E+00 0.  1.
         -6    2    1    2    0  503 -0.10343481106E+03 -0.14227953804E+03 -0.50760047264E+03  0.56404367328E+03  0.17188600423E+03 0.  0.
        -24    2    3    3    0    0 -0.36840294060E+02 -0.27458833983E+02 -0.32864229430E+03  0.34118330585E+03  0.79303819300E+02 0.  0.
          6    2    1    2  501    0  0.10343481106E+03  0.14227953804E+03 -0.33479777789E+03  0.41495676094E+03  0.17075518818E+03 0.  0.
         24    2    5    5    0    0 -0.10746379067E+02  0.78355957189E+02 -0.13390833126E+03  0.17516053884E+03  0.80589282763E+02 0.  0.
          5    1    5    5  501    0  0.11418119012E+03  0.63923580852E+02 -0.20088944663E+03  0.23979622210E+03  0.47000000000E+01 0. -1.
        -13    1    6    6    0    0 -0.67832490845E+01  0.82071797824E+02 -0.62086499455E+02  0.10313353422E+03  0.00000000000E+00 0.  1.
         14    1    6    6    0    0 -0.39631299827E+01 -0.37158406352E+01 -0.71821831802E+02  0.72027004619E+02  0.00000000000E+00 0. -1.
         -5    1    3    3    0  503 -0.66594516997E+02 -0.11482070406E+03 -0.17895817834E+03  0.22286036743E+03  0.47000000000E+01 0.  1.
         11    1    4    4    0    0 -0.49043841001E+02 -0.47333847287E+02 -0.25362937022E+03  0.26262834744E+03  0.00000000000E+00 0. -1.
        -12    1    4    4    0    0  0.12203546941E+02  0.19875013304E+02 -0.75012924077E+02  0.78554958407E+02  0.00000000000E+00 0.  1.
</event>
<event>
12    1  0.1035051E+000  0.2739881E+03  0.7818608E-02  0.1099119E+00
         21   -1    0    0  501  502  0.00000000000E+00  0.00000000000E+00  0.18267218546E+04  0.18267218546E+04  0.00000000000E+00 0. -1.
         21   -1    0    0  502  503 -0.00000000000E+00 -0.00000000000E+00 -0.53282080032E+02  0.53282080032E+02  0.00000000000E+00 0. -1.
         -6    2    1    2    0  503  0.19694080003E+03  0.81394986597E+02  0.13373529881E+04  0.13649882598E+04  0.17108217951E+03 0.  0.
        -24    2    3    3    0    0  0.19444140036E+03  0.10413480049E+03  0.10143078649E+04  0.10411000264E+04  0.80108085248E+02 0.  0.
          6    2    1    2  501    0 -0.19694080003E+03 -0.81394986597E+02  0.43608678652E+03  0.51501567485E+03  0.17221683252E+03 0.  0.
         24    2    5    5    0    0 -0.10564077690E+03 -0.24051492079E+02  0.35388390410E+03  0.37935663732E+03  0.83301816769E+02 0.  0.
          5    1    5    5  501    0 -0.91300023129E+02 -0.57343494517E+02  0.82202882417E+02  0.13565903753E+03  0.47000000000E+01 0. -1.
        -11    1    6    6    0    0 -0.12021409775E+02  0.21094939749E+02  0.26832213779E+02  0.36186716793E+02  0.00000000000E+00 0.  1.
         12    1    6    6    0    0 -0.93619367126E+02 -0.45146431828E+02  0.32705169032E+03  0.34316992052E+03  0.00000000000E+00 0. -1.
         -5    1    3    3    0  503  0.24993996660E+01 -0.22739813891E+02  0.32304512317E+03  0.32388823341E+03  0.47000000000E+01 0.  1.
         11    1    4    4    0    0  0.93103396674E+02  0.90036922777E+02  0.48510087985E+03  0.50209337136E+03  0.00000000000E+00 0. -1.
        -12    1    4    4    0    0  0.10133800369E+03  0.14097877712E+02  0.52920698503E+03  0.53900665502E+03  0.00000000000E+00 0.  1.
</event>
<event>
12    1  0.1035051E+000  0.2715571E+03  0.7818608E-02  0.1100615E+00
         21   -1    0    0  501  502  0.00000000000E+00  0.00000000000E+00  0.11431802268E+03  0.11431802268E+03  0.00000000000E+00 0.  1.
         21   -1    0    0  502  503 -0.00000000000E+00 -0.00000000000E+00 -0.10022646176E+04  0.10022646176E+04  0.00000000000E+00 0.  1.
         -6    2    1    2    0  503 -0.49735788502E+02  0.20653673639E+03 -0.10977583767E+03  0.29290611479E+03  0.16915136834E+03 0.  0.
        -24    2    3    3    0    0  0.29355983040E+02  0.11157648216E+03 -0.28338522922E+02  0.14482814735E+03  0.82831366475E+02 0.  0.
          6    2    1    2  501    0  0.49735788502E+02 -0.20653673639E+03 -0.77817075727E+03  0.82367652551E+03  0.16661998401E+03 0.  0.
         24    2    5    5    0    0  0.98247206165E+01 -0.19774376122E+03 -0.72985315245E+03  0.76021873885E+03  0.77767515862E+02 0.  0.
          5    1    5    5  501    0  0.39911067886E+02 -0.87929751626E+01 -0.48317604817E+02  0.63457786656E+02  0.47000000000E+01 0. -1.
        -13    1    6    6    0    0  0.29570068904E+02 -0.12228783719E+03 -0.54956554352E+03  0.56378275135E+03  0.00000000000E+00 0.  1.
         14    1    6    6    0    0 -0.19745348287E+02 -0.75455924037E+02 -0.18028760893E+03  0.19643598750E+03  0.00000000000E+00 0. -1.
         -5    1    3    3    0  503 -0.79091771543E+02  0.94960254228E+02 -0.81437314750E+02  0.14807796744E+03  0.47000000000E+01 0.  1.
         13    1    4    4    0    0 -0.15390495350E+02  0.45964097672E+02 -0.42129003175E+02  0.64221635999E+02  0.00000000000E+00 0. -1.
        -14    1    4    4    0    0  0.44746478391E+02  0.65612384487E+02  0.13790480253E+02  0.80606511350E+02  0.00000000000E+00 0.  1.
</event>
<event>
12    1  0.1035051E+000  0.2063148E+03  0.7818608E-02  0.1144931E+00
         21   -1    0    0  503  502  0.00000000000E+00  0.00000000000E+00  0.30557925185E+03  0.30557925185E+03  0.00000000000E+00 0.  1.
         21   -1    0    0  501  503 -0.00000000000E+00 -0.00000000000E+00 -0.14792461653E+03  0.14792461653E+03  0.00000000000E+00 0.  1.
          6    2    1    2  501    0  0.57834449863E+02  0.94524919034E+02  0.13740663491E+03  0.24619790584E+03  0.17161888477E+03 0.  0.
         24    2    3    3    0    0 -0.58938129875E+01 -0.35419288918E+01  0.26353051987E+02  0.84849257163E+02  0.80359385265E+02 0.  0.
         -6    2    1    2    0  502 -0.57834449863E+02 -0.94524919034E+02  0.20248000405E+02  0.20730596254E+03  0.17402872371E+03 0.  0.
        -24    2    5    5    0    0  0.17764155261E+02 -0.10437214097E+03  0.54124673781E+01  0.12949658061E+03  0.74370428019E+02 0.  0.
          5    1    3    3  501    0  0.63728262850E+02  0.98066847926E+02  0.11105358293E+03  0.16134864867E+03  0.47000000000E+01 0. -1.
        -11    1    4    4    0    0 -0.81348479117E+01  0.16409083055E+02  0.50340630539E+02  0.53568767396E+02  0.00000000000E+00 0.  1.
         12    1    4    4    0    0  0.22410349242E+01 -0.19951011947E+02 -0.23987578552E+02  0.31280489766E+02  0.00000000000E+00 0. -1.
         -5    1    5    5    0  502 -0.75598605124E+02  0.98472219369E+01  0.14835533027E+02  0.77809381933E+02  0.47000000000E+01 0.  1.
         13    1    6    6    0    0 -0.20371001246E+02 -0.63971252582E+01  0.11374465863E+02  0.24192547964E+02  0.00000000000E+00 0. -1.
        -14    1    6    6    0    0  0.38135156507E+02 -0.97975015713E+02 -0.59619984849E+01  0.10530403265E+03  0.00000000000E+00 0.  1.
</event>
<event>
12    1  0.1035051E+000  0.1741778E+03  0.7818608E-02  0.1173695E+00
         21   -1    0    0  503  502  0.00000000000E+00  0.00000000000E+00  0.22887879681E+02  0.22887879681E+02  0.00000000000E+00 0.  1.
         21   -1    0    0  501  503 -0.00000000000E+00 -0.00000000000E+00 -0.14220010876E+04  0.14220010876E+04  0.00000000000E+00 0.  1.
          6    2    1    2  501    0  0.22508191048E+02  0.27891813224E+01 -0.50843218448E+03  0.53743946641E+03  0.17269480491E+03 0.  0.
         24    2    3    3    0    0  0.80897552177E+02 -0.10081745557E+02 -0.31583665865E+03  0.33572158217E+03  0.79436328258E+02 0.  0.
         -6    2    1    2    0  502 -0.22508191048E+02 -0.27891813224E+01 -0.89068102346E+03  0.90744950089E+03  0.17215549053E+03 0.  0.
        -24    2    5    5    0    0  0.20335864000E+02 -0.63043863629E+02 -0.49613274426E+03  0.50600626155E+03  0.74206203888E+02 0.  0.
          5    1    3    3  501    0 -0.58389361128E+02  0.12870926879E+02 -0.19259552583E+03  0.20171788424E+03  0.47000000000E+01 0. -1.
        -13    1    4    4    0    0  0.43699832665E+02  0.33647124621E+02 -0.12989071511E+03  0.14111485479E+03  0.00000000000E+00 0.  1.
         14    1    4    4    0    0  0.37197719512E+02 -0.43728870178E+02 -0.18594594353E+03  0.19460672738E+03  0.00000000000E+00 0. -1.
         -5    1    5    5    0  502 -0.42844055049E+02  0.60254682307E+02 -0.39454827920E+03  0.40144323934E+03  0.47000000000E+01 0.  1.
         11    1    6    6    0    0  0.30887056033E+02  0.24257287092E+01 -0.11269084908E+03  0.11687224588E+03  0.00000000000E+00 0. -1.
        -12    1    6    6    0    0 -0.10551192033E+02 -0.65469592338E+02 -0.38344189518E+03  0.38913401567E+03  0.00000000000E+00 0.  1.
</event>
<event>
12    1  0.1035051E+000  0.2759099E+03  0.7818608E-02  0.1098095E+00
         21   -1    0    0  501  502  0.00000000000E+00  0.00000000000E+00  0.40117261988E+03  0.40117261988E+03  0.00000000000E+00 0.  1.
         21   -1    0    0  502  503 -0.00000000000E+00 -0.00000000000E+00 -0.20068102037E+03  0.20068102037E+03  0.00000000000E+00 0.  1.
         -6    2    1    2    0  503  0.86175354953E+02  0.19893819151E+03  0.17261560051E+03  0.32453914875E+03  0.16889913467E+03 0.  0.
        -24    2    3    3    0    0  0.93889866725E+02  0.67051386047E+02  0.10832466870E+03  0.17753895467E+03  0.80465216908E+02 0.  0.
          6    2    1    2  501    0 -0.86175354953E+02 -0.19893819151E+03  0.27875999000E+02  0.27731449150E+03  0.17065655579E+03 0.  0.
         24    2    5    5    0    0  0.34958780690E+01 -0.32596516888E+02  0.15961803995E+02  0.87908787285E+02  0.79990134506E+02 0.  0.
          5    1    5    5  501    0 -0.89671233022E+02 -0.16634167462E+03  0.11914195005E+02  0.18940570422E+03  0.47000000000E+01 0. -1.
        -11    1    6    6    0    0 -0.15303013306E+02  0.36982235110E+01  0.38242448616E+02  0.41356304834E+02  0.00000000000E+00 0.  1.
         12    1    6    6    0    0  0.18798891375E+02 -0.36294740399E+02 -0.22280644621E+02  0.46552482451E+02  0.00000000000E+00 0. -1.
         -5    1    3    3    0  503 -0.77145117722E+01  0.13188680546E+03  0.64290931809E+02  0.14700019408E+03  0.47000000000E+01 0.  1.
         11    1    4    4    0    0  0.25462166435E+02  0.31299521354E+02  0.89348637153E+02  0.98036528487E+02  0.00000000000E+00 0. -1.
        -12    1    4    4    0    0  0.68427700290E+02  0.35751864693E+02  0.18976031548E+02  0.79502426185E+02  0.00000000000E+00 0.  1.
</event>
<event>
12    1  0.1035051E+000  0.1910339E+03  0.7818608E-02  0.1161459E+00
         21   -1    0    0  503  502  0.00000000000E+00  0.00000000000E+00  0.34231983297E+02  0.34231983297E+02  0.00000000000E+00 0. -1.
         21   -1    0    0  501  503 -0.00000000000E+00 -0.00000000000E+00 -0.12271935805E+04  0.12271935805E+04  0.00000000000E+00 0. -1.
          6    2    1    2  501    0 -0.35423215106E+02 -0.58598808501E+02 -0.28909108396E+03  0.33758799640E+03  0.16032272442E+03 0.  0.
         24    2    3    3    0    0 -0.46621112579E+02  0.15532250333E+02 -0.12976775270E+03  0.16144367866E+03  0.82520378084E+02 0.  0.
         -6    2    1    2    0  502  0.35423215106E+02  0.58598808501E+02 -0.90387051327E+03  0.92383756742E+03  0.17834046565E+03 0.  0.
        -24    2    5    5    0    0  0.29810771579E+02  0.79424828986E+02 -0.88919624131E+03  0.89733007962E+03  0.85640706896E+02 0.  0.
          5    1    3    3  501    0  0.11197897473E+02 -0.74131058833E+02 -0.15932333126E+03  0.17614431775E+03  0.47000000000E+01 0. -1.
        -11    1    4    4    0    0 -0.11687424889E+01  0.40252273651E+00 -0.10937072085E+03  0.10937770596E+03  0.00000000000E+00 0.  1.
         12    1    4    4    0    0 -0.45452370090E+02  0.15129727596E+02 -0.20397031851E+02  0.52065972691E+02  0.00000000000E+00 0. -1.
         -5    1    5    5    0  502  0.56124435272E+01 -0.20826020486E+02 -0.14674271963E+02  0.26507487796E+02  0.47000000000E+01 0.  1.
         13    1    6    6    0    0  0.47052327715E+02  0.89007334115E+02 -0.75892682913E+03  0.76557570432E+03  0.00000000000E+00 0. -1.
        -14    1    6    6    0    0 -0.17241556136E+02 -0.95825051287E+01 -0.13026941217E+03  0.13175437530E+03  0.00000000000E+00 0.  1.
</event>
<event>
12    1  0.1097367E+000  0.3145346E+03  0.7818608E-02  0.1078244E+00
         21   -1    0    0  501  502  0.00000000000E+00  0.00000000000E+00  0.42866181435E+03  0.42866181435E+03  0.00000000000E+00 0. -1.
         21   -1    0    0  502  503 -0.00000000000E+00 -0.00000000000E+00 -0.11060743166E+04  0.11060743166E+04  0.00000000000E+00 0.  1.
         -6    2    1    2    0  503  0.29571649048E+02 -0.26099499655E+03  0.34399960170E+03  0.46611989534E+03  0.17302936227E+03 0.  0.
        -24    2    3    3    0    0 -0.13867942242E+02 -0.22542411224E+03  0.33046936296E+03  0.40817644650E+03  0.79935357799E+02 0.  0.
          6    2    1    2  501    0 -0.29571649048E+02  0.26099499655E+03 -0.10214121040E+04  0.10686162356E+04  0.17223560105E+03 0.  0.
         24    2    5    5    0    0  0.15619899334E+02  0.53539521821E+02 -0.23480601569E+03  0.25384554510E+03  0.78697103558E+02 0.  0.
          5    1    5    5  501    0 -0.45191548382E+02  0.20745547473E+03 -0.78660608829E+03  0.81477069054E+03  0.47000000000E+01 0. -1.
        -13    1    6    6    0    0  0.44246690347E+02  0.12545409756E+02 -0.12497998742E+03  0.13317339888E+03  0.00000000000E+00 0.  1.
         14    1    6    6    0    0 -0.28626791012E+02  0.40994112066E+02 -0.10982602827E+03  0.12067214622E+03  0.00000000000E+00 0. -1.
         -5    1    3    3    0  503  0.43439591290E+02 -0.35570884316E+02  0.13530238743E+02  0.57943448835E+02  0.47000000000E+01 0.  1.
         13    1    4    4    0    0  0.23686348257E+02 -0.37091449197E+02  0.92084878215E+02  0.10206097929E+03  0.00000000000E+00 0. -1.
        -14    1    4    4    0    0 -0.37554290499E+02 -0.18833266304E+03  0.23838448474E+03  0.30611546722E+03  0.00000000000E+00 0.  1.
</event>
<event>
12    1  0.1035051E+000  0.2163183E+03  0.7818608E-02  0.1136691E+00
         21   -1    0    0  503  502  0.00000000000E+00  0.00000000000E+00  0.25609871989E+03  0.25609871989E+03  0.00000000000E+00 0. -1.
         21   -1    0    0  501  503 -0.00000000000E+00 -0.00000000000E+00 -0.18310949526E+03  0.18310949526E+03  0.00000000000E+00 0. -1.
          6    2    1    2  501    0  0.13114128589E+03  0.43785285271E+01  0.24564882467E+02  0.21753610823E+03  0.17175947297E+03 0.  0.
         24    2    3    3    0    0  0.29595355490E+02  0.17480127498E+02 -0.41208390717E+02  0.95751703063E+02  0.79302063340E+02 0.  0.
         -6    2    1    2    0  502 -0.13114128589E+03 -0.43785285271E+01  0.48424342169E+02  0.22167210692E+03  0.17197789885E+03 0.  0.
        -24    2    5    5    0    0 -0.64489281474E+02 -0.10624612920E+02 -0.38847106783E+02  0.11158169378E+03  0.81667783468E+02 0.  0.
          5    1    3    3  501    0  0.10154593040E+03 -0.13101598971E+02  0.65773273184E+02  0.12178440517E+03  0.47000000000E+01 0. -1.
        -11    1    4    4    0    0 -0.26710091868E+02  0.71532869325E+01 -0.22113686423E+02  0.35406406888E+02  0.00000000000E+00 0.  1.
         12    1    4    4    0    0  0.56305447358E+02  0.10326840566E+02 -0.19094704295E+02  0.60345296174E+02  0.00000000000E+00 0. -1.
         -5    1    5    5    0  502 -0.66652004417E+02  0.62460843927E+01  0.87271448953E+02  0.11009041314E+03  0.47000000000E+01 0.  1.
         13    1    6    6    0    0 -0.40403883565E+01 -0.29411426016E+02  0.10318942422E+02  0.31429878954E+02  0.00000000000E+00 0. -1.
        -14    1    6    6    0    0 -0.60448893117E+02  0.18786813096E+02 -0.49166049205E+02  0.80151814825E+02  0.00000000000E+00 0.  1.
</event>
<event>
12    1  0.1035051E+000  0.2370362E+03  0.7818608E-02  0.1122026E+00
         21   -1    0    0  503  502  0.00000000000E+00  0.00000000000E+00  0.16527028597E+03  0.16527028597E+03  0.00000000000E+00 0.  1.
         21   -1    0    0  501  503 -0.00000000000E+00 -0.00000000000E+00 -0.34043205062E+03  0.34043205062E+03  0.00000000000E+00 0.  1.
          6    2    1    2  501    0  0.10690462387E+03  0.12184959482E+03 -0.65583851453E+02  0.24456351583E+03  0.17097996766E+03 0.  0.
         24    2    3    3    0    0  0.87974569403E+02  0.17967846824E+02 -0.24444748255E+01  0.12144391784E+03  0.81732988090E+02 0.  0.
         -6    2    1    2    0  502 -0.10690462387E+03 -0.12184959482E+03 -0.10957791319E+03  0.26113882076E+03  0.17294577846E+03 0.  0.
        -24    2    5    5    0    0 -0.26944338312E+02 -0.13061889329E+03 -0.81309826820E+02  0.17574723704E+03  0.80551292595E+02 0.  0.
          5    1    3    3  501    0  0.18930054467E+02  0.10388174799E+03 -0.63139376627E+02  0.12311959799E+03  0.47000000000E+01 0. -1.
        -11    1    4    4    0    0  0.60072621644E+02  0.57449926354E+01  0.37621285954E+02  0.71113191241E+02  0.00000000000E+00 0.  1.
         12    1    4    4    0    0  0.27901947759E+02  0.12222854188E+02 -0.40065760779E+02  0.50330726600E+02  0.00000000000E+00 0. -1.
         -5    1    5    5    0  502 -0.79960285558E+02  0.87692984791E+01 -0.28268086373E+02  0.85391583716E+02  0.47000000000E+01 0.  1.
         13    1    6    6    0    0  0.87428051450E+01 -0.67757107579E+02 -0.18732444588E+01  0.68344504637E+02  0.00000000000E+00 0. -1.
        -14    1    6    6    0    0 -0.35687143457E+02 -0.62861785716E+02 -0.79436582361E+02  0.10740273241E+03  0.00000000000E+00 0.  1.
</event>
<event>
12    1  0.1035051E+000  0.3815057E+03  0.7818608E-02  0.1050379E+00
         21   -1    0    0  503  502  0.00000000000E+00  0.00000000000E+00  0.10055495461E+04  0.10055495461E+04  0.00000000000E+00 0.  1.
         21   -1    0    0  501  503 -0.00000000000E+00 -0.00000000000E+00 -0.19218617140E+03  0.19218617140E+03  0.00000000000E+00 0.  1.
          6    2    1    2  501    0 -0.14391564664E+03 -0.30837798220E+03  0.70423648369E+03  0.80093420610E+03  0.17244675783E+03 0.  0.
         24    2    3    3    0    0 -0.49601733257E+02 -0.88247527564E+02  0.14812251573E+03  0.19542832943E+03  0.77485445188E+02 0.  0.
         -6    2    1    2    0  502  0.14391564664E+03  0.30837798220E+03  0.10912689102E+03  0.39680151140E+03  0.17243569194E+03 0.  0.
        -24    2    5    5    0    0  0.54551213532E+02  0.26459893456E+03  0.78488785759E+02  0.29257392191E+03  0.80315498033E+02 0.  0.
          5    1    3    3  501    0 -0.94313913386E+02 -0.22013045463E+03  0.55611396796E+03  0.60550587667E+03  0.47000000000E+01 0. -1.
        -13    1    4    4    0    0  0.15079316891E+02 -0.13173028583E+02  0.38312721022E+01  0.20386101292E+02  0.00000000000E+00 0.  1.
         14    1    4    4    0    0 -0.64681050148E+02 -0.75074498981E+02  0.14429124363E+03  0.17504222814E+03  0.00000000000E+00 0. -1.
         -5    1    5    5    0  502  0.89364433110E+02  0.43779047642E+02  0.30638105258E+02  0.10422758949E+03  0.47000000000E+01 0.  1.
         13    1    6    6    0    0 -0.16215554566E+02  0.27598874150E+02  0.22070508345E+02  0.38881221725E+02  0.00000000000E+00 0. -1.
        -14    1    6    6    0    0  0.70766768097E+02  0.23700006041E+03  0.56418277414E+02  0.25369270018E+03  0.00000000000E+00 0.  1.
</event>
<event>
12    1  0.1035051E+000  0.2507637E+03  0.7818608E-02  0.1113231E+00
         21   -1    0    0  503  502  0.00000000000E+00  0.00000000000E+00  0.68363278326E+03  0.68363278326E+03  0.00000000000E+00 0.  1.
         21   -1    0    0  501  503 -0.00000000000E+00 -0.00000000000E+00 -0.94976563854E+02  0.94976563854E+02  0.00000000000E+00 0.  1.
          6    2    1    2  501    0 -0.12932330186E+03 -0.12493675312E+03  0.37213256742E+03  0.44730143041E+03  0.17106201573E+03 0.  0.
         24    2    3    3    0    0 -0.13196710879E+02 -0.96935154102E+02  0.16232333359E+03  0.20582373107E+03  0.80274319443E+02 0.  0.
         -6    2    1    2    0  502  0.12932330186E+03  0.12493675312E+03  0.21652365198E+03  0.33130791670E+03  0.17478196451E+03 0.  0.
        -24    2    5    5    0    0  0.15542897657E+03  0.74395948766E+02  0.18962576431E+03  0.26820906158E+03  0.79279545094E+02 0.  0.
          5    1    3    3  501    0 -0.11612659098E+03 -0.28001599020E+02  0.20980923383E+03  0.24147769935E+03  0.47000000000E+01 0. -1.
        -11    1    4    4    0    0 -0.15423096495E+02 -0.45113702020E+02  0.15540885120E+02  0.50146157637E+02  0.00000000000E+00 0.  1.
         12    1    4    4    0    0  0.22263856163E+01 -0.51821452082E+02  0.14678244847E+03  0.15567757343E+03  0.00000000000E+00 0. -1.
         -5    1    5    5    0  502 -0.26105674710E+02  0.50540804356E+02  0.26897887666E+02  0.63098855124E+02  0.47000000000E+01 0.  1.
         11    1    6    6    0    0  0.58752367233E+02 -0.56289588125E+01  0.91575209082E+02  0.10894744032E+03  0.00000000000E+00 0. -1.
        -12    1    6    6    0    0  0.96676609337E+02  0.80024907579E+02  0.98050555232E+02  0.15926162126E+03  0.00000000000E+00 0.  1.
</event>
<event>
12    1  0.1035051E+000  0.3535138E+03  0.7818608E-02  0.1061391E+00
         21   -1    0    0  503  502  0.00000000000E+00  0.00000000000E+00  0.20720708438E+03  0.20720708438E+03  0.00000000000E+00 0.  1.
         21   -1    0    0  501  503 -0.00000000000E+00 -0.00000000000E+00 -0.71299507562E+03  0.71299507562E+03  0.00000000000E+00 0. -1.
          6    2    1    2  501    0 -0.44192029664E+01 -0.30600129144E+03 -0.43697775201E+03  0.56206899236E+03  0.17696235955E+03 0.  0.
         24    2    3    3    0    0 -0.38987931407E+02 -0.21384042072E+03 -0.20123632955E+03  0.30656022276E+03  0.78964077387E+02 0.  0.
         -6    2    1    2    0  502  0.44192029664E+01  0.30600129144E+03 -0.68810239227E+02  0.35813316765E+03  0.17282417952E+03 0.  0.
        -24    2    5    5    0    0  0.54475140901E+02  0.27431475562E+03 -0.66681962211E+02  0.29866676505E+03  0.80865482948E+02 0.  0.
          5    1    3    3  501    0  0.34568728440E+02 -0.92160870725E+02 -0.23574142247E+03  0.25550876960E+03  0.47000000000E+01 0. -1.
        -11    1    4    4    0    0  0.10212852012E+02 -0.48624078198E+02 -0.13087911827E+02  0.51379925679E+02  0.00000000000E+00 0.  1.
         12    1    4    4    0    0 -0.49200783419E+02 -0.16521634252E+03 -0.18814841772E+03  0.25518029708E+03  0.00000000000E+00 0. -1.
         -5    1    5    5    0  502 -0.50055937935E+02  0.31686535823E+02 -0.21282770161E+01  0.59466402599E+02  0.47000000000E+01 0.  1.
         13    1    6    6    0    0  0.87024897629E+01  0.57167945448E+02 -0.49438235734E+02  0.76079211794E+02  0.00000000000E+00 0. -1.
        -14    1    6    6    0    0  0.45772651138E+02  0.21714681017E+03 -0.17243726477E+02  0.22258755325E+03  0.00000000000E+00 0.  1.
</event>
<event>
12    1  0.1035051E+000  0.2382384E+03  0.7818608E-02  0.1121106E+00
         21   -1    0    0  501  502  0.00000000000E+00  0.00000000000E+00  0.38505584765E+03  0.38505584765E+03  0.00000000000E+00 0.  1.
         21   -1    0    0  502  503 -0.00000000000E+00 -0.00000000000E+00 -0.15596946007E+03  0.15596946007E+03  0.00000000000E+00 0.  1.
         -6    2    1    2    0  503 -0.13793649012E+03 -0.90106785520E+02  0.17992551454E+03  0.29854770638E+03  0.17208089406E+03 0.  0.
        -24    2    3    3    0    0 -0.13667864992E+03 -0.26181180380E+02  0.11835443250E+03  0.20965927464E+03  0.10287240738E+03 0.  0.
          6    2    1    2  501    0  0.13793649012E+03  0.90106785520E+02  0.49160873046E+02  0.24247760135E+03  0.17097627793E+03 0.  0.
         24    2    5    5    0    0 -0.22527352493E+01  0.35965150728E+02  0.12006376834E+02  0.87600611076E+02  0.78937615199E+02 0.  0.
          5    1    5    5  501    0  0.14018922537E+03  0.54141634792E+02  0.37154496212E+02  0.15487699027E+03  0.47000000000E+01 0. -1.
        -11    1    6    6    0    0 -0.35472400397E+02  0.31824408495E+02 -0.84058365651E+01  0.48391551477E+02  0.00000000000E+00 0.  1.
         12    1    6    6    0    0  0.33219665148E+02  0.41407422324E+01  0.20412213399E+02  0.39209059599E+02  0.00000000000E+00 0. -1.
         -5    1    3    3    0  503 -0.12578401974E+01 -0.63925605140E+02  0.61571082037E+02  0.88888431742E+02  0.47000000000E+01 0.  1.
         13    1    4    4    0    0 -0.12764417833E+03  0.12401009927E+02  0.11045303802E+03  0.16925334536E+03  0.00000000000E+00 0. -1.
        -14    1    4    4    0    0 -0.90344715886E+01 -0.38582190307E+02  0.79013944789E+01  0.40405929274E+02  0.00000000000E+00 0.  1.
</event>
<event>
12    1  0.1035051E+000  0.2579433E+03  0.7818608E-02  0.1108430E+00
         21   -1    0    0  503  502  0.00000000000E+00  0.00000000000E+00  0.25060798284E+03  0.25060798284E+03  0.00000000000E+00 0. -1.
         21   -1    0    0  501  503 -0.00000000000E+00 -0.00000000000E+00 -0.27837054267E+03  0.27837054267E+03  0.00000000000E+00 0. -1.
          6    2    1    2  501    0  0.19345529304E+03 -0.80792784648E+01  0.43663044143E+02  0.26161274113E+03  0.17042458670E+03 0.  0.
         24    2    3    3    0    0  0.18124248947E+03  0.43060162426E+02  0.49591514080E+02  0.20849370743E+03  0.79418449930E+02 0.  0.
         -6    2    1    2    0  502 -0.19345529304E+03  0.80792784648E+01 -0.71425603975E+02  0.26736578439E+03  0.16997829453E+03 0.  0.
        -24    2    5    5    0    0 -0.80635815359E+02  0.33251552408E+02  0.13194793867E+02  0.12403197940E+03  0.87189614482E+02 0.  0.
          5    1    3    3  501    0  0.12212803566E+02 -0.51139440891E+02 -0.59284699369E+01  0.53119033702E+02  0.47000000000E+01 0. -1.
        -11    1    4    4    0    0  0.12164815407E+03 -0.10234102128E+02  0.22899076696E+02  0.12420699637E+03  0.00000000000E+00 0.  1.
         12    1    4    4    0    0  0.59594335406E+02  0.53294264555E+02  0.26692437383E+02  0.84286711054E+02  0.00000000000E+00 0. -1.
         -5    1    5    5    0  502 -0.11281947768E+03 -0.25172273943E+02 -0.84620397843E+02  0.14333380498E+03  0.47000000000E+01 0.  1.
         11    1    6    6    0    0 -0.24977324706E+02 -0.25948002138E+02 -0.13561199195E+02  0.38484694205E+02  0.00000000000E+00 0. -1.
        -12    1    6    6    0    0 -0.55658490653E+02  0.59199554546E+02  0.26755993063E+02  0.85547285199E+02  0.00000000000E+00 0.  1.
</event>
<event>
12    1  0.1035051E+000  0.1965974E+03  0.7818608E-02  0.1152778E+00
         21   -1    0    0  503  502  0.00000000000E+00  0.00000000000E+00  0.30050367589E+03  0.30050367589E+03  0.00000000000E+00 0. -1.
         21   -1    0    0  501  503 -0.00000000000E+00 -0.00000000000E+00 -0.12987442787E+03  0.12987442787E+03  0.00000000000E+00 0. -1.
          6    2    1    2  501    0 -0.32252100630E+02  0.88136090292E+02  0.10982674164E+03  0.22519422518E+03  0.17274940657E+03 0.  0.
         24    2    3    3    0    0  0.16660740057E+02  0.20434872640E+02 -0.35388186761E+01  0.84305044898E+02  0.79997831711E+02 0.  0.
         -6    2    1    2    0  502  0.32252100630E+02 -0.88136090292E+02  0.60802506381E+02  0.20518387859E+03  0.17203287721E+03 0.  0.
        -24    2    5    5    0    0  0.77204648048E+02 -0.24036702764E+02  0.54432598855E+02  0.12649379838E+03  0.80619181653E+02 0.  0.
          5    1    3    3  501    0 -0.48912840688E+02  0.67701217652E+02  0.11336556031E+03  0.14088918028E+03  0.47000000000E+01 0. -1.
        -13    1    4    4    0    0  0.15113006398E+02 -0.24340816735E+02  0.18773801452E+02  0.34253962438E+02  0.00000000000E+00 0.  1.
         14    1    4    4    0    0  0.15477336590E+01  0.44775689374E+02 -0.22312620128E+02  0.50051082460E+02  0.00000000000E+00 0. -1.
         -5    1    5    5    0  502 -0.44952547418E+02 -0.64099387528E+02  0.63699075252E+01  0.78690080205E+02  0.47000000000E+01 0.  1.
         13    1    6    6    0    0  0.18493045522E+02 -0.36046617228E+02 -0.64979613967E+01  0.41031388577E+02  0.00000000000E+00 0. -1.
        -14    1    6    6    0    0  0.58711602527E+02  0.12009914464E+02  0.60930560252E+02  0.85462409803E+02  0.00000000000E+00 0.  1.
</event>
<event>
12    1  0.1035051E+000  0.2018997E+03  0.7818608E-02  0.1150096E+00
         21   -1    0    0  501  502  0.00000000000E+00  0.00000000000E+00  0.30425424234E+03  0.30425424234E+03  0.00000000000E+00 0.  1.
         21   -1    0    0  502  503 -0.00000000000E+00 -0.00000000000E+00 -0.15233502556E+03  0.15233502556E+03  0.00000000000E+00 0.  1.
         -6    2    1    2    0  503  0.99555056415E+02  0.69569621771E+01  0.16572854009E+03  0.25421785470E+03  0.16492774195E+03 0.  0.
        -24    2    3    3    0    0  0.78575793275E+02 -0.53124075505E+02  0.75409052986E+02  0.14363051220E+03  0.77115991043E+02 0.  0.
          6    2    1    2  501    0 -0.99555056415E+02 -0.69569621771E+01 -0.13809323315E+02  0.20237141320E+03  0.17551034981E+03 0.  0.
         24    2    5    5    0    0 -0.10023562032E+01 -0.47520673171E+02 -0.16787808171E+02  0.95652105007E+02  0.81291300842E+02 0.  0.
          5    1    5    5  501    0 -0.98552700212E+02  0.40563710994E+02  0.29784848563E+01  0.10671930819E+03  0.47000000000E+01 0. -1.
        -11    1    6    6    0    0  0.14824774714E+02  0.17429926041E+02 -0.17484527563E+02  0.28797308403E+02  0.00000000000E+00 0.  1.
         12    1    6    6    0    0 -0.15827130918E+02 -0.64950599212E+02  0.69671939219E+00  0.66854796604E+02  0.00000000000E+00 0. -1.
         -5    1    3    3    0  503  0.20979263141E+02  0.60081037682E+02  0.90319487104E+02  0.11058734250E+03  0.47000000000E+01 0.  1.
         13    1    4    4    0    0  0.72927378086E+01 -0.51270827593E+01  0.54450918420E+02  0.55175841807E+02  0.00000000000E+00 0. -1.
        -14    1    4    4    0    0  0.71283055466E+02 -0.47996992745E+02  0.20958134566E+02  0.88454670389E+02  0.00000000000E+00 0.  1.
</event>
<event>
12    1  0.1035051E+000  0.3587047E+03  0.7818608E-02  0.1059162E+00
         21   -1    0    0  501  502  0.00000000000E+00  0.00000000000E+00  0.51567192147E+03  0.51567192147E+03  0.00000000000E+00 0. -1.
         21   -1    0    0  502  503 -0.00000000000E+00 -0.00000000000E+00 -0.42910720553E+03  0.42910720553E+03  0.00000000000E+00 0. -1.
         -6    2    1    2    0  503 -0.20786209752E+03  0.23703521032E+03  0.34924278911E+03  0.50017953554E+03  0.16975482178E+03 0.  0.
        -24    2    3    3    0    0 -0.25407430265E+02  0.84471931572E+02  0.12746394217E+03  0.17495160536E+03  0.81116970647E+02 0.  0.
          6    2    1    2  501    0  0.20786209752E+03 -0.23703521032E+03 -0.26267807317E+03  0.44459959145E+03  0.17110430759E+03 0.  0.
         24    2    5    5    0    0  0.17423776202E+03 -0.24802885476E+03 -0.26229787641E+03  0.40891078781E+03  0.80813030606E+02 0.  0.
          5    1    5    5  501    0  0.33624335495E+02  0.10993644436E+02 -0.38019676369E+00  0.35688803637E+02  0.47000000000E+01 0. -1.
        -11    1    6    6    0    0  0.43806069226E+02 -0.14721206161E+02 -0.43894048823E+02  0.63736748692E+02  0.00000000000E+00 0.  1.
         12    1    6    6    0    0  0.13043169279E+03 -0.23330764860E+03 -0.21840382758E+03  0.34517403912E+03  0.00000000000E+00 0. -1.
         -5    1    3    3    0  503 -0.18245466725E+03  0.15256327875E+03  0.22177884694E+03  0.32522793019E+03  0.47000000000E+01 0.  1.
         13    1    4    4    0    0 -0.24204055995E+02  0.26667712991E+01  0.72266398532E+02  0.76258641166E+02  0.00000000000E+00 0. -1.
        -14    1    4    4    0    0 -0.12033742700E+01  0.81805160273E+02  0.55197543638E+02  0.98692964189E+02  0.00000000000E+00 0.  1.
</event>
<event>
12    1  0.1035051E+000  0.2666524E+03  0.7818608E-02  0.1103336E+00
         21   -1    0    0  501  502  0.00000000000E+00  0.00000000000E+00  0.11502069518E+04  0.11502069518E+04  0.00000000000E+00 0. -1.
         21   -1    0    0  502  503 -0.00000000000E+00 -0.00000000000E+00 -0.75558689425E+02  0.75558689425E+02  0.00000000000E+00 0. -1.
         -6    2    1    2    0  503  0.91021851011E+02  0.18165059395E+03  0.79986312979E+03  0.84286830644E+03  0.17135938829E+03 0.  0.
        -24    2    3    3    0    0  0.82237390057E+02  0.20424281731E+03  0.76614809963E+03  0.80107873155E+03  0.79158744449E+02 0.  0.
          6    2    1    2  501    0 -0.91021851011E+02 -0.18165059395E+03  0.27478513254E+03  0.38289733474E+03  0.17268927079E+03 0.  0.
         24    2    5    5    0    0 -0.83619213249E+02 -0.35638499215E+02  0.11072987673E+03  0.16310072919E+03  0.77964522772E+02 0.  0.
          5    1    5    5  501    0 -0.74026377628E+01 -0.14601209473E+03  0.16405525581E+03  0.21979660555E+03  0.47000000000E+01 0. -1.
        -13    1    6    6    0    0 -0.23485366637E+02 -0.46887649511E+02  0.25833492073E+02  0.58458390634E+02  0.00000000000E+00 0.  1.
         14    1    6    6    0    0 -0.60133846612E+02  0.11249150296E+02  0.84896384659E+02  0.10464233856E+03  0.00000000000E+00 0. -1.
         -5    1    3    3    0  503  0.87844609546E+01 -0.22592223364E+02  0.33715030161E+02  0.41789574891E+02  0.47000000000E+01 0.  1.
         13    1    4    4    0    0  0.52727699975E+02  0.52283788280E+02  0.33070919886E+03  0.33894303220E+03  0.00000000000E+00 0. -1.
        -14    1    4    4    0    0  0.29509690082E+02  0.15195902903E+03  0.43543890077E+03  0.46213569935E+03  0.00000000000E+00 0.  1.
</event>
<event>
12    1  0.1035051E+000  0.3601110E+03  0.7818608E-02  0.1058746E+00
         21   -1    0    0  501  502  0.00000000000E+00  0.00000000000E+00  0.12094465040E+04  0.12094465040E+04  0.00000000000E+00 0. -1.
         21   -1    0    0  502  503 -0.00000000000E+00 -0.00000000000E+00 -0.10664231632E+03  0.10664231632E+03  0.00000000000E+00 0. -1.
         -6    2    1    2    0  503 -0.21311056262E+03 -0.22983795696E+03  0.54079369318E+03  0.64972126809E+03  0.17730851438E+03 0.  0.
        -24    2    3    3    0    0 -0.54383147422E+02 -0.60045614976E+02  0.26964176113E+03  0.29255283166E+03  0.79482560126E+02 0.  0.
          6    2    1    2  501    0  0.21311056262E+03  0.22983795696E+03  0.56201049450E+03  0.66636755222E+03  0.17305583020E+03 0.  0.
         24    2    5    5    0    0  0.17708186511E+03  0.13251206933E+03  0.27868261229E+03  0.36459416989E+03  0.79671041508E+02 0.  0.
          5    1    5    5  501    0  0.36028697505E+02  0.97325887631E+02  0.28332788220E+03  0.30177338233E+03  0.47000000000E+01 0. -1.
        -11    1    6    6    0    0  0.89422871947E+02  0.11369335705E+03  0.18627250953E+03  0.23583909190E+03  0.00000000000E+00 0.  1.
         12    1    6    6    0    0  0.87658993165E+02  0.18818712282E+02  0.92410102764E+02  0.12875507799E+03  0.00000000000E+00 0. -1.
         -5    1    3    3    0  503 -0.15872741519E+03 -0.16979234198E+03  0.27115193205E+03  0.35716843643E+03  0.47000000000E+01 0.  1.
         13    1    4    4    0    0 -0.13548077080E+02 -0.67081782170E+02  0.20146485834E+03  0.21277125049E+03  0.00000000000E+00 0. -1.
        -14    1    4    4    0    0 -0.40835070342E+02  0.70361671944E+01  0.68176902792E+02  0.79781581163E+02  0.00000000000E+00 0.  1.
</event>
<event>
12    1  0.1035051E+000  0.5625112E+03  0.7818608E-02  0.9986723E-01
         21   -1    0    0  503  502  0.00000000000E+00  0.00000000000E+00  0.22213415423E+04  0.22213415423E+04  0.00000000000E+00 0. -1.
         21   -1    0    0  501  503 -0.00000000000E+00 -0.00000000000E+00 -0.17626986982E+03  0.17626986982E+03  0.00000000000E+00 0. -1.
          6    2    1    2  501    0  0.53121971135E+03  0.62808584714E+02  0.49666198158E+03  0.75039457991E+03  0.17401034901E+03 0.  0.
         24    2    3    3    0    0  0.42423330013E+03  0.36970449240E+02  0.46571818539E+03  0.63596857782E+03  0.78879000462E+02 0.  0.
         -6    2    1    2    0  502 -0.53121971135E+03 -0.62808584714E+02  0.15484096909E+04  0.16472168322E+04  0.17207969494E+03 0.  0.
        -24    2    5    5    0    0 -0.13937173464E+03 -0.52443941711E+02  0.50400310402E+03  0.53166339495E+03  0.80448674485E+02 0.  0.
          5    1    3    3  501    0  0.10698641123E+03  0.25838135474E+02  0.30943796195E+02  0.11442600209E+03  0.47000000000E+01 0. -1.
        -13    1    4    4    0    0  0.54646060254E+02  0.32099617890E+02  0.72796385903E+02  0.96518864324E+02  0.00000000000E+00 0.  1.
         14    1    4    4    0    0  0.36958723987E+03  0.48708313505E+01  0.39292179949E+03  0.53944971349E+03  0.00000000000E+00 0. -1.
         -5    1    5    5    0  502 -0.39184797671E+03 -0.10364643003E+02  0.10444065868E+04  0.11155534372E+04  0.47000000000E+01 0.  1.
         13    1    6    6    0    0 -0.13286937154E+03 -0.69838755462E+02  0.46098542598E+03  0.48480850304E+03  0.00000000000E+00 0. -1.
        -14    1    6    6    0    0 -0.65023631029E+01  0.17394813751E+02  0.43017678038E+02  0.46854891902E+02  0.00000000000E+00 0.  1.
</event>
<event>
12    1  0.1035051E+000  0.1995211E+03  0.7818608E-02  0.1150809E+00
         21   -1    0    0  501  502  0.00000000000E+00  0.00000000000E+00  0.46972870714E+02  0.46972870714E+02  0.00000000000E+00 0.  1.
         21   -1    0    0  502  503 -0.00000000000E+00 -0.00000000000E+00 -0.86179309678E+03  0.86179309678E+03  0.00000000000E+00 0.  1.
         -6    2    1    2    0  503 -0.96379600856E+02  0.29107799012E+02 -0.48546304667E+03  0.52368830299E+03  0.16863800752E+03 0.  0.
        -24    2    3    3    0    0 -0.11885489759E+03  0.18236296149E+02 -0.26897364583E+03  0.30571335211E+03  0.81576849188E+02 0.  0.
          6    2    1    2  501    0  0.96379600856E+02 -0.29107799012E+02 -0.32935717940E+03  0.38507766451E+03  0.17225668247E+03 0.  0.
         24    2    5    5    0    0  0.24558784399E+02 -0.39695238614E+02 -0.70347401482E+02  0.11604517835E+03  0.79617087753E+02 0.  0.
          5    1    5    5  501    0  0.71820816458E+02  0.10587439602E+02 -0.25900977792E+03  0.26903248616E+03  0.47000000000E+01 0. -1.
        -13    1    6    6    0    0  0.40483430137E+02 -0.24616591680E+02 -0.56307833953E+01  0.47713629323E+02  0.00000000000E+00 0.  1.
         14    1    6    6    0    0 -0.15924645738E+02 -0.15078646934E+02 -0.64716618086E+02  0.68331549022E+02  0.00000000000E+00 0. -1.
         -5    1    3    3    0  503  0.22475296736E+02  0.10871502863E+02 -0.21648940083E+03  0.21797495088E+03  0.47000000000E+01 0.  1.
         13    1    4    4    0    0 -0.12690801408E+03  0.29764585578E+02 -0.25159523188E+03  0.28335796319E+03  0.00000000000E+00 0. -1.
        -14    1    4    4    0    0  0.80531164918E+01 -0.11528289429E+02 -0.17378413949E+02  0.22355388920E+02  0.00000000000E+00 0.  1.
</event>
<event>
12    1  0.1035051E+000  0.3675299E+03  0.7818608E-02  0.1055698E+00
         21   -1    0    0  501  502  0.00000000000E+00  0.00000000000E+00  0.21580856352E+03  0.21580856352E+03  0.00000000000E+00 0.  1.
         21   -1    0    0  502  503 -0.00000000000E+00 -0.00000000000E+00 -0.87192418540E+03  0.87192418540E+03  0.00000000000E+00 0.  1.
         -6    2    1    2    0  503  0.29911026718E+03  0.12555749048E+03 -0.38775214233E+02  0.36956970742E+03  0.17276173202E+03 0.  0.
        -24    2    3    3    0    0  0.56692861192E+02  0.23826355156E+02 -0.34043894699E+02  0.10658701215E+03  0.80125081490E+02 0.  0.
          6    2    1    2  501    0 -0.29911026718E+03 -0.12555749048E+03 -0.61734040764E+03  0.71816304151E+03  0.17151483880E+03 0.  0.
         24    2    5    5    0    0 -0.21887887476E+03 -0.54240560068E+02 -0.52378048356E+03  0.57568942891E+03  0.78881705255E+02 0.  0.
          5    1    5    5  501    0 -0.80231392422E+02 -0.71316930409E+02 -0.93559924079E+02  0.14247361260E+03  0.47000000000E+01 0. -1.
        -13    1    6    6    0    0 -0.59149554943E+02  0.19916329242E+02 -0.12315734697E+03  0.13806904843E+03  0.00000000000E+00 0.  1.
         14    1    6    6    0    0 -0.15972931982E+03 -0.74156889310E+02 -0.40062313659E+03  0.43762038048E+03  0.00000000000E+00 0. -1.
         -5    1    3    3    0  503  0.24241740599E+03  0.10173113532E+03 -0.47313195338E+01  0.26298269526E+03  0.47000000000E+01 0.  1.
         11    1    4    4    0    0  0.65013403933E+02 -0.10347514951E+02 -0.22134725963E+02  0.69453292579E+02  0.00000000000E+00 0. -1.
        -12    1    4    4    0    0 -0.83205427409E+01  0.34173870107E+02 -0.11909168736E+02  0.37133719576E+02  0.00000000000E+00 0.  1.
</event>
<event>
12    1  0.1035051E+000  0.2036628E+03  0.7818608E-02  0.1146927E+00
         21   -1    0    0  501  502  0.00000000000E+00  0.00000000000E+00  0.21170083813E+03  0.21170083813E+03  0.00000000000E+00 0.  1.
         21   -1    0    0  502  503 -0.00000000000E+00 -0.00000000000E+00 -0.21888023947E+03  0.21888023947E+03  0.00000000000E+00 0.  1.
         -6    2    1    2    0  503 -0.64749157716E+02  0.88153823655E+02 -0.74982851678E+02  0.21592820998E+03  0.17040837353E+03 0.  0.
        -24    2    3    3    0    0 -0.80935818219E+02  0.10744220139E+03 -0.95686566361E+02  0.18299216141E+03  0.78966947813E+02 0.  0.
          6    2    1    2  501    0  0.64749157716E+02 -0.88153823655E+02  0.67803450345E+02  0.21465286762E+03  0.17179928885E+03 0.  0.
         24    2    5    5    0    0  0.17156646191E+01  0.15745883559E+02  0.33617261167E+02  0.88323314697E+02  0.80124973114E+02 0.  0.
          5    1    5    5  501    0  0.63033493097E+02 -0.10389970721E+03  0.34186189177E+02  0.12632955292E+03  0.47000000000E+01 0. -1.
        -13    1    6    6    0    0  0.31778766473E+02  0.31519192277E+02  0.72613078125E+01  0.45343975030E+02  0.00000000000E+00 0.  1.
         14    1    6    6    0    0 -0.30063101854E+02 -0.15773308718E+02  0.26355953355E+02  0.42979339667E+02  0.00000000000E+00 0. -1.
         -5    1    3    3    0  503  0.16186660503E+02 -0.19288377731E+02  0.20703714683E+02  0.32936048570E+02  0.47000000000E+01 0.  1.
         11    1    4    4    0    0 -0.37297685492E+02  0.80560622676E+02 -0.19050515174E+02  0.90796769752E+02  0.00000000000E+00 0. -1.
        -12    1    4    4    0    0 -0.43638132727E+02  0.26881578709E+02 -0.76636051187E+02  0.92195391660E+02  0.00000000000E+00 0.  1.
</event>
<event>
12    1  0.1035051E+000  0.2751996E+03  0.7818608E-02  0.1098539E+00
         21   -1    0    0  501  502  0.00000000000E+00  0.00000000000E+00  0.85695517080E+03  0.85695517080E+03  0.00000000000E+00 0. -1.
         21   -1    0    0  502  503 -0.00000000000E+00 -0.00000000000E+00 -0.87933914167E+02  0.87933914167E+02  0.00000000000E+00 0. -1.
         -6    2    1    2    0  503  0.70429252697E+02  0.20280438433E+03  0.39106189196E+03  0.47818849923E+03  0.17217705860E+03 0.  0.
        -24    2    3    3    0    0  0.53837051106E+02  0.12502365455E+03  0.12696034001E+03  0.20233190093E+03  0.79309065872E+02 0.  0.
          6    2    1    2  501    0 -0.70429252697E+02 -0.20280438433E+03  0.37795936466E+03  0.46670058574E+03  0.16990072822E+03 0.  0.
         24    2    5    5    0    0 -0.85493216982E+02 -0.18749766442E+03  0.38612139628E+03  0.44325005366E+03  0.70117138374E+02 0.  0.
          5    1    5    5  501    0  0.15063964284E+02 -0.15306719915E+02 -0.81620316149E+01  0.23450532075E+02  0.47000000000E+01 0. -1.
        -11    1    6    6    0    0 -0.61685475833E+02 -0.61519024735E+02  0.12515449473E+03  0.15249044522E+03  0.00000000000E+00 0.  1.
         12    1    6    6    0    0 -0.23807741149E+02 -0.12597863968E+03  0.26096690155E+03  0.29075960844E+03  0.00000000000E+00 0. -1.
         -5    1    3    3    0  503  0.16592201592E+02  0.77780729779E+02  0.26410155196E+03  0.27585659830E+03  0.47000000000E+01 0.  1.
         11    1    4    4    0    0  0.18641423522E+02  0.12050687546E+03  0.10154806032E+03  0.15868654089E+03  0.00000000000E+00 0. -1.
        -12    1    4    4    0    0  0.35195627583E+02  0.45167790936E+01  0.25412279685E+02  0.43645360042E+02  0.00000000000E+00 0.  1.
</event>
<event>
12    1  0.1035051E+000  0.3393448E+03  0.7818608E-02  0.1067176E+00
         21   -1    0    0  503  502  0.00000000000E+00  0.00000000000E+00  0.67865463642E+03  0.67865463642E+03  0.00000000000E+00 0.  1.
         21   -1    0    0  501  503 -0.00000000000E+00 -0.00000000000E+00 -0.59520410732E+03  0.59520410732E+03  0.00000000000E+00 0.  1.
          6    2    1    2  501    0  0.25700282571E+03  0.13818852166E+03 -0.49709690217E+03  0.60188057755E+03  0.17322926874E+03 0.  0.
         24    2    3    3    0    0  0.17938743015E+03  0.74375455781E+02 -0.43589967468E+03  0.48413743483E+03  0.81663767395E+02 0.  0.
         -6    2    1    2    0  502 -0.25700282571E+03 -0.13818852166E+03  0.58054743128E+03  0.67197816619E+03  0.17138499330E+03 0.  0.
        -24    2    5    5    0    0 -0.21354280821E+03 -0.17047932087E+03  0.50897571295E+03  0.58211121064E+03  0.71648136022E+02 0.  0.
          5    1    3    3  501    0  0.77615395563E+02  0.63813065875E+02 -0.61197227492E+02  0.11774314272E+03  0.47000000000E+01 0. -1.
        -11    1    4    4    0    0  0.31946523058E+02  0.52572227237E+02 -0.13439138559E+03  0.14780211072E+03  0.00000000000E+00 0.  1.
         12    1    4    4    0    0  0.14744090709E+03  0.21803228544E+02 -0.30150828909E+03  0.33633532411E+03  0.00000000000E+00 0. -1.
         -5    1    5    5    0  502 -0.43460017505E+02  0.32290799216E+02  0.71571718327E+02  0.89866955550E+02  0.47000000000E+01 0.  1.
         11    1    6    6    0    0 -0.16887688180E+03 -0.11522311509E+03  0.42841370414E+03  0.47469365843E+03  0.00000000000E+00 0. -1.
        -12    1    6    6    0    0 -0.44665926404E+02 -0.55256205782E+02  0.80562008813E+02  0.10741755221E+03  0.00000000000E+00 0.  1.
</event>
<event>
12    1  0.1035051E+000  0.2138463E+03  0.7818608E-02  0.1140141E+00
         21   -1    0    0  503  502  0.00000000000E+00  0.00000000000E+00  0.17283863838E+03  0.17283863838E+03  0.00000000000E+00 0. -1.
         21   -1    0    0  501  503 -0.00000000000E+00 -0.00000000000E+00 -0.28278648555E+03  0.28278648555E+03  0.00000000000E+00 0. -1.
          6    2    1    2  501    0  0.11969360139E+03 -0.54086482147E+02  0.17706328990E+02  0.20657525119E+03  0.15845477132E+03 0.  0.
         24    2    3    3    0    0  0.11570781990E+03 -0.43655723306E+02 -0.36346750219E+02  0.15118109486E+03  0.78996933018E+02 0.  0.
         -6    2    1    2    0  502 -0.11969360139E+03  0.54086482147E+02 -0.12765417616E+03  0.24904987274E+03  0.16875528038E+03 0.  0.
        -24    2    5    5    0    0 -0.69961283628E+02  0.47405226505E+01 -0.25593117362E+01  0.10559555160E+03  0.78910181086E+02 0.  0.
          5    1    3    3  501    0  0.39857814894E+01 -0.10430758840E+02  0.54053079209E+02  0.55394156335E+02  0.47000000000E+01 0. -1.
        -11    1    4    4    0    0  0.74421086367E+02 -0.49719377668E+02  0.85223549814E+01  0.89906313161E+02  0.00000000000E+00 0.  1.
         12    1    4    4    0    0  0.41286733537E+02  0.60636543617E+01 -0.44869105201E+02  0.61274781696E+02  0.00000000000E+00 0. -1.
         -5    1    5    5    0  502 -0.49732317765E+02  0.49345959496E+02 -0.12509486443E+03  0.14345432114E+03  0.47000000000E+01 0.  1.
         11    1    6    6    0    0 -0.31762551954E+02 -0.28024229468E+02  0.24006919465E+02  0.48688287360E+02  0.00000000000E+00 0. -1.
        -12    1    6    6    0    0 -0.38198731675E+02  0.32764752118E+02 -0.26566231201E+02  0.56907264239E+02  0.00000000000E+00 0.  1.
</event>
<event>
12    1  0.1035051E+000  0.2591397E+03  0.7818608E-02  0.1107884E+00
         21   -1    0    0  503  502  0.00000000000E+00  0.00000000000E+00  0.15237291306E+03  0.15237291306E+03  0.00000000000E+00 0. -1.
         21   -1    0    0  501  503 -0.00000000000E+00 -0.00000000000E+00 -0.44528417536E+03  0.44528417536E+03  0.00000000000E+00 0. -1.
          6    2    1    2  501    0 -0.51690448785E+02  0.18253959985E+03 -0.10841288269E+03  0.27954858872E+03  0.17436012249E+03 0.  0.
         24    2    3    3    0    0 -0.65403936453E+02  0.20073233660E+03 -0.11752171558E+03  0.25456667024E+03  0.80135448477E+02 0.  0.
         -6    2    1    2    0  502  0.51690448785E+02 -0.18253959985E+03 -0.18449837961E+03  0.31810849970E+03  0.17652409889E+03 0.  0.
        -24    2    5    5    0    0 -0.22343023708E+02 -0.83800038692E+02 -0.14220479134E+03  0.18756619392E+03  0.86239302118E+02 0.  0.
          5    1    3    3  501    0  0.13713487668E+02 -0.18192736753E+02  0.91088328886E+01  0.24981918484E+02  0.47000000000E+01 0. -1.
        -13    1    4    4    0    0 -0.14008211509E+02 -0.29535998093E+01 -0.15273738402E+02  0.20934202308E+02  0.00000000000E+00 0.  1.
         14    1    4    4    0    0 -0.51395724944E+02  0.20368593641E+03 -0.10224797717E+03  0.23363246793E+03  0.00000000000E+00 0. -1.
         -5    1    5    5    0  502  0.74033472493E+02 -0.98739561161E+02 -0.42293588274E+02  0.13054230577E+03  0.47000000000E+01 0.  1.
         11    1    6    6    0    0 -0.51079021180E+02 -0.28367717927E+02 -0.54453355295E+02  0.79868402563E+02  0.00000000000E+00 0. -1.
        -12    1    6    6    0    0  0.28735997472E+02 -0.55432320765E+02 -0.87751436044E+02  0.10769779136E+03  0.00000000000E+00 0.  1.
</event>
<event>
12    1  0.1035051E+000  0.3100890E+03  0.7818608E-02  0.1080717E+00
         21   -1    0    0  501  502  0.00000000000E+00  0.00000000000E+00  0.35408093313E+03  0.35408093313E+03  0.00000000000E+00 0.  1.
         21   -1    0    0  502  503 -0.00000000000E+00 -0.00000000000E+00 -0.27761485025E+03  0.27761485025E+03  0.00000000000E+00 0.  1.
         -6    2    1    2    0  503  0.18708034763E+03  0.17620564824E+03 -0.18587949694E+02  0.31064562531E+03  0.17351572179E+03 0.  0.
        -24    2    3    3    0    0  0.39900798358E+02  0.87747247809E+02 -0.41708016959E+02  0.13731548990E+03  0.88455253543E+02 0.  0.
          6    2    1    2  501    0 -0.18708034763E+03 -0.17620564824E+03  0.95054032579E+02  0.32105015807E+03  0.16730346065E+03 0.  0.
         24    2    5    5    0    0 -0.18209143866E+03 -0.15515094182E+03  0.12679783180E+03  0.28234681630E+03  0.80080757657E+02 0.  0.
          5    1    5    5  501    0 -0.49889089712E+01 -0.21054706421E+02 -0.31743799219E+02  0.38703341769E+02  0.47000000000E+01 0. -1.
        -11    1    6    6    0    0 -0.13698838092E+03 -0.84983525491E+02  0.49530399070E+02  0.16864541661E+03  0.00000000000E+00 0.  1.
         12    1    6    6    0    0 -0.45103057743E+02 -0.70167416329E+02  0.77267432729E+02  0.11370139970E+03  0.00000000000E+00 0. -1.
         -5    1    3    3    0  503  0.14717954927E+03  0.88458400433E+02  0.23120067265E+02  0.17333013541E+03  0.47000000000E+01 0.  1.
         11    1    4    4    0    0  0.59854702564E+02  0.83571001630E+02 -0.15257728278E+02  0.10392062358E+03  0.00000000000E+00 0. -1.
        -12    1    4    4    0    0 -0.19953904206E+02  0.41762461791E+01 -0.26450288681E+02  0.33394866320E+02  0.00000000000E+00 0.  1.
</event>
<event>
12    1  0.1035051E+000  0.2026998E+03  0.7818608E-02  0.1148208E+00
         21   -1    0    0  503  502  0.00000000000E+00  0.00000000000E+00  0.18491285028E+03  0.18491285028E+03  0.00000000000E+00 0. -1.
         21   -1    0    0  501  503 -0.00000000000E+00 -0.00000000000E+00 -0.22683131579E+03  0.22683131579E+03  0.00000000000E+00 0. -1.
          6    2    1    2  501    0 -0.58973191223E+02 -0.86225437849E+02  0.18539658674E+02  0.20354588550E+03  0.17370821841E+03 0.  0.
         24    2    3    3    0    0 -0.68900487652E+02 -0.65546723071E+02 -0.47490029589E+02  0.13348755129E+03  0.80746351840E+02 0.  0.
         -6    2    1    2    0  502  0.58973191223E+02  0.86225437849E+02 -0.60458124188E+02  0.20819828058E+03  0.16964278894E+03 0.  0.
        -24    2    5    5    0    0  0.41036667530E+01 -0.15001291401E+02 -0.69367669002E+01  0.81138683867E+02  0.79331509882E+02 0.  0.
          5    1    3    3  501    0  0.99272964287E+01 -0.20678714778E+02  0.66029688264E+02  0.70058334204E+02  0.47000000000E+01 0. -1.
        -13    1    4    4    0    0 -0.22065255120E+02 -0.61409486175E+01  0.21272025110E+02  0.31258371450E+02  0.00000000000E+00 0.  1.
         14    1    4    4    0    0 -0.46835232532E+02 -0.59405774453E+02 -0.68762054699E+02  0.10222917984E+03  0.00000000000E+00 0. -1.
         -5    1    5    5    0  502  0.54869524470E+02  0.10122672925E+03 -0.53521357288E+02  0.12705959671E+03  0.47000000000E+01 0.  1.
         11    1    6    6    0    0  0.19736374212E+02 -0.29565938970E+02  0.24467923758E+02  0.43154936070E+02  0.00000000000E+00 0. -1.
        -12    1    6    6    0    0 -0.15632707459E+02  0.14564647569E+02 -0.31404690658E+02  0.37983747796E+02  0.00000000000E+00 0.  1.
</event>
<event>
12    1  0.1035051E+000  0.4003469E+03  0.7818608E-02  0.1043664E+00
         21   -1    0    0  503  502  0.00000000000E+00  0.00000000000E+00  0.67842035251E+03  0.67842035251E+03  0.00000000000E+00 0.  1.
         21   -1    0    0  501  503 -0.00000000000E+00 -0.00000000000E+00 -0.29643760464E+03  0.29643760464E+03  0.00000000000E+00 0.  1.
          6    2    1    2  501    0 -0.33765070075E+03 -0.12847286191E+03  0.41069033835E+03  0.57353655405E+03  0.17252348494E+03 0.  0.
         24    2    3    3    0    0 -0.58352183570E+02 -0.40261639883E+02  0.11794401970E+03  0.15939723151E+03  0.80440715170E+02 0.  0.
         -6    2    1    2    0  502  0.33765070075E+03  0.12847286191E+03 -0.28707590484E+02  0.40132140310E+03  0.17239916146E+03 0.  0.
        -24    2    5    5    0    0  0.10150658751E+03 -0.16742055808E+01 -0.25037582931E+02  0.13162182886E+03  0.79943949114E+02 0.  0.
          5    1    3    3  501    0 -0.27929851718E+03 -0.88211222028E+02  0.29274631865E+03  0.41413932254E+03  0.47000000000E+01 0. -1.
        -13    1    4    4    0    0  0.36269421650E+01  0.17181928008E+02  0.42997513531E+02  0.46445231504E+02  0.00000000000E+00 0.  1.
         14    1    4    4    0    0 -0.61979125735E+02 -0.57443567891E+02  0.74946506173E+02  0.11295200001E+03  0.00000000000E+00 0. -1.
         -5    1    5    5    0  502  0.23614411324E+03  0.13014706749E+03 -0.36700075527E+01  0.26969957425E+03  0.47000000000E+01 0.  1.
         11    1    6    6    0    0  0.59292296217E+02  0.34585545130E+02 -0.31638599481E+02  0.75582652108E+02  0.00000000000E+00 0. -1.
        -12    1    6    6    0    0  0.42214291295E+02 -0.36259750711E+02  0.66010165496E+01  0.56039176748E+02  0.00000000000E+00 0.  1.
</event>
<event>
12    1  0.1035051E+000  0.2002025E+03  0.7818608E-02  0.1149649E+00
         21   -1    0    0  503  502  0.00000000000E+00  0.00000000000E+00  0.37412635455E+03  0.37412635455E+03  0.00000000000E+00 0. -1.
         21   -1    0    0  501  503 -0.00000000000E+00 -0.00000000000E+00 -0.12384412164E+03  0.12384412164E+03  0.00000000000E+00 0. -1.
          6    2    1    2  501    0  0.87113928243E+02  0.45328312704E+02  0.33014411926E+02  0.20252784893E+03  0.17402323343E+03 0.  0.
         24    2    3    3    0    0  0.53658560679E+02 -0.10993269533E+02  0.77604890387E+02  0.12314407846E+03  0.78369968352E+02 0.  0.
         -6    2    1    2    0  502 -0.87113928243E+02 -0.45328312704E+02  0.21726782098E+03  0.29544262726E+03  0.17446359948E+03 0.  0.
        -24    2    5    5    0    0 -0.21118214459E+02 -0.67649122542E+02  0.19462427292E+03  0.22203640778E+03  0.79994849885E+02 0.  0.
          5    1    3    3  501    0  0.33455367564E+02  0.56321582236E+02 -0.44590478461E+02  0.79383770468E+02  0.47000000000E+01 0. -1.
        -13    1    4    4    0    0  0.32704122773E+02  0.29212665398E+02  0.16054866713E+02  0.46697946541E+02  0.00000000000E+00 0.  1.
         14    1    4    4    0    0  0.20954437906E+02 -0.40205934931E+02  0.61550023674E+02  0.76446131922E+02  0.00000000000E+00 0. -1.
         -5    1    5    5    0  502 -0.65995713784E+02  0.22320809838E+02  0.22643548057E+02  0.73406219480E+02  0.47000000000E+01 0.  1.
         11    1    6    6    0    0  0.11986990426E+02 -0.70685808070E+02  0.11208101327E+03  0.13305008432E+03  0.00000000000E+00 0. -1.
        -12    1    6    6    0    0 -0.33105204885E+02  0.30366855278E+01  0.82543259652E+02  0.88986323463E+02  0.00000000000E+00 0.  1.
</event>
<event>
12    1  0.1035051E+000  0.3068504E+03  0.7818608E-02  0.1081883E+00
         21   -1    0    0  501  502  0.00000000000E+00  0.00000000000E+00  0.22942824399E+04  0.22942824399E+04  0.00000000000E+00 0.  1.
         21   -1    0    0  502  503 -0.00000000000E+00 -0.00000000000E+00 -0.52677062479E+02  0.52677062479E+02  0.00000000000E+00 0.  1.
         -6    2    1    2    0  503 -0.21672667406E+03  0.13250979488E+03  0.16730264572E+04  0.17009334834E+04  0.17212754420E+03 0.  0.
        -24    2    3    3    0    0 -0.10184379296E+03  0.83753650320E+02  0.55023471162E+03  0.57121731022E+03  0.78384599995E+02 0.  0.
          6    2    1    2  501    0  0.21672667406E+03 -0.13250979488E+03  0.56857892021E+03  0.64602601896E+03  0.17186719200E+03 0.  0.
         24    2    5    5    0    0  0.17231498207E+03 -0.12903508137E+03  0.32268998384E+03  0.39609016510E+03  0.80100486568E+02 0.  0.
          5    1    5    5  501    0  0.44411691992E+02 -0.34747135120E+01  0.24588893636E+03  0.24993585386E+03  0.47000000000E+01 0. -1.
        -11    1    6    6    0    0 -0.56037667045E-01 -0.80957701995E+01 -0.26807922727E+01  0.85282637478E+01  0.00000000000E+00 0.  1.
         12    1    6    6    0    0  0.17237101974E+03 -0.12093931117E+03  0.32537077611E+03  0.38756190135E+03  0.00000000000E+00 0. -1.
         -5    1    3    3    0  503 -0.11488288110E+03  0.48756144559E+02  0.11227917456E+04  0.11297161732E+04  0.47000000000E+01 0.  1.
         13    1    4    4    0    0 -0.11904901327E+02  0.17528052952E+02  0.19297234179E+02  0.28659074703E+02  0.00000000000E+00 0. -1.
        -14    1    4    4    0    0 -0.89938891634E+02  0.66225597368E+02  0.53093747745E+03  0.54255823552E+03  0.00000000000E+00 0.  1.
</event>
<event>
12    1  0.1035051E+000  0.2521278E+03  0.7818608E-02  0.1112125E+00
         21   -1    0    0  501  502  0.00000000000E+00  0.00000000000E+00  0.24422324843E+03  0.24422324843E+03  0.00000000000E+00 0.  1.
         21   -1    0    0  502  503 -0.00000000000E+00 -0.00000000000E+00 -0.36411065584E+03  0.36411065584E+03  0.00000000000E+00 0.  1.
         -6    2    1    2    0  503 -0.17072691746E+03 -0.69557944039E+02 -0.22308949696E+03  0.33590210178E+03  0.17051483923E+03 0.  0.
        -24    2    3    3    0    0 -0.12898747748E+02 -0.15188446489E+02 -0.91775784227E+02  0.12346115805E+03  0.80142350704E+02 0.  0.
          6    2    1    2  501    0  0.17072691746E+03  0.69557944039E+02  0.10320208956E+03  0.27243180249E+03  0.17199542958E+03 0.  0.
         24    2    5    5    0    0  0.96534139197E+02  0.63637703362E+02  0.13136358453E+03  0.19271494483E+03  0.80709734849E+02 0.  0.
          5    1    5    5  501    0  0.74192778265E+02  0.59202406767E+01 -0.28161494977E+02  0.79716857663E+02  0.47000000000E+01 0. -1.
        -11    1    6    6    0    0 -0.14433950972E+02  0.11067891112E+02  0.18218618223E+02  0.25744032401E+02  0.00000000000E+00 0.  1.
         12    1    6    6    0    0  0.11096809017E+03  0.52569812249E+02  0.11314496631E+03  0.16697091243E+03  0.00000000000E+00 0. -1.
         -5    1    3    3    0  503 -0.15782816971E+03 -0.54369497550E+02 -0.13131371273E+03  0.21244094373E+03  0.47000000000E+01 0.  1.
         13    1    4    4    0    0 -0.88601516370E+00 -0.10494346358E+02  0.13654926177E+02  0.17244516150E+02  0.00000000000E+00 0. -1.
        -14    1    4    4    0    0 -0.12012732584E+02 -0.46941001311E+01 -0.10543071040E+03  0.10621664190E+03  0.00000000000E+00 0.  1.
</event>
<event>
12    1  0.1035051E+000  0.1933521E+03  0.7818608E-02  0.1155554E+00
         21   -1    0    0  503  502  0.00000000000E+00  0.00000000000E+00  0.75014547365E+02  0.75014547365E+02  0.00000000000E+00 0.  1.
         21   -1    0    0  501  503 -0.00000000000E+00 -0.00000000000E+00 -0.67955192315E+03  0.67955192315E+03  0.00000000000E+00 0.  1.
          6    2    1    2  501    0  0.71738477532E+02 -0.55086306213E+02 -0.10673474472E+03  0.22053228753E+03  0.17047367486E+03 0.  0.
         24    2    3    3    0    0  0.66954665826E+01 -0.76658189317E+02 -0.26068881520E+02  0.11458413559E+03  0.80799939869E+02 0.  0.
         -6    2    1    2    0  502 -0.71738477532E+02  0.55086306213E+02 -0.49780263107E+03  0.53403418299E+03  0.17089218475E+03 0.  0.
        -24    2    5    5    0    0 -0.83268453757E+02 -0.16381043557E+02 -0.35392273683E+03  0.37290058500E+03  0.81188476203E+02 0.  0.
          5    1    3    3  501    0  0.65043010949E+02  0.21571883104E+02 -0.80665863195E+02  0.10594815194E+03  0.47000000000E+01 0. -1.
        -13    1    4    4    0    0 -0.15508897119E+02 -0.48145516656E+01 -0.35267836378E+02  0.38826873173E+02  0.00000000000E+00 0.  1.
         14    1    4    4    0    0  0.22204363701E+02 -0.71843637651E+02  0.91989548581E+01  0.75757262416E+02  0.00000000000E+00 0. -1.
         -5    1    5    5    0  502  0.11529976225E+02  0.71467349770E+02 -0.14387989425E+03  0.16113359800E+03  0.47000000000E+01 0.  1.
         11    1    6    6    0    0 -0.90334345425E+02 -0.12849708380E+02 -0.21254530653E+03  0.23130265087E+03  0.00000000000E+00 0. -1.
        -12    1    6    6    0    0  0.70658916678E+01 -0.35313351769E+01 -0.14137743029E+03  0.14159793413E+03  0.00000000000E+00 0.  1.
</event>
<event>
12    1  0.1035051E+000  0.1893458E+03  0.7818608E-02  0.1159811E+00
         21   -1    0    0  501  502  0.00000000000E+00  0.00000000000E+00  0.20648150897E+03  0.20648150897E+03  0.00000000000E+00 0.  1.
         21   -1    0    0  502  503 -0.00000000000E+00 -0.00000000000E+00 -0.17067615744E+03  0.17067615744E+03  0.00000000000E+00 0.  1.
         -6    2    1    2    0  503  0.57663654131E+01  0.72457686355E+02  0.21580235357E+02  0.18727827663E+03  0.17124274892E+03 0.  0.
        -24    2    3    3    0    0 -0.21359144724E+01  0.11471976621E+03  0.16101938136E+02  0.14368204788E+03  0.84971004362E+02 0.  0.
          6    2    1    2  501    0 -0.57663654131E+01 -0.72457686355E+02  0.14225116167E+02  0.18987938978E+03  0.17483838667E+03 0.  0.
         24    2    5    5    0    0 -0.18314962793E+02 -0.16754269959E+02  0.70834073869E+02  0.10933746290E+03  0.79505165541E+02 0.  0.
          5    1    5    5  501    0  0.12548597380E+02 -0.55703416395E+02 -0.56608957702E+02  0.80541926885E+02  0.47000000000E+01 0. -1.
        -11    1    6    6    0    0 -0.79075979641E+01 -0.48826593881E+02  0.39363650737E+02  0.63214423789E+02  0.00000000000E+00 0.  1.
         12    1    6    6    0    0 -0.10407364829E+02  0.32072323921E+02  0.31470423132E+02  0.46123039107E+02  0.00000000000E+00 0. -1.
         -5    1    3    3    0  503  0.79022798855E+01 -0.42262079853E+02  0.54782972204E+01  0.43596228751E+02  0.47000000000E+01 0.  1.
         13    1    4    4    0    0 -0.19159361770E+02  0.61572048989E+02 -0.30164209894E+02  0.71190434180E+02  0.00000000000E+00 0. -1.
        -14    1    4    4    0    0  0.17023447298E+02  0.53147717218E+02  0.46266148031E+02  0.72491613701E+02  0.00000000000E+00 0.  1.
</event>
<event>
12    1  0.1035051E+000  0.4029250E+03  0.7818608E-02  0.1042788E+00
         21   -1    0    0  503  502  0.00000000000E+00  0.00000000000E+00  0.55045937618E+03  0.55045937618E+03  0.00000000000E+00 0.  1.
         21   -1    0    0  501  503 -0.00000000000E+00 -0.00000000000E+00 -0.59104408497E+03  0.59104408497E+03  0.00000000000E+00 0.  1.
          6    2    1    2  501    0 -0.35422485446E+03  0.87793321478E+02 -0.42437001064E+03  0.58505069042E+03  0.17032759499E+03 0.  0.
         24    2    3    3    0    0 -0.11941260522E+03  0.69914752299E+02 -0.11572699849E+03  0.19679943855E+03  0.78675523259E+02 0.  0.
         -6    2    1    2    0  502  0.35422485446E+03 -0.87793321478E+02  0.38378530185E+03  0.55645277073E+03  0.17077942887E+03 0.  0.
        -24    2    5    5    0    0  0.23803233681E+03 -0.12554158832E+03  0.28253063879E+03  0.39770696890E+03  0.76988229584E+02 0.  0.
          5    1    3    3  501    0 -0.23481224924E+03  0.17878569179E+02 -0.30864301214E+03  0.38825125187E+03  0.47000000000E+01 0. -1.
        -11    1    4    4    0    0 -0.40762707422E+02  0.85345978950E+00 -0.14405108886E-01  0.40771643547E+02  0.00000000000E+00 0.  1.
         12    1    4    4    0    0 -0.78649897796E+02  0.69061292510E+02 -0.11571259339E+03  0.15602779501E+03  0.00000000000E+00 0. -1.
         -5    1    5    5    0  502  0.11619251765E+03  0.37748266838E+02  0.10125466306E+03  0.15874580183E+03  0.47000000000E+01 0.  1.
         13    1    6    6    0    0  0.18317284597E+03 -0.57691237978E+02  0.20619153288E+03  0.28177210415E+03  0.00000000000E+00 0. -1.
        -14    1    6    6    0    0  0.54859490841E+02 -0.67850350338E+02  0.76339105903E+02  0.11593486476E+03  0.00000000000E+00 0.  1.
</event>
<event>
12    1  0.1035051E+000  0.2367547E+03  0.7818608E-02  0.1122603E+00
         21   -1    0    0  501  502  0.00000000000E+00  0.00000000000E+00  0.14980350164E+03  0.14980350164E+03  0.00000000000E+00 0.  1.
         21   -1    0    0  502  503 -0.00000000000E+00 -0.00000000000E+00 -0.92689149083E+03  0.92689149083E+03  0.00000000000E+00 0. -1.
         -6    2    1    2    0  503  0.13265143784E+03  0.97762062914E+02  0.30555510667E+02  0.23506513237E+03  0.16482764428E+03 0.  0.
        -24    2    3    3    0    0  0.93037627550E+02  0.36272827278E+02 -0.38553760842E+02  0.13432605617E+03  0.81150346595E+02 0.  0.
          6    2    1    2  501    0 -0.13265143784E+03 -0.97762062914E+02 -0.80764349985E+03  0.84162986010E+03  0.16999698131E+03 0.  0.
         24    2    5    5    0    0 -0.11156920073E+03 -0.10490220562E+03 -0.79857779901E+03  0.81714069329E+03  0.80871826123E+02 0.  0.
          5    1    5    5  501    0 -0.21082237107E+02  0.71401427075E+01 -0.90657008399E+01  0.24489166810E+02  0.47000000000E+01 0. -1.
        -13    1    6    6    0    0 -0.48704376175E+02 -0.39477591573E+02 -0.15501094072E+03  0.16720941432E+03  0.00000000000E+00 0.  1.
         14    1    6    6    0    0 -0.62864824559E+02 -0.65424614048E+02 -0.64356685830E+03  0.64993127897E+03  0.00000000000E+00 0. -1.
         -5    1    3    3    0  503  0.39613810290E+02  0.61489235635E+02  0.69109271510E+02  0.10073907620E+03  0.47000000000E+01 0.  1.
         11    1    4    4    0    0  0.29750585822E+02  0.25309883572E+02 -0.55529364459E+02  0.67891073643E+02  0.00000000000E+00 0. -1.
        -12    1    4    4    0    0  0.63287041728E+02  0.10962943706E+02  0.16975603617E+02  0.66434982528E+02  0.00000000000E+00 0.  1.
</event>
<event>
12    1  0.1035051E+000  0.1965600E+03  0.7818608E-02  0.1153416E+00
         21   -1    0    0  503  502  0.00000000000E+00  0.00000000000E+00  0.48050293497E+03  0.48050293497E+03  0.00000000000E+00 0.  1.
         21   -1    0    0  501  503 -0.00000000000E+00 -0.00000000000E+00 -0.84080404750E+02  0.84080404750E+02  0.00000000000E+00 0.  1.
          6    2    1    2  501    0  0.19299752760E+02 -0.92101928512E+02  0.26584033810E+03  0.32860122515E+03  0.16867849335E+03 0.  0.
         24    2    3    3    0    0 -0.45598141109E+01 -0.40729343266E+02  0.25564773403E+03  0.27085695596E+03  0.79549075223E+02 0.  0.
         -6    2    1    2    0  502 -0.19299752760E+02  0.92101928512E+02  0.13058219213E+03  0.23598211457E+03  0.17257057630E+03 0.  0.
        -24    2    5    5    0    0 -0.69462293533E+02  0.64822304585E+02  0.12866200189E+03  0.17865641781E+03  0.79606931236E+02 0.  0.
          5    1    3    3  501    0  0.23859566871E+02 -0.51372585246E+02  0.10192604061E+02  0.57744269185E+02  0.47000000000E+01 0. -1.
        -11    1    4    4    0    0  0.19969829422E+02  0.14870891948E+02  0.11461627256E+03  0.11728950272E+03  0.00000000000E+00 0.  1.
         12    1    4    4    0    0 -0.24529643533E+02 -0.55600235214E+02  0.14103146148E+03  0.15356745324E+03  0.00000000000E+00 0. -1.
         -5    1    5    5    0  502  0.50162540773E+02  0.27279623928E+02  0.19201902347E+01  0.57325696760E+02  0.47000000000E+01 0.  1.
         11    1    6    6    0    0 -0.23154937786E+02  0.71416169438E+02  0.62822491298E+02  0.97893236814E+02  0.00000000000E+00 0. -1.
        -12    1    6    6    0    0 -0.46307355747E+02 -0.65938648535E+01  0.65839510592E+02  0.80763180999E+02  0.00000000000E+00 0.  1.
</event>
<event>
12    1  0.1035051E+000  0.1886848E+03  0.7818608E-02  0.1163411E+00
         21   -1    0    0  501  502  0.00000000000E+00  0.00000000000E+00  0.44207869782E+03  0.44207869782E+03  0.00000000000E+00 0. -1.
         21   -1    0    0  502  503 -0.00000000000E+00 -0.00000000000E+00 -0.24235140013E+03  0.24235140013E+03  0.00000000000E+00 0. -1.
         -6    2    1    2    0  503  0.18336390404E+02  0.72337792992E+02 -0.18399482238E+03  0.26354517353E+03  0.17330027214E+03 0.  0.
        -24    2    3    3    0    0  0.23328132254E+02  0.98886240737E+02 -0.20017157629E+03  0.23170942427E+03  0.57427406165E+02 0.  0.
          6    2    1    2  501    0 -0.18336390404E+02 -0.72337792992E+02  0.38372212007E+03  0.42088492442E+03  0.15598870044E+03 0.  0.
         24    2    5    5    0    0 -0.31400577818E+02 -0.10258328904E+03  0.25400979878E+03  0.28697137276E+03  0.79512662069E+02 0.  0.
          5    1    5    5  501    0  0.13064187414E+02  0.30245496047E+02  0.12971232129E+03  0.13391355166E+03  0.47000000000E+01 0. -1.
        -13    1    6    6    0    0 -0.56006467000E+02 -0.48420175001E+02  0.14252332024E+03  0.16060552452E+03  0.00000000000E+00 0.  1.
         14    1    6    6    0    0  0.24605889182E+02 -0.54163114037E+02  0.11148647854E+03  0.12636584824E+03  0.00000000000E+00 0. -1.
         -5    1    3    3    0  503 -0.49917418503E+01 -0.26548447745E+02  0.16176753909E+02  0.31835749267E+02  0.47000000000E+01 0.  1.
         11    1    4    4    0    0 -0.13581672896E+02  0.64654528859E+02 -0.12178154891E+03  0.13854752107E+03  0.00000000000E+00 0. -1.
        -12    1    4    4    0    0  0.36909805150E+02  0.34231711878E+02 -0.78390027377E+02  0.93161903193E+02  0.00000000000E+00 0.  1.
</event>
<event>
12    1  0.1035051E+000  0.1801320E+03  0.7818608E-02  0.1167812E+00
         21   -1    0    0  501  502  0.00000000000E+00  0.00000000000E+00  0.12980521228E+03  0.12980521228E+03  0.00000000000E+00 0. -1.
         21   -1    0    0  502  503 -0.00000000000E+00 -0.00000000000E+00 -0.25623000945E+03  0.25623000945E+03  0.00000000000E+00 0. -1.
         -6    2    1    2    0  503 -0.40920741283E+02  0.33067126260E+02 -0.95117634143E+02  0.20320289143E+03  0.17168607647E+03 0.  0.
        -24    2    3    3    0    0  0.10753399746E+02  0.70401956269E+02 -0.29304933110E+02  0.11145591327E+03  0.80570282652E+02 0.  0.
          6    2    1    2  501    0  0.40920741283E+02 -0.33067126260E+02 -0.31307163031E+02  0.18283233030E+03  0.17227762663E+03 0.  0.
         24    2    5    5    0    0  0.29324314431E+02 -0.71961793636E+02 -0.64628801943E+02  0.13010952796E+03  0.81934071463E+02 0.  0.
          5    1    5    5  501    0  0.11596426852E+02  0.38894667377E+02  0.33321638912E+02  0.52722802333E+02  0.47000000000E+01 0. -1.
        -13    1    6    6    0    0 -0.50192861497E+01  0.10433705308E+02  0.87838094810E+01  0.14533091512E+02  0.00000000000E+00 0.  1.
         14    1    6    6    0    0  0.34343600581E+02 -0.82395498944E+02 -0.73412611424E+02  0.11557643645E+03  0.00000000000E+00 0. -1.
         -5    1    3    3    0  503 -0.51674141029E+02 -0.37334830009E+02 -0.65812701032E+02  0.91746978153E+02  0.47000000000E+01 0.  1.
         11    1    4    4    0    0  0.30920903311E+02  0.41835200061E+02 -0.48878542143E+02  0.71382057323E+02  0.00000000000E+00 0. -1.
        -12    1    4    4    0    0 -0.20167503565E+02  0.28566756209E+02  0.19573609032E+02  0.40073855952E+02  0.00000000000E+00 0.  1.
</event>
<event>
12    1  0.1035051E+000  0.1870797E+03  0.7818608E-02  0.1162802E+00
         21   -1    0    0  501  502  0.00000000000E+00  0.00000000000E+00  0.35154518472E+02  0.35154518472E+02  0.00000000000E+00 0. -1.
         21   -1    0    0  502  503 -0.00000000000E+00 -0.00000000000E+00 -0.96160385211E+03  0.96160385211E+03  0.00000000000E+00 0. -1.
         -6    2    1    2    0  503  0.67101112451E+02  0.29866654177E+02 -0.50318722071E+03  0.53683908939E+03  0.17205886345E+03 0.  0.
        -24    2    3    3    0    0  0.17151301623E+02  0.33029317034E+02 -0.46587294550E+03  0.47423372882E+03  0.80466920339E+02 0.  0.
          6    2    1    2  501    0 -0.67101112451E+02 -0.29866654177E+02 -0.42326211293E+03  0.45991928119E+03  0.16425697137E+03 0.  0.
         24    2    5    5    0    0 -0.69283316791E+02 -0.24486579201E+02 -0.43404249588E+03  0.44680387501E+03  0.76426722732E+02 0.  0.
          5    1    5    5  501    0  0.21822043405E+01 -0.53800749756E+01  0.10780382955E+02  0.13115406176E+02  0.47000000000E+01 0. -1.
        -13    1    6    6    0    0  0.97984686697E+01  0.12037318039E+02 -0.11652979589E+03  0.11755892286E+03  0.00000000000E+00 0.  1.
         14    1    6    6    0    0 -0.79081785461E+02 -0.36523897240E+02 -0.31751270000E+03  0.32924495216E+03  0.00000000000E+00 0. -1.
         -5    1    3    3    0  503  0.49949810828E+02 -0.31626628578E+01 -0.37314275208E+02  0.62605360573E+02  0.47000000000E+01 0.  1.
         11    1    4    4    0    0  0.17197353930E+02  0.49322814156E+02 -0.16840705280E+03  0.17632193401E+03  0.00000000000E+00 0. -1.
        -12    1    4    4    0    0 -0.46052307038E-01 -0.16293497121E+02 -0.29746589269E+03  0.29791179481E+03  0.00000000000E+00 0.  1.
</event>
<event>
12    1  0.1035051E+000  0.2025545E+03  0.7818608E-02  0.1147635E+00
         21   -1    0    0  503  502  0.00000000000E+00  0.00000000000E+00  0.22720331176E+04  0.22720331176E+04  0.00000000000E+00 0. -1.
         21   -1    0    0  501  503 -0.00000000000E+00 -0.00000000000E+00 -0.18162515782E+02  0.18162515782E+02  0.00000000000E+00 0. -1.
          6    2    1    2  501    0  0.10050236827E+03 -0.38022293974E+02  0.10337861664E+04  0.10534117600E+04  0.17151115834E+03 0.  0.
         24    2    3    3    0    0 -0.11194749284E+02 -0.15642310425E+02  0.55690867588E+03  0.56309416835E+03  0.80980027613E+02 0.  0.
         -6    2    1    2    0  502 -0.10050236827E+03  0.38022293974E+02  0.12200844354E+04  0.12367838733E+04  0.17170293824E+03 0.  0.
        -24    2    5    5    0    0 -0.51192492860E+02 -0.25715648672E+02  0.94502559334E+03  0.95012476266E+03  0.79885709855E+02 0.  0.
          5    1    3    3  501    0  0.11169711755E+03 -0.22379983548E+02  0.47687749049E+03  0.49031759164E+03  0.47000000000E+01 0. -1.
        -11    1    4    4    0    0  0.12410220164E+02 -0.43574842202E+02  0.25689441759E+03  0.26085920000E+03  0.00000000000E+00 0.  1.
         12    1    4    4    0    0 -0.23604969448E+02  0.27932531777E+02  0.30001425830E+03  0.30223496835E+03  0.00000000000E+00 0. -1.
         -5    1    5    5    0  502 -0.49309875407E+02  0.63737942646E+02  0.27505884206E+03  0.28665911069E+03  0.47000000000E+01 0.  1.
         11    1    6    6    0    0 -0.17673497244E+02  0.23368193675E+02  0.14715606670E+03  0.15004443658E+03  0.00000000000E+00 0. -1.
        -12    1    6    6    0    0 -0.33518995616E+02 -0.49083842347E+02  0.79786952664E+03  0.80008032608E+03  0.00000000000E+00 0.  1.
</event>
<event>
12    1  0.1035051E+000  0.1776873E+03  0.7818608E-02  0.1170844E+00
         21   -1    0    0  501  502  0.00000000000E+00  0.00000000000E+00  0.39715446067E+02  0.39715446067E+02  0.00000000000E+00 0.  1.
         21   -1    0    0  502  503 -0.00000000000E+00 -0.00000000000E+00 -0.88748563520E+03  0.88748563520E+03  0.00000000000E+00 0.  1.
         -6    2    1    2    0  503 -0.14809364835E+02 -0.36445435524E+02 -0.58786494895E+03  0.61413189308E+03  0.17327780251E+03 0.  0.
        -24    2    3    3    0    0 -0.20006107690E+02 -0.82838050475E+02 -0.50872479018E+03  0.52212898232E+03  0.80965270875E+02 0.  0.
          6    2    1    2  501    0  0.14809364835E+02  0.36445435524E+02 -0.25990524018E+03  0.31306918818E+03  0.17004115871E+03 0.  0.
         24    2    5    5    0    0 -0.20318814456E+02  0.80518278104E+02 -0.14941542411E+03  0.18894628986E+03  0.80496485377E+02 0.  0.
          5    1    5    5  501    0  0.35128179290E+02 -0.44072842580E+02 -0.11048981607E+03  0.12412289832E+03  0.47000000000E+01 0. -1.
        -13    1    6    6    0    0 -0.18320041751E+02  0.18164955098E+02 -0.11467286463E+03  0.11753916541E+03  0.00000000000E+00 0.  1.
         14    1    6    6    0    0 -0.19987727053E+01  0.62353323005E+02 -0.34742559485E+02  0.71407124447E+02  0.00000000000E+00 0. -1.
         -5    1    3    3    0  503  0.51967428555E+01  0.46392614951E+02 -0.79140158771E+02  0.92002910762E+02  0.47000000000E+01 0.  1.
         11    1    4    4    0    0  0.16425101145E+02 -0.50115501326E+02 -0.13059887986E+03  0.14084535789E+03  0.00000000000E+00 0. -1.
        -12    1    4    4    0    0 -0.36431208835E+02 -0.32722549149E+02 -0.37812591032E+03  0.38128362443E+03  0.00000000000E+00 0.  1.
</event>
<event>
12    1  0.1035051E+000  0.1934694E+03  0.7818608E-02  0.1155481E+00
         21   -1    0    0  501  502  0.00000000000E+00  0.00000000000E+00  0.27477404358E+03  0.27477404358E+03  0.00000000000E+00 0.  1.
         21   -1    0    0  502  503 -0.00000000000E+00 -0.00000000000E+00 -0.14723180002E+03  0.14723180002E+03  0.00000000000E+00 0.  1.
         -6    2    1    2    0  503 -0.62329100400E+02  0.65462642949E+02  0.12232225922E+03  0.22846601051E+03  0.17048081557E+03 0.  0.
        -24    2    3    3    0    0 -0.14154527656E+02 -0.27955050420E+02  0.75909993336E+02  0.11347103967E+03  0.78303986226E+02 0.  0.
          6    2    1    2  501    0  0.62329100400E+02 -0.65462642949E+02  0.52199843399E+01  0.19353983309E+03  0.17105596855E+03 0.  0.
         24    2    5    5    0    0  0.62858308177E+02 -0.10493479550E+03  0.21089042345E+02  0.15073506829E+03  0.85520961709E+02 0.  0.
          5    1    5    5  501    0 -0.52920777726E+00  0.39472152549E+02 -0.15869058005E+02  0.42804764801E+02  0.47000000000E+01 0. -1.
        -13    1    6    6    0    0  0.33609687706E+02 -0.44004550113E+02  0.52411579019E+02  0.76242935107E+02  0.00000000000E+00 0.  1.
         14    1    6    6    0    0  0.29248620471E+02 -0.60930245384E+02 -0.31322536675E+02  0.74492133181E+02  0.00000000000E+00 0. -1.
         -5    1    3    3    0  503 -0.48174572744E+02  0.93417693368E+02  0.46412265883E+02  0.11499497084E+03  0.47000000000E+01 0.  1.
         13    1    4    4    0    0 -0.35972405325E+02  0.72284722410E+01  0.57393331716E+02  0.68119448627E+02  0.00000000000E+00 0. -1.
        -14    1    4    4    0    0  0.21817877668E+02 -0.35183522661E+02  0.18516661620E+02  0.45351591045E+02  0.00000000000E+00 0.  1.
</event>
<event>
12    1  0.1035051E+000  0.2153510E+03  0.7818608E-02  0.1137871E+00
         21   -1    0    0  503  502  0.00000000000E+00  0.00000000000E+00  0.24368716128E+03  0.24368716128E+03  0.00000000000E+00 0.  1.
         21   -1    0    0  501  503 -0.00000000000E+00 -0.00000000000E+00 -0.19227585590E+03  0.19227585590E+03  0.00000000000E+00 0.  1.
          6    2    1    2  501    0  0.10190902083E+03  0.70971947692E+02  0.57794510696E+02  0.22297142984E+03  0.17593631568E+03 0.  0.
         24    2    3    3    0    0  0.54055429287E+02  0.11161120237E+03  0.61355893258E+02  0.15991360963E+03  0.80179592030E+02 0.  0.
         -6    2    1    2    0  502 -0.10190902083E+03 -0.70971947692E+02 -0.63832053129E+01  0.21299158733E+03  0.17292254069E+03 0.  0.
        -24    2    5    5    0    0 -0.83464232374E+02 -0.51264608481E+02  0.60709378143E+02  0.14052025373E+03  0.80411286174E+02 0.  0.
          5    1    3    3  501    0  0.47853591543E+02 -0.40639254677E+02 -0.35613825618E+01  0.63057820213E+02  0.47000000000E+01 0. -1.
        -11    1    4    4    0    0  0.63911427914E+02  0.41840717248E+02  0.40321323132E+02  0.86377805813E+02  0.00000000000E+00 0.  1.
         12    1    4    4    0    0 -0.98559986266E+01  0.69770485121E+02  0.21034570125E+02  0.73535803819E+02  0.00000000000E+00 0. -1.
         -5    1    5    5    0  502 -0.18444788456E+02 -0.19707339211E+02 -0.67092583455E+02  0.72471333606E+02  0.47000000000E+01 0.  1.
         13    1    6    6    0    0 -0.49746295583E+02 -0.63432088149E+02  0.66130097246E+02  0.10426655021E+03  0.00000000000E+00 0. -1.
        -14    1    6    6    0    0 -0.33717936791E+02  0.12167479668E+02 -0.54207191035E+01  0.36253703515E+02  0.00000000000E+00 0.  1.
</event>
<event>
12    1  0.1035051E+000  0.1951964E+03  0.7818608E-02  0.1154061E+00
         21   -1    0    0  501  502  0.00000000000E+00  0.00000000000E+00  0.89610332476E+03  0.89610332476E+03  0.00000000000E+00 0. -1.
         21   -1    0    0  502  503 -0.00000000000E+00 -0.00000000000E+00 -0.65437643233E+02  0.65437643233E+02  0.00000000000E+00 0. -1.
         -6    2    1    2    0  503 -0.57602099892E+02  0.72538740921E+02  0.70176792902E+03  0.72840912046E+03  0.17181894460E+03 0.  0.
        -24    2    3    3    0    0 -0.56992577339E+02 -0.94893801485E+01  0.51418879248E+03  0.52362385090E+03  0.80334430437E+02 0.  0.
          6    2    1    2  501    0  0.57602099892E+02 -0.72538740921E+02  0.12889775251E+03  0.23313184754E+03  0.17075115486E+03 0.  0.
         24    2    5    5    0    0  0.31616158447E+02 -0.45391229544E+02  0.15749571300E+03  0.18567460499E+03  0.81303223358E+02 0.  0.
          5    1    5    5  501    0  0.25985941445E+02 -0.27147511377E+02 -0.28597960486E+02  0.47457242553E+02  0.47000000000E+01 0. -1.
        -11    1    6    6    0    0  0.33840136355E+02 -0.37130553520E+02  0.31302783199E+02  0.59192035522E+02  0.00000000000E+00 0.  1.
         12    1    6    6    0    0 -0.22239779074E+01 -0.82606760237E+01  0.12619292980E+03  0.12648256946E+03  0.00000000000E+00 0. -1.
         -5    1    3    3    0  503 -0.60952255317E+00  0.82028121069E+02  0.18757913654E+03  0.20478526956E+03  0.47000000000E+01 0.  1.
         11    1    4    4    0    0  0.15463311790E+02  0.11270784290E+02  0.18140838024E+03  0.18241476095E+03  0.00000000000E+00 0. -1.
        -12    1    4    4    0    0 -0.72455889130E+02 -0.20760164438E+02  0.33278041224E+03  0.34120908995E+03  0.00000000000E+00 0.  1.
</event>
<event>
12    1  0.1035051E+000  0.2180874E+03  0.7818608E-02  0.1135442E+00
         21   -1    0    0  501  502  0.00000000000E+00  0.00000000000E+00  0.76422760531E+02  0.76422760531E+02  0.00000000000E+00 0.  1.
         21   -1    0    0  502  503 -0.00000000000E+00 -0.00000000000E+00 -0.62924255641E+03  0.62924255641E+03  0.00000000000E+00 0.  1.
         -6    2    1    2    0  503 -0.10326244937E+03  0.84918113607E+02 -0.23517331270E+03  0.32073138160E+03  0.17230180692E+03 0.  0.
        -24    2    3    3    0    0 -0.91490576901E+02  0.11063489657E+03 -0.12676977259E+03  0.20860044289E+03  0.82661741638E+02 0.  0.
          6    2    1    2  501    0  0.10326244937E+03 -0.84918113607E+02 -0.31764648317E+03  0.38493393534E+03  0.17146610987E+03 0.  0.
         24    2    5    5    0    0  0.10728839403E+03 -0.10578940000E+02 -0.14596400881E+03  0.19774557308E+03  0.78581844836E+02 0.  0.
          5    1    5    5  501    0 -0.40259446572E+01 -0.74339173607E+02 -0.17168247436E+03  0.18718836226E+03  0.47000000000E+01 0. -1.
        -11    1    6    6    0    0  0.71910425292E+02 -0.44230404567E+02 -0.87798649663E+02  0.12180328746E+03  0.00000000000E+00 0.  1.
         12    1    6    6    0    0  0.35377968738E+02  0.33651464567E+02 -0.58165359148E+02  0.75942285614E+02  0.00000000000E+00 0. -1.
         -5    1    3    3    0  503 -0.11771872471E+02 -0.25716782962E+02 -0.10840354011E+03  0.11213093871E+03  0.47000000000E+01 0.  1.
         13    1    4    4    0    0 -0.54902049046E+02  0.16387443199E+02 -0.76820722894E+02  0.95834267098E+02  0.00000000000E+00 0. -1.
        -14    1    4    4    0    0 -0.36588527854E+02  0.94247453370E+02 -0.49949049696E+02  0.11276617579E+03  0.00000000000E+00 0.  1.
</event>
<event>
12    1  0.1035051E+000  0.1877259E+03  0.7818608E-02  0.1160760E+00
         21   -1    0    0  501  502  0.00000000000E+00  0.00000000000E+00  0.13697827251E+03  0.13697827251E+03  0.00000000000E+00 0. -1.
         21   -1    0    0  502  503 -0.00000000000E+00 -0.00000000000E+00 -0.26452967612E+03  0.26452967612E+03  0.00000000000E+00 0. -1.
         -6    2    1    2    0  503  0.56795115413E+01  0.73532558791E+02 -0.99881275586E+02  0.21175379013E+03  0.17153455735E+03 0.  0.
        -24    2    3    3    0    0 -0.14593374473E+01 -0.14372595748E+02 -0.38979332941E+01  0.81319241953E+02  0.79930745358E+02 0.  0.
          6    2    1    2  501    0 -0.56795115413E+01 -0.73532558791E+02 -0.27670128021E+02  0.18975415851E+03  0.17263171966E+03 0.  0.
         24    2    5    5    0    0 -0.32432248668E+02 -0.63399737300E+02  0.41429722640E+02  0.11481910412E+03  0.79972666018E+02 0.  0.
          5    1    5    5  501    0  0.26752737126E+02 -0.10132821491E+02 -0.69099850660E+02  0.74935054390E+02  0.47000000000E+01 0. -1.
        -13    1    6    6    0    0 -0.12962998100E+02  0.11115771215E+01 -0.19852003643E+02  0.23735563445E+02  0.00000000000E+00 0.  1.
         14    1    6    6    0    0 -0.19469250568E+02 -0.64511314421E+02  0.61281726283E+02  0.91083540677E+02  0.00000000000E+00 0. -1.
         -5    1    3    3    0  503  0.71388489886E+01  0.87905154539E+02 -0.95983342292E+02  0.13043454817E+03  0.47000000000E+01 0.  1.
         13    1    4    4    0    0  0.22512184864E+01 -0.10899104811E+02 -0.41708912081E+02  0.43168180612E+02  0.00000000000E+00 0. -1.
        -14    1    4    4    0    0 -0.37105559337E+01 -0.34734909369E+01  0.37810978787E+02  0.38151061341E+02  0.00000000000E+00 0.  1.
</event>
<event>
12    1  0.1035051E+000  0.2172585E+03  0.7818608E-02  0.1136303E+00
         21   -1    0    0  501  502  0.00000000000E+00  0.00000000000E+00  0.32778525825E+03  0.32778525825E+03  0.00000000000E+00 0.  1.
         21   -1    0    0  502  503 -0.00000000000E+00 -0.00000000000E+00 -0.15514159137E+03  0.15514159137E+03  0.00000000000E+00 0. -1.
         -6    2    1    2    0  503  0.82292036163E+02 -0.10066903254E+03  0.15490154882E+03  0.26682529673E+03  0.17405463459E+03 0.  0.
        -24    2    3    3    0    0 -0.83757409162E+01 -0.97078960616E+02  0.10730521238E+03  0.16425319693E+03  0.77267240568E+02 0.  0.
          6    2    1    2  501    0 -0.82292036163E+02  0.10066903254E+03  0.17742118054E+02  0.21610155288E+03  0.17169410321E+03 0.  0.
         24    2    5    5    0    0  0.19342553016E+02  0.70677719191E+02  0.99522744917E+01  0.10974441746E+03  0.81088316346E+02 0.  0.
          5    1    5    5  501    0 -0.10163458918E+03  0.29991313346E+02  0.77898435625E+01  0.10635713543E+03  0.47000000000E+01 0. -1.
        -13    1    6    6    0    0  0.22057118899E+02  0.69092161806E+02 -0.23427146668E+02  0.76217284904E+02  0.00000000000E+00 0.  1.
         14    1    6    6    0    0 -0.27145658829E+01  0.15855573856E+01  0.33379421160E+02  0.33527132552E+02  0.00000000000E+00 0. -1.
         -5    1    3    3    0  503  0.90667777079E+02 -0.35900719217E+01  0.47596336438E+02  0.10257209981E+03  0.47000000000E+01 0.  1.
         11    1    4    4    0    0 -0.38176579247E+02 -0.51829493301E+02  0.33130457653E+02  0.72397339752E+02  0.00000000000E+00 0. -1.
        -12    1    4    4    0    0  0.29800838331E+02 -0.45249467315E+02  0.74174754732E+02  0.91855857173E+02  0.00000000000E+00 0.  1.
</event>
<event>
12    1  0.1035051E+000  0.2920389E+03  0.7818608E-02  0.1089557E+00
         21   -1    0    0  503  502  0.00000000000E+00  0.00000000000E+00  0.24990990567E+03  0.24990990567E+03  0.00000000000E+00 0. -1.
         21   -1    0    0  501  503 -0.00000000000E+00 -0.00000000000E+00 -0.33913950753E+03  0.33913950753E+03  0.00000000000E+00 0. -1.
          6    2    1    2  501    0  0.94765374245E+02 -0.21613233799E+03 -0.36429620992E+02  0.29430229499E+03  0.17202633481E+03 0.  0.
         24    2    3    3    0    0  0.11678163208E+02 -0.11198722405E+03  0.35169788666E+02  0.14298060170E+03  0.80802355052E+02 0.  0.
         -6    2    1    2    0  502 -0.94765374245E+02  0.21613233799E+03 -0.52799980865E+02  0.29474711821E+03  0.16850626704E+03 0.  0.
        -24    2    5    5    0    0 -0.41277699540E+02  0.83658987554E+02  0.36394499867E+02  0.12626012965E+03  0.76905045613E+02 0.  0.
          5    1    3    3  501    0  0.83087211037E+02 -0.10414511395E+03 -0.71599409658E+02  0.15132169329E+03  0.47000000000E+01 0. -1.
        -13    1    4    4    0    0 -0.29984842328E+02 -0.21909634917E+02  0.21184528354E+02  0.42754030373E+02  0.00000000000E+00 0.  1.
         14    1    4    4    0    0  0.41663005536E+02 -0.90077589129E+02  0.13985260313E+02  0.10022657133E+03  0.00000000000E+00 0. -1.
         -5    1    5    5    0  502 -0.53487674705E+02  0.13247335044E+03 -0.89194480733E+02  0.16848698856E+03  0.47000000000E+01 0.  1.
         11    1    6    6    0    0  0.11208528904E+02  0.56219044228E+02  0.34699750029E+02  0.67009586673E+02  0.00000000000E+00 0. -1.
        -12    1    6    6    0    0 -0.52486228444E+02  0.27439943327E+02  0.16947498386E+01  0.59250542977E+02  0.00000000000E+00 0.  1.
</event>
<event>
12    1  0.1035051E+000  0.2072292E+03  0.7818608E-02  0.1144452E+00
         21   -1    0    0  503  502  0.00000000000E+00  0.00000000000E+00  0.11411888352E+03  0.11411888352E+03  0.00000000000E+00 0.  1.
         21   -1    0    0  501  503 -0.00000000000E+00 -0.00000000000E+00 -0.48722068308E+03  0.48722068308E+03  0.00000000000E+00 0.  1.
          6    2    1    2  501    0  0.72655592519E+02 -0.88368912929E+02 -0.38137723808E+02  0.20745520881E+03  0.16880544360E+03 0.  0.
         24    2    3    3    0    0 -0.16445867670E+02 -0.73398024042E+01 -0.28488710415E+02  0.86542097777E+02  0.79709402229E+02 0.  0.
         -6    2    1    2    0  502 -0.72655592519E+02  0.88368912929E+02 -0.33496407575E+03  0.39388435779E+03  0.17278904876E+03 0.  0.
        -24    2    5    5    0    0 -0.95595995624E+02  0.35601038846E+02 -0.13716706312E+03  0.18783470640E+03  0.77852715940E+02 0.  0.
          5    1    3    3  501    0  0.89101460189E+02 -0.81029110525E+02 -0.96490133929E+01  0.12091311103E+03  0.47000000000E+01 0. -1.
        -13    1    4    4    0    0 -0.13725297535E+01  0.13221965056E+02  0.24424242990E+02  0.27807334347E+02  0.00000000000E+00 0.  1.
         14    1    4    4    0    0 -0.15073337916E+02 -0.20561767460E+02 -0.52912953406E+02  0.58734763430E+02  0.00000000000E+00 0. -1.
         -5    1    5    5    0  502  0.22940403105E+02  0.52767874084E+02 -0.19779701263E+03  0.20604965139E+03  0.47000000000E+01 0.  1.
         13    1    6    6    0    0 -0.87462845050E+02 -0.12155149130E+01 -0.11358779675E+03  0.14336462015E+03  0.00000000000E+00 0. -1.
        -14    1    6    6    0    0 -0.81331505744E+01  0.36816553759E+02 -0.23579266371E+02  0.44470086255E+02  0.00000000000E+00 0.  1.
</event>
<event>
12    1  0.1035051E+000  0.1917476E+03  0.7818608E-02  0.1157137E+00
         21   -1    0    0  503  502  0.00000000000E+00  0.00000000000E+00  0.44110145892E+02  0.44110145892E+02  0.00000000000E+00 0.  1.
         21   -1    0    0  501  503 -0.00000000000E+00 -0.00000000000E+00 -0.14205032504E+04  0.14205032504E+04  0.00000000000E+00 0.  1.
          6    2    1    2  501    0 -0.85803860744E+02 -0.55202190487E+01 -0.11596814394E+04  0.11752501559E+04  0.17017377218E+03 0.  0.
         24    2    3    3    0    0 -0.43533709185E+02  0.38603624134E+02 -0.98844446938E+03  0.99337693316E+03  0.79936466423E+02 0.  0.
         -6    2    1    2    0  502  0.85803860744E+02  0.55202190487E+01 -0.21671166508E+03  0.28936324036E+03  0.17138950887E+03 0.  0.
        -24    2    5    5    0    0 -0.10505254292E+02  0.35705060732E+02 -0.92811961773E+02  0.12948892476E+03  0.82268521674E+02 0.  0.
          5    1    3    3  501    0 -0.42270151559E+02 -0.44123843183E+02 -0.17123697005E+03  0.18187322277E+03  0.47000000000E+01 0. -1.
        -11    1    4    4    0    0 -0.61976410739E+02  0.42165674485E+02 -0.63057265143E+03  0.63501251037E+03  0.00000000000E+00 0.  1.
         12    1    4    4    0    0  0.18442701554E+02 -0.35620503512E+01 -0.35787181795E+03  0.35836442279E+03  0.00000000000E+00 0. -1.
         -5    1    5    5    0  502  0.96309115036E+02 -0.30184841684E+02 -0.12389970331E+03  0.15987431559E+03  0.47000000000E+01 0.  1.
         13    1    6    6    0    0  0.26995895887E+02  0.13025600922E+02 -0.37237753963E+01  0.30204489357E+02  0.00000000000E+00 0. -1.
        -14    1    6    6    0    0 -0.37501150179E+02  0.22679459811E+02 -0.89088186377E+02  0.99284435406E+02  0.00000000000E+00 0.  1.
</event>
<event>
12    1  0.1035051E+000  0.4816597E+03  0.7818608E-02  0.1018734E+00
         21   -1    0    0  503  502  0.00000000000E+00  0.00000000000E+00  0.52988623634E+03  0.52988623634E+03  0.00000000000E+00 0.  1.
         21   -1    0    0  501  503 -0.00000000000E+00 -0.00000000000E+00 -0.44642605094E+03  0.44642605094E+03  0.00000000000E+00 0. -1.
          6    2    1    2  501    0 -0.44817732439E+03  0.25234758933E+02 -0.28778231666E+02  0.48251864309E+03  0.17463203360E+03 0.  0.
         24    2    3    3    0    0 -0.15970095682E+03  0.62454822409E+02 -0.33866374823E+02  0.19156860104E+03  0.78400236660E+02 0.  0.
         -6    2    1    2    0  502  0.44817732439E+03 -0.25234758933E+02  0.11223841707E+03  0.49379364419E+03  0.17243837631E+03 0.  0.
        -24    2    5    5    0    0  0.18605358423E+03 -0.33447594071E+02  0.10688814504E+03  0.23144459954E+03  0.80042797020E+02 0.  0.
          5    1    3    3  501    0 -0.28847636757E+03 -0.37220063476E+02  0.50881431574E+01  0.29095004206E+03  0.47000000000E+01 0. -1.
        -13    1    4    4    0    0 -0.12898348068E+03  0.20261742886E+02 -0.45189315350E+02  0.13816421655E+03  0.00000000000E+00 0.  1.
         14    1    4    4    0    0 -0.30717476134E+02  0.42193079524E+02  0.11322940526E+02  0.53404384482E+02  0.00000000000E+00 0. -1.
         -5    1    5    5    0  502  0.26212374016E+03  0.82128351382E+01  0.53502720257E+01  0.26234904465E+03  0.47000000000E+01 0.  1.
         11    1    6    6    0    0  0.42413343250E+02 -0.41582392195E+02  0.16920358226E+02  0.61759902436E+02  0.00000000000E+00 0. -1.
        -12    1    6    6    0    0  0.14364024098E+03  0.81347981238E+01  0.89967786814E+02  0.16968469711E+03  0.00000000000E+00 0.  1.
</event>
<event>
12    1  0.1035051E+000  0.2479397E+03  0.7818608E-02  0.1114692E+00
         21   -1    0    0  501  502  0.00000000000E+00  0.00000000000E+00  0.11322562393E+04  0.11322562393E+04  0.00000000000E+00 0.  1.
         21   -1    0    0  502  503 -0.00000000000E+00 -0.00000000000E+00 -0.62735064103E+02  0.62735064103E+02  0.00000000000E+00 0.  1.
         -6    2    1    2    0  503 -0.15016799348E+02  0.17767930885E+03  0.75578710003E+03  0.79541700913E+03  0.17227488725E+03 0.  0.
        -24    2    3    3    0    0 -0.38476479768E+02  0.17649395945E+03  0.48643502801E+03  0.52500179069E+03  0.79857914676E+02 0.  0.
          6    2    1    2  501    0  0.15016799348E+02 -0.17767930885E+03  0.31373407515E+03  0.39957429426E+03  0.17156662166E+03 0.  0.
         24    2    5    5    0    0 -0.31103224938E+02 -0.29250779646E+02  0.13127409139E+03  0.15984148342E+03  0.80581598634E+02 0.  0.
          5    1    5    5  501    0  0.46120024286E+02 -0.14842852921E+03  0.18245998375E+03  0.23973281084E+03  0.47000000000E+01 0. -1.
        -13    1    6    6    0    0  0.21744884277E+02  0.86536329788E+01  0.19231758456E+02  0.30291680199E+02  0.00000000000E+00 0.  1.
         14    1    6    6    0    0 -0.52848109214E+02 -0.37904412625E+02  0.11204233294E+03  0.12954980322E+03  0.00000000000E+00 0. -1.
         -5    1    3    3    0  503  0.23459680421E+02  0.11853494011E+01  0.26935207202E+03  0.27041521844E+03  0.47000000000E+01 0.  1.
         11    1    4    4    0    0 -0.23205683269E+02  0.48376313572E+02  0.24960015062E+03  0.25530179522E+03  0.00000000000E+00 0. -1.
        -12    1    4    4    0    0 -0.15270796499E+02  0.12811764588E+03  0.23683487739E+03  0.26969999547E+03  0.00000000000E+00 0.  1.
</event>
<event>
12    1  0.1035051E+000  0.1999825E+03  0.7818608E-02  0.1149813E+00
         21   -1    0    0  503  502  0.00000000000E+00  0.00000000000E+00  0.11244510819E+03  0.11244510819E+03  0.00000000000E+00 0. -1.
         21   -1    0    0  501  503 -0.00000000000E+00 -0.00000000000E+00 -0.35709474998E+03  0.35709474998E+03  0.00000000000E+00 0. -1.
          6    2    1    2  501    0  0.11170851302E+02 -0.10035615326E+03 -0.10518278559E+03  0.22595669222E+03  0.17261767858E+03 0.  0.
         24    2    3    3    0    0  0.26463513225E+02  0.10274035831E+02 -0.71814745022E+02  0.10930155784E+03  0.77353730344E+02 0.  0.
         -6    2    1    2    0  502 -0.11170851302E+02  0.10035615326E+03 -0.13946685620E+03  0.24358316595E+03  0.17229512279E+03 0.  0.
        -24    2    5    5    0    0 -0.16175685872E+02 -0.14947965522E+02 -0.26725446724E+02  0.82174357056E+02  0.74520339292E+02 0.  0.
          5    1    3    3  501    0 -0.15292661923E+02 -0.11063018909E+03 -0.33368040568E+02  0.11665513438E+03  0.47000000000E+01 0. -1.
        -11    1    4    4    0    0 -0.11239617800E+02  0.14779487096E+02  0.85319125094E+01  0.20434181613E+02  0.00000000000E+00 0.  1.
         12    1    4    4    0    0  0.37703131025E+02 -0.45054512646E+01 -0.80346657531E+02  0.88867376222E+02  0.00000000000E+00 0. -1.
         -5    1    5    5    0  502  0.50048345707E+01  0.11530411878E+03 -0.11274140948E+03  0.16140880889E+03  0.47000000000E+01 0.  1.
         11    1    6    6    0    0  0.28551181099E+02  0.44869275701E+01 -0.11198788358E+02  0.30995408077E+02  0.00000000000E+00 0. -1.
        -12    1    6    6    0    0 -0.44726866971E+02 -0.19434893092E+02 -0.15526658366E+02  0.51178948979E+02  0.00000000000E+00 0.  1.
</event>
<event>
12    1  0.1035051E+000  0.3237728E+03  0.7818608E-02  0.1073976E+00
         21   -1    0    0  501  502  0.00000000000E+00  0.00000000000E+00  0.38554132070E+03  0.38554132070E+03  0.00000000000E+00 0. -1.
         21   -1    0    0  502  503 -0.00000000000E+00 -0.00000000000E+00 -0.32686863479E+03  0.32686863479E+03  0.00000000000E+00 0.  1.
         -6    2    1    2    0  503 -0.96450589438E+02 -0.25673900321E+03  0.17588570778E+03  0.36807331719E+03  0.17124413174E+03 0.  0.
        -24    2    3    3    0    0 -0.13441526557E+03 -0.18859421096E+03  0.12243898922E+03  0.27339665127E+03  0.78225205769E+02 0.  0.
          6    2    1    2  501    0  0.96450589438E+02  0.25673900321E+03 -0.11721302187E+03  0.34433663830E+03  0.17207904001E+03 0.  0.
         24    2    5    5    0    0 -0.67879972199E+01  0.66153318842E+02 -0.56570132567E+02  0.11921276377E+03  0.81173669671E+02 0.  0.
          5    1    5    5  501    0  0.10323858666E+03  0.19058568437E+03 -0.60642889298E+02  0.22512387453E+03  0.47000000000E+01 0. -1.
        -13    1    6    6    0    0  0.20279346268E+02 -0.11278920210E+01 -0.39941546474E+02  0.44809052213E+02  0.00000000000E+00 0.  1.
         14    1    6    6    0    0 -0.27067343487E+02  0.67281210863E+02 -0.16628586093E+02  0.74403711561E+02  0.00000000000E+00 0. -1.
         -5    1    3    3    0  503  0.37964676136E+02 -0.68144792252E+02  0.53446718567E+02  0.94676665925E+02  0.47000000000E+01 0.  1.
         13    1    4    4    0    0 -0.41669324426E+02 -0.12300932779E+03  0.77479419843E+02  0.15123057833E+03  0.00000000000E+00 0. -1.
        -14    1    4    4    0    0 -0.92745941148E+02 -0.65584883165E+02  0.44959569372E+02  0.12216607294E+03  0.00000000000E+00 0.  1.
</event>
<event>
12    1  0.1035051E+000  0.2214567E+03  0.7818608E-02  0.1135189E+00
         21   -1    0    0  501  502  0.00000000000E+00  0.00000000000E+00  0.83542660155E+03  0.83542660155E+03  0.00000000000E+00 0. -1.
         21   -1    0    0  502  503 -0.00000000000E+00 -0.00000000000E+00 -0.72748311563E+02  0.72748311563E+02  0.00000000000E+00 0. -1.
         -6    2    1    2    0  503  0.11266808910E+03 -0.38662415964E+02  0.16832096124E+03  0.27816362149E+03  0.18669272514E+03 0.  0.
        -24    2    3    3    0    0  0.65797674522E+02  0.70306157699E+00  0.37983010597E+01  0.10256102386E+03  0.78578039269E+02 0.  0.
          6    2    1    2  501    0 -0.11266808910E+03  0.38662415964E+02  0.59435732875E+03  0.63001129162E+03  0.17165288411E+03 0.  0.
         24    2    5    5    0    0 -0.70680665278E+02 -0.18428846524E+02  0.50024701697E+03  0.51210795497E+03  0.81682927976E+02 0.  0.
          5    1    5    5  501    0 -0.41987423819E+02  0.57091262488E+02  0.94110311782E+02  0.11790333666E+03  0.47000000000E+01 0. -1.
        -11    1    6    6    0    0 -0.73093913881E+02 -0.38784580364E+02  0.31339121358E+03  0.32413117201E+03  0.00000000000E+00 0.  1.
         12    1    6    6    0    0  0.24132486029E+01  0.20355733840E+02  0.18685580339E+03  0.18797678296E+03  0.00000000000E+00 0. -1.
         -5    1    3    3    0  503  0.46870414575E+02 -0.39365477541E+02  0.16452266018E+03  0.17560259764E+03  0.47000000000E+01 0.  1.
         11    1    4    4    0    0  0.32746325702E+02  0.38606759414E+02  0.10865071942E+02  0.51776959236E+02  0.00000000000E+00 0. -1.
        -12    1    4    4    0    0  0.33051348820E+02 -0.37903697837E+02 -0.70667708818E+01  0.50784064619E+02  0.00000000000E+00 0.  1.
</event>
<event>
12    1  0.1035051E+000  0.1805266E+03  0.7818608E-02  0.1167451E+00
         21   -1    0    0  503  502  0.00000000000E+00  0.00000000000E+00  0.37999998572E+02  0.37999998572E+02  0.00000000000E+00 0.  1.
         21   -1    0    0  501  503 -0.00000000000E+00 -0.00000000000E+00 -0.91137636826E+03  0.91137636826E+03  0.00000000000E+00 0.  1.
          6    2    1    2  501    0 -0.48463943180E+02  0.17513967475E+02 -0.55447672029E+03  0.58292468519E+03  0.17234054200E+03 0.  0.
         24    2    3    3    0    0  0.30488540255E+02 -0.64804193517E+01 -0.35689244312E+03  0.36874984581E+03  0.87365244264E+02 0.  0.
         -6    2    1    2    0  502  0.48463943180E+02 -0.17513967475E+02 -0.31889964939E+03  0.36645168164E+03  0.17301547834E+03 0.  0.
        -24    2    5    5    0    0  0.37050973133E+02 -0.38143184947E+01 -0.33197827882E+03  0.34384467354E+03  0.81438678011E+02 0.  0.
          5    1    3    3  501    0 -0.78952483435E+02  0.23994386827E+02 -0.19758427717E+03  0.21417483939E+03  0.47000000000E+01 0. -1.
        -13    1    4    4    0    0 -0.40376694339E+01  0.29726691350E+02 -0.23621995316E+03  0.23811729300E+03  0.00000000000E+00 0.  1.
         14    1    4    4    0    0  0.34526209689E+02 -0.36207110701E+02 -0.12067248996E+03  0.13063255281E+03  0.00000000000E+00 0. -1.
         -5    1    5    5    0  502  0.11412970047E+02 -0.13699648980E+02  0.13078629428E+02  0.22607008099E+02  0.47000000000E+01 0.  1.
         11    1    6    6    0    0  0.24730858079E+01 -0.37330956794E+02 -0.19730082247E+03  0.20081666025E+03  0.00000000000E+00 0. -1.
        -12    1    6    6    0    0  0.34577887325E+02  0.33516638299E+02 -0.13467745635E+03  0.14302801329E+03  0.00000000000E+00 0.  1.
</event>
<event>
12    1  0.1035051E+000  0.2681501E+03  0.7818608E-02  0.1102527E+00
         21   -1    0    0  503  502  0.00000000000E+00  0.00000000000E+00  0.55594588879E+02  0.55594588879E+02  0.00000000000E+00 0.  1.
         21   -1    0    0  501  503 -0.00000000000E+00 -0.00000000000E+00 -0.13034503187E+04  0.13034503187E+04  0.00000000000E+00 0.  1.
          6    2    1    2  501    0 -0.11787910558E+03 -0.16663870352E+03 -0.70114505791E+03  0.75067227115E+03  0.17389803163E+03 0.  0.
         24    2    3    3    0    0 -0.42139682202E+02 -0.45685136958E+01 -0.22511920744E+03  0.24211951382E+03  0.78400110187E+02 0.  0.
         -6    2    1    2    0  502  0.11787910558E+03  0.16663870352E+03 -0.54671067188E+03  0.60837263639E+03  0.17193244291E+03 0.  0.
        -24    2    5    5    0    0  0.41385354963E+02  0.44433119884E+02 -0.11203402213E+03  0.15038641565E+03  0.79858638539E+02 0.  0.
          5    1    3    3  501    0 -0.75739423378E+02 -0.16207018982E+03 -0.47602585046E+03  0.50855275733E+03  0.47000000000E+01 0. -1.
        -11    1    4    4    0    0  0.65719945182E+01 -0.17146070736E+02 -0.94330211076E+01  0.20643661033E+02  0.00000000000E+00 0.  1.
         12    1    4    4    0    0 -0.48711676720E+02  0.12577557040E+02 -0.21568618634E+03  0.22147585278E+03  0.00000000000E+00 0. -1.
         -5    1    5    5    0  502  0.76493750616E+02  0.12220558363E+03 -0.43467664975E+03  0.45798622074E+03  0.47000000000E+01 0.  1.
         11    1    6    6    0    0  0.54962460814E+02  0.21504254051E+02 -0.10849003645E+03  0.12350462765E+03  0.00000000000E+00 0. -1.
        -12    1    6    6    0    0 -0.13577105851E+02  0.22928865834E+02 -0.35439856772E+01  0.26881788002E+02  0.00000000000E+00 0.  1.
</event>
<event>
12    1  0.1035051E+000  0.2358618E+03  0.7818608E-02  0.1122594E+00
         21   -1    0    0  503  502  0.00000000000E+00  0.00000000000E+00  0.10724351158E+04  0.10724351158E+04  0.00000000000E+00 0.  1.
         21   -1    0    0  501  503 -0.00000000000E+00 -0.00000000000E+00 -0.77837334489E+02  0.77837334489E+02  0.00000000000E+00 0.  1.
          6    2    1    2  501    0  0.16174658688E+03  0.45722323322E+01  0.16496783345E+03  0.28776641882E+03  0.17150003513E+03 0.  0.
         24    2    3    3    0    0  0.15699208341E+03  0.34711223751E+02  0.77663014997E+02  0.19516412170E+03  0.78778849898E+02 0.  0.
         -6    2    1    2    0  502 -0.16174658688E+03 -0.45722323322E+01  0.82962994789E+03  0.86250603150E+03  0.17160402169E+03 0.  0.
        -24    2    5    5    0    0 -0.13500744635E+03 -0.11268385178E+02  0.81696455813E+03  0.83180876456E+03  0.78235187007E+02 0.  0.
          5    1    3    3  501    0  0.47545034738E+01 -0.30138991419E+02  0.87304818450E+02  0.92602297118E+02  0.47000000000E+01 0. -1.
        -13    1    4    4    0    0  0.85028511697E+02  0.15988501656E+02  0.83932504549E+02  0.12054105237E+03  0.00000000000E+00 0.  1.
         14    1    4    4    0    0  0.71963571714E+02  0.18722722095E+02 -0.62694895519E+01  0.74623069327E+02  0.00000000000E+00 0. -1.
         -5    1    5    5    0  502 -0.26739140538E+02  0.66961528463E+01  0.12665389758E+02  0.30697266937E+02  0.47000000000E+01 0.  1.
         11    1    6    6    0    0 -0.76017506606E+02  0.28546820805E+02  0.33989251212E+03  0.34945743959E+03  0.00000000000E+00 0. -1.
        -12    1    6    6    0    0 -0.58989939741E+02 -0.39815205984E+02  0.47707204601E+03  0.48235132497E+03  0.00000000000E+00 0.  1.
</event>
<event>
12    1  0.1035051E+000  0.1952189E+03  0.7818608E-02  0.1154241E+00
         21   -1    0    0  501  502  0.00000000000E+00  0.00000000000E+00  0.11769697228E+04  0.11769697228E+04  0.00000000000E+00 0. -1.
         21   -1    0    0  502  503 -0.00000000000E+00 -0.00000000000E+00 -0.47419523220E+02  0.47419523220E+02  0.00000000000E+00 0. -1.
         -6    2    1    2    0  503 -0.91946497420E+02  0.10404769168E+02  0.91484832554E+03  0.93544528004E+03  0.17189530417E+03 0.  0.
        -24    2    3    3    0    0  0.71445105046E+01 -0.31208605191E+02  0.42889336415E+03  0.43772546400E+03  0.81418934872E+02 0.  0.
          6    2    1    2  501    0  0.91946497420E+02 -0.10404769168E+02  0.21470187404E+03  0.28894396598E+03  0.16979194077E+03 0.  0.
         24    2    5    5    0    0  0.76862862586E+02  0.24012009790E+02  0.22300886982E+03  0.25017378553E+03  0.79809088994E+02 0.  0.
          5    1    5    5  501    0  0.15083634834E+02 -0.34416778958E+02 -0.83069957808E+01  0.38770180456E+02  0.47000000000E+01 0. -1.
        -11    1    6    6    0    0  0.61587545905E+02  0.57347006043E+01  0.62592272338E+02  0.87998324745E+02  0.00000000000E+00 0.  1.
         12    1    6    6    0    0  0.15275316681E+02  0.18277309186E+02  0.16041659749E+03  0.16217546078E+03  0.00000000000E+00 0. -1.
         -5    1    3    3    0  503 -0.99091007924E+02  0.41613374359E+02  0.48595496139E+03  0.49771981604E+03  0.47000000000E+01 0.  1.
         11    1    4    4    0    0  0.37577481443E+02 -0.25964708555E+02  0.14177075788E+03  0.14894690662E+03  0.00000000000E+00 0. -1.
        -12    1    4    4    0    0 -0.30432970938E+02 -0.52438966359E+01  0.28712260628E+03  0.28877855739E+03  0.00000000000E+00 0.  1.
</event>
<event>
12    1  0.1035051E+000  0.4723218E+03  0.7818608E-02  0.1021356E+00
         21   -1    0    0  501  502  0.00000000000E+00  0.00000000000E+00  0.85105075801E+03  0.85105075801E+03  0.00000000000E+00 0. -1.
         21   -1    0    0  502  503 -0.00000000000E+00 -0.00000000000E+00 -0.26467471562E+03  0.26467471562E+03  0.00000000000E+00 0.  1.
         -6    2    1    2    0  503  0.15946362345E+03 -0.40981343586E+03  0.23101050959E+03  0.52464800579E+03  0.16886081554E+03 0.  0.
        -24    2    3    3    0    0  0.11799110357E+03 -0.37097037392E+03  0.24374417674E+03  0.46622720774E+03  0.80097856963E+02 0.  0.
          6    2    1    2  501    0 -0.15946362345E+03  0.40981343586E+03  0.35536553280E+03  0.59107746784E+03  0.17237230543E+03 0.  0.
         24    2    5    5    0    0 -0.12642949825E+03  0.28444845698E+03  0.32832391048E+03  0.45855965510E+03  0.74733020736E+02 0.  0.
          5    1    5    5  501    0 -0.33034125197E+02  0.12536497888E+03  0.27041622323E+02  0.13251781274E+03  0.47000000000E+01 0. -1.
        -11    1    6    6    0    0 -0.31335458401E+01  0.47111892105E+02  0.83743956328E+02  0.96137400155E+02  0.00000000000E+00 0.  1.
         12    1    6    6    0    0 -0.12329595241E+03  0.23733656487E+03  0.24457995415E+03  0.36242225494E+03  0.00000000000E+00 0. -1.
         -5    1    3    3    0  503  0.41472519881E+02 -0.38843061936E+02 -0.12733667153E+02  0.58420798052E+02  0.47000000000E+01 0.  1.
         11    1    4    4    0    0  0.59814840913E+02 -0.18783438309E+03  0.76389081543E+02  0.21141159487E+03  0.00000000000E+00 0. -1.
        -12    1    4    4    0    0  0.58176262653E+02 -0.18313599083E+03  0.16735509520E+03  0.25481561287E+03  0.00000000000E+00 0.  1.
</event>
<event>
12    1  0.1035051E+000  0.2061028E+03  0.7818608E-02  0.1144909E+00
         21   -1    0    0  501  502  0.00000000000E+00  0.00000000000E+00  0.36947600181E+03  0.36947600181E+03  0.00000000000E+00 0. -1.
         21   -1    0    0  502  503 -0.00000000000E+00 -0.00000000000E+00 -0.26536678346E+03  0.26536678346E+03  0.00000000000E+00 0. -1.
         -6    2    1    2    0  503 -0.45891913002E+02  0.10140231358E+03  0.29143633895E+03  0.35632916941E+03  0.17218257879E+03 0.  0.
        -24    2    3    3    0    0  0.34618846735E+02  0.57160552153E+02  0.20364044531E+03  0.22916972294E+03  0.81139002180E+02 0.  0.
          6    2    1    2  501    0  0.45891913002E+02 -0.10140231358E+03 -0.18732712060E+03  0.27851361586E+03  0.17346436875E+03 0.  0.
         24    2    5    5    0    0 -0.19301055421E+02 -0.93099065463E+02 -0.67995732948E+02  0.14220097103E+03  0.80979810638E+02 0.  0.
          5    1    5    5  501    0  0.65192968423E+02 -0.83032481163E+01 -0.11933138765E+03  0.13631264483E+03  0.47000000000E+01 0. -1.
        -13    1    6    6    0    0  0.29381521364E+02 -0.57098246660E+02 -0.38217378122E+02  0.74726511761E+02  0.00000000000E+00 0.  1.
         14    1    6    6    0    0 -0.48682576786E+02 -0.36000818802E+02 -0.29778354826E+02  0.67474459265E+02  0.00000000000E+00 0. -1.
         -5    1    3    3    0  503 -0.80510759737E+02  0.44241761426E+02  0.87795893634E+02  0.12715944647E+03  0.47000000000E+01 0.  1.
         13    1    4    4    0    0  0.18234043548E+01  0.34484630678E+02  0.17899586516E+03  0.18229655592E+03  0.00000000000E+00 0. -1.
        -14    1    4    4    0    0  0.32795442381E+02  0.22675921475E+02  0.24644580153E+02  0.46873167021E+02  0.00000000000E+00 0.  1.
</event>
<event>
12    1  0.1035051E+000  0.2326391E+03  0.7818608E-02  0.1125046E+00
         21   -1    0    0  501  502  0.00000000000E+00  0.00000000000E+00  0.33982973790E+03  0.33982973790E+03  0.00000000000E+00 0. -1.
         21   -1    0    0  502  503 -0.00000000000E+00 -0.00000000000E+00 -0.16132122661E+03  0.16132122661E+03  0.00000000000E+00 0.  1.
         -6    2    1    2    0  503 -0.87029091650E+02  0.13018010259E+03  0.54553293577E+02  0.23754926780E+03  0.17009606371E+03 0.  0.
        -24    2    3    3    0    0 -0.81655454117E+02  0.16192780762E+03  0.45233733671E+02  0.20370053146E+03  0.80991282183E+02 0.  0.
          6    2    1    2  501    0  0.87029091650E+02 -0.13018010259E+03  0.12395521771E+03  0.26360169671E+03  0.17204661172E+03 0.  0.
         24    2    5    5    0    0  0.33044859224E+02 -0.59360909673E+02 -0.10588618124E+02  0.10218983470E+03  0.75597375373E+02 0.  0.
          5    1    5    5  501    0  0.53984232426E+02 -0.70819192915E+02  0.13454383584E+03  0.16141186201E+03  0.47000000000E+01 0. -1.
        -11    1    6    6    0    0  0.21931031111E+02 -0.44471511717E+02  0.29716819043E+02  0.57808086061E+02  0.00000000000E+00 0.  1.
         12    1    6    6    0    0  0.11113828113E+02 -0.14889397956E+02 -0.40305437167E+02  0.44381748637E+02  0.00000000000E+00 0. -1.
         -5    1    3    3    0  503 -0.53736375334E+01 -0.31747705029E+02  0.93195599067E+01  0.33848736340E+02  0.47000000000E+01 0.  1.
         11    1    4    4    0    0  0.32957867582E+01 -0.54704532298E+01 -0.63662296533E+01  0.90175910804E+01  0.00000000000E+00 0. -1.
        -12    1    4    4    0    0 -0.84951240875E+02  0.16739826085E+03  0.51599963324E+02  0.19468294038E+03  0.00000000000E+00 0.  1.
</event>
<event>
12    1  0.1035051E+000  0.1906450E+03  0.7818608E-02  0.1158554E+00
         21   -1    0    0  503  502  0.00000000000E+00  0.00000000000E+00  0.27000595103E+02  0.27000595103E+02  0.00000000000E+00 0.  1.
         21   -1    0    0  501  503 -0.00000000000E+00 -0.00000000000E+00 -0.13787241075E+04  0.13787241075E+04  0.00000000000E+00 0.  1.
          6    2    1    2  501    0 -0.42687466556E+02 -0.61317831459E+02 -0.81944691271E+03  0.84133152924E+03  0.17539499161E+03 0.  0.
         24    2    3    3    0    0  0.84314189638E+01 -0.25054578229E+02 -0.15933485221E+03  0.17823411075E+03  0.75372291915E+02 0.  0.
         -6    2    1    2    0  502  0.42687466556E+02  0.61317831459E+02 -0.53227659968E+03  0.56439317336E+03  0.17216033025E+03 0.  0.
        -24    2    5    5    0    0 -0.15330228914E+02 -0.18753496417E+02 -0.31795506121E+03  0.32831419846E+03  0.78154222012E+02 0.  0.
          5    1    3    3  501    0 -0.51118885520E+02 -0.36263253231E+02 -0.66011206050E+03  0.66309741849E+03  0.47000000000E+01 0. -1.
        -11    1    4    4    0    0  0.22029776639E+02 -0.33460643333E+02 -0.15705700131E+03  0.16208586420E+03  0.00000000000E+00 0.  1.
         12    1    4    4    0    0 -0.13598357675E+02  0.84060651041E+01 -0.22778509011E+01  0.16148246552E+02  0.00000000000E+00 0. -1.
         -5    1    5    5    0  502  0.58017695470E+02  0.80071327877E+02 -0.21432153847E+03  0.23607897490E+03  0.47000000000E+01 0.  1.
         13    1    6    6    0    0 -0.54719556148E+01  0.24355056878E+02 -0.21251993153E+03  0.21398091595E+03  0.00000000000E+00 0. -1.
        -14    1    6    6    0    0 -0.98582732996E+01 -0.43108553296E+02 -0.10543512968E+03  0.11433328251E+03  0.00000000000E+00 0.  1.
</event>
<event>
12    1  0.1035051E+000  0.3131881E+03  0.7818608E-02  0.1078838E+00
         21   -1    0    0  501  502  0.00000000000E+00  0.00000000000E+00  0.19584673868E+04  0.19584673868E+04  0.00000000000E+00 0. -1.
         21   -1    0    0  502  503 -0.00000000000E+00 -0.00000000000E+00 -0.50070208986E+02  0.50070208986E+02  0.00000000000E+00 0. -1.
         -6    2    1    2    0  503 -0.14021772648E+03 -0.22119299793E+03  0.95525651618E+03  0.10052869165E+04  0.17175395053E+03 0.  0.
        -24    2    3    3    0    0 -0.79914797922E+02 -0.71021193944E+02  0.27425264504E+03  0.30530379064E+03  0.81027812218E+02 0.  0.
          6    2    1    2  501    0  0.14021772648E+03  0.22119299793E+03  0.95314066161E+03  0.10032506793E+04  0.17160259782E+03 0.  0.
         24    2    5    5    0    0  0.12207948496E+03  0.19973607348E+03  0.60423087165E+03  0.65317993370E+03  0.82165563494E+02 0.  0.
          5    1    5    5  501    0  0.18138241523E+02  0.21456924447E+02  0.34890978995E+03  0.35007074562E+03  0.47000000000E+01 0. -1.
        -11    1    6    6    0    0  0.27040694310E+02  0.53730133851E+02  0.75764618726E+02  0.96738843714E+02  0.00000000000E+00 0.  1.
         12    1    6    6    0    0  0.95038790650E+02  0.14600593963E+03  0.52846625293E+03  0.55644108998E+03  0.00000000000E+00 0. -1.
         -5    1    3    3    0  503 -0.60302928561E+02 -0.15017180398E+03  0.68100387114E+03  0.69998312581E+03  0.47000000000E+01 0.  1.
         11    1    4    4    0    0 -0.80149069657E+02 -0.85950528029E+02  0.25625818404E+03  0.28192130733E+03  0.00000000000E+00 0. -1.
        -12    1    4    4    0    0  0.23427173519E+00  0.14929334085E+02  0.17994460997E+02  0.23382483316E+02  0.00000000000E+00 0.  1.
</event>
<event>
12    1  0.1035051E+000  0.1995972E+03  0.7818608E-02  0.1150408E+00
         21   -1    0    0  503  502  0.00000000000E+00  0.00000000000E+00  0.50684060558E+03  0.50684060558E+03  0.00000000000E+00 0. -1.
         21   -1    0    0  501  503 -0.00000000000E+00 -0.00000000000E+00 -0.17413541507E+03  0.17413541507E+03  0.00000000000E+00 0.  1.
          6    2    1    2  501    0  0.98308713500E+02  0.12964381910E+02  0.41905677723E+03  0.46350041342E+03  0.17143912141E+03 0.  0.
         24    2    3    3    0    0  0.59150858872E+02  0.38263257029E+02  0.11678297754E+03  0.15761659455E+03  0.79005228264E+02 0.  0.
         -6    2    1    2    0  502 -0.98308713500E+02 -0.12964381910E+02 -0.86351586720E+02  0.21747560723E+03  0.17322345356E+03 0.  0.
        -24    2    5    5    0    0 -0.52136896459E+02  0.56520419322E+02 -0.22570407413E+02  0.11235613651E+03  0.78750646650E+02 0.  0.
          5    1    3    3  501    0  0.39157854628E+02 -0.25298875119E+02  0.30227379969E+03  0.30588381886E+03  0.47000000000E+01 0. -1.
        -13    1    4    4    0    0 -0.89908089198E+01 -0.15544479974E+02  0.29274884205E+02  0.34343621648E+02  0.00000000000E+00 0.  1.
         14    1    4    4    0    0  0.68141667792E+02  0.53807737003E+02  0.87508093330E+02  0.12327297291E+03  0.00000000000E+00 0. -1.
         -5    1    5    5    0  502 -0.46171817042E+02 -0.69484801232E+02 -0.63781179307E+02  0.10511947072E+03  0.47000000000E+01 0.  1.
         13    1    6    6    0    0 -0.72529129744E+02  0.35562949973E+02 -0.15136832678E+02  0.82184680906E+02  0.00000000000E+00 0. -1.
        -14    1    6    6    0    0  0.20392233285E+02  0.20957469349E+02 -0.74335747353E+01  0.30171455603E+02  0.00000000000E+00 0.  1.
</event>
<event>
12    1  0.1035051E+000  0.3046218E+03  0.7818608E-02  0.1083004E+00
         21   -1    0    0  503  502  0.00000000000E+00  0.00000000000E+00  0.21046048202E+03  0.21046048202E+03  0.00000000000E+00 0. -1.
         21   -1    0    0  501  503 -0.00000000000E+00 -0.00000000000E+00 -0.44067094469E+03  0.44067094469E+03  0.00000000000E+00 0. -1.
          6    2    1    2  501    0 -0.22571606336E+03 -0.11029276849E+03 -0.12432379221E+03  0.32863119269E+03  0.17155121527E+03 0.  0.
         24    2    3    3    0    0 -0.22475865567E+03 -0.49599772744E+02 -0.99588902799E+02  0.26291619352E+03  0.78932784689E+02 0.  0.
         -6    2    1    2    0  502  0.22571606336E+03  0.11029276849E+03 -0.10588667047E+03  0.32250023402E+03  0.17228516454E+03 0.  0.
        -24    2    5    5    0    0  0.11009561858E+03  0.11884510161E+03 -0.99227245631E+02  0.20627774226E+03  0.80369504595E+02 0.  0.
          5    1    3    3  501    0 -0.95740768812E+00 -0.60692995747E+02 -0.24734889407E+02  0.65714999172E+02  0.47000000000E+01 0. -1.
        -13    1    4    4    0    0 -0.48982366113E+02  0.16727730940E+02 -0.41269490937E+02  0.66198640882E+02  0.00000000000E+00 0.  1.
         14    1    4    4    0    0 -0.17577628956E+03 -0.66327503684E+02 -0.58319411862E+02  0.19671755264E+03  0.00000000000E+00 0. -1.
         -5    1    5    5    0  502  0.11562044478E+03 -0.85523331161E+01 -0.66594248382E+01  0.11622249176E+03  0.47000000000E+01 0.  1.
         11    1    6    6    0    0  0.66572949628E+02  0.58115517253E+02 -0.97436039564E+02  0.13154144888E+03  0.00000000000E+00 0. -1.
        -12    1    6    6    0    0  0.43522668957E+02  0.60729584354E+02 -0.17912060673E+01  0.74736293380E+02  0.00000000000E+00 0.  1.
</event>
<event>
12    1  0.1035051E+000  0.2373323E+03  0.7818608E-02  0.1122021E+00
         21   -1    0    0  501  502  0.00000000000E+00  0.00000000000E+00  0.61933213794E+03  0.61933213794E+03  0.00000000000E+00 0.  1.
         21   -1    0    0  502  503 -0.00000000000E+00 -0.00000000000E+00 -0.30284879116E+03  0.30284879116E+03  0.00000000000E+00 0.  1.
         -6    2    1    2    0  503  0.15293500828E+03 -0.40327954743E+02  0.54457085304E+03  0.59301449974E+03  0.17347426963E+03 0.  0.
        -24    2    3    3    0    0  0.63960147944E+02 -0.31537307946E+02  0.45049003750E+03  0.46314113413E+03  0.80454545629E+02 0.  0.
          6    2    1    2  501    0 -0.15293500828E+03  0.40327954743E+02 -0.22808750626E+03  0.32916642936E+03  0.17694961717E+03 0.  0.
         24    2    5    5    0    0 -0.48099257171E+02  0.80447570792E+02 -0.12292232676E+03  0.17527710783E+03  0.82624547965E+02 0.  0.
          5    1    5    5  501    0 -0.10483575111E+03 -0.40119616049E+02 -0.10516517950E+03  0.15388932153E+03  0.47000000000E+01 0. -1.
        -13    1    6    6    0    0 -0.14928108110E+02  0.34728610125E+02 -0.11138679976E+03  0.11762628930E+03  0.00000000000E+00 0.  1.
         14    1    6    6    0    0 -0.33171149061E+02  0.45718960667E+02 -0.11535527001E+02  0.57650818535E+02  0.00000000000E+00 0. -1.
         -5    1    3    3    0  503  0.88974860335E+02 -0.87906467972E+01  0.94080815537E+02  0.12987336561E+03  0.47000000000E+01 0.  1.
         11    1    4    4    0    0  0.53633851815E+02 -0.45351848058E+02  0.19847706777E+03  0.21053865824E+03  0.00000000000E+00 0. -1.
        -12    1    4    4    0    0  0.10326296129E+02  0.13814540112E+02  0.25201296973E+03  0.25260247588E+03  0.00000000000E+00 0.  1.
</event>
<event>
12    1  0.1035051E+000  0.3391406E+03  0.7818608E-02  0.1067684E+00
         21   -1    0    0  501  502  0.00000000000E+00  0.00000000000E+00  0.26455316847E+03  0.26455316847E+03  0.00000000000E+00 0.  1.
         21   -1    0    0  502  503 -0.00000000000E+00 -0.00000000000E+00 -0.46293641859E+03  0.46293641859E+03  0.00000000000E+00 0. -1.
         -6    2    1    2    0  503  0.10028774889E+03  0.27464253170E+03 -0.74598218763E+00  0.33914141361E+03  0.17184350188E+03 0.  0.
        -24    2    3    3    0    0  0.10093161578E+03  0.14218692763E+03 -0.48930778395E+02  0.19811387658E+03  0.80315462817E+02 0.  0.
          6    2    1    2  501    0 -0.10028774889E+03 -0.27464253170E+03 -0.19763726794E+03  0.38834817346E+03  0.16207301242E+03 0.  0.
         24    2    5    5    0    0 -0.98540128453E+02 -0.23300492444E+03 -0.97547111696E+02  0.27982686729E+03  0.69182258783E+02 0.  0.
          5    1    5    5  501    0 -0.17476204409E+01 -0.41637607259E+02 -0.10009015624E+03  0.10852130616E+03  0.47000000000E+01 0. -1.
        -11    1    6    6    0    0 -0.83960860214E+02 -0.13363538500E+03 -0.83089096581E+02  0.17835817935E+03  0.00000000000E+00 0.  1.
         12    1    6    6    0    0 -0.14579268239E+02 -0.99369539442E+02 -0.14458015115E+02  0.10146868794E+03  0.00000000000E+00 0. -1.
         -5    1    3    3    0  503 -0.64386688709E+00  0.13245560407E+03  0.48184796207E+02  0.14102753702E+03  0.47000000000E+01 0.  1.
         11    1    4    4    0    0  0.69834150010E+02  0.61218605874E+02  0.97722142432E+01  0.93381060093E+02  0.00000000000E+00 0. -1.
        -12    1    4    4    0    0  0.31097465770E+02  0.80968321756E+02 -0.58702992638E+02  0.10473281649E+03  0.00000000000E+00 0.  1.
</event>
<event>
12    1  0.1035051E+000  0.3158418E+03  0.7818608E-02  0.1077739E+00
         21   -1    0    0  501  502  0.00000000000E+00  0.00000000000E+00  0.22332671927E+04  0.22332671927E+04  0.00000000000E+00 0. -1.
         21   -1    0    0  502  503 -0.00000000000E+00 -0.00000000000E+00 -0.45058526505E+02  0.45058526505E+02  0.00000000000E+00 0. -1.
         -6    2    1    2    0  503  0.22054178970E+03  0.14477075564E+03  0.96691691689E+03  0.10171943566E+04  0.17366284075E+03 0.  0.
        -24    2    3    3    0    0  0.17978445396E+03  0.14578104439E+03  0.59369913546E+03  0.64172693662E+03  0.75896211647E+02 0.  0.
          6    2    1    2  501    0 -0.22054178970E+03 -0.14477075564E+03  0.12212917493E+04  0.12611313626E+04  0.17117687959E+03 0.  0.
         24    2    5    5    0    0 -0.22355735423E+03 -0.14073764337E+03  0.12231675252E+04  0.12539921638E+04  0.81071433754E+02 0.  0.
          5    1    5    5  501    0  0.30155645240E+01 -0.40331122745E+01 -0.18757758769E+01  0.71391987756E+01  0.47000000000E+01 0. -1.
        -13    1    6    6    0    0 -0.75589217375E+02 -0.94283214280E+02  0.56922182523E+03  0.58190767361E+03  0.00000000000E+00 0.  1.
         14    1    6    6    0    0 -0.14796813685E+03 -0.46454429086E+02  0.65394569993E+03  0.67208449020E+03  0.00000000000E+00 0. -1.
         -5    1    3    3    0  503  0.40757335740E+02 -0.10102887549E+01  0.37321778143E+03  0.37546741999E+03  0.47000000000E+01 0.  1.
         11    1    4    4    0    0  0.48672983751E+02  0.64913038344E+01  0.83797342580E+02  0.97124615810E+02  0.00000000000E+00 0. -1.
        -12    1    4    4    0    0  0.13111147021E+03  0.13928974056E+03  0.50990179288E+03  0.54460232081E+03  0.00000000000E+00 0.  1.
</event>
<event>
12    1  0.1035051E+000  0.7880393E+03  0.7818608E-02  0.9578028E-01
         21   -1    0    0  501  502  0.00000000000E+00  0.00000000000E+00  0.10127957563E+04  0.10127957563E+04  0.00000000000E+00 0. -1.
         21   -1    0    0  502  503 -0.00000000000E+00 -0.00000000000E+00 -0.68383753472E+03  0.68383753472E+03  0.00000000000E+00 0. -1.
         -6    2    1    2    0  503  0.73656965521E+03 -0.21590958550E+03  0.43923533459E+03  0.90091534908E+03  0.17195633448E+03 0.  0.
        -24    2    3    3    0    0  0.25264848437E+03 -0.41762513444E+02  0.10219630719E+03  0.28599722585E+03  0.75993182608E+02 0.  0.
          6    2    1    2  501    0 -0.73656965521E+03  0.21590958550E+03 -0.11027711305E+03  0.79571794191E+03  0.17847743651E+03 0.  0.
         24    2    5    5    0    0 -0.44704396372E+03  0.89949450554E+02 -0.12334508467E+03  0.47967373059E+03  0.83268654124E+02 0.  0.
          5    1    5    5  501    0 -0.28952569149E+03  0.12596013494E+03  0.13067971619E+02  0.31604421132E+03  0.47000000000E+01 0. -1.
        -13    1    6    6    0    0 -0.43288199639E+03  0.99565969123E+02 -0.12737536683E+03  0.46208731759E+03  0.00000000000E+00 0.  1.
         14    1    6    6    0    0 -0.14161967329E+02 -0.96165185698E+01  0.40302821591E+01  0.17586413003E+02  0.00000000000E+00 0. -1.
         -5    1    3    3    0  503  0.48392117083E+03 -0.17414707205E+03  0.33703902740E+03  0.61491812323E+03  0.47000000000E+01 0.  1.
         11    1    4    4    0    0  0.13071729722E+03  0.15256348140E+02  0.38760805912E+02  0.13719390666E+03  0.00000000000E+00 0. -1.
        -12    1    4    4    0    0  0.12193118716E+03 -0.57018861584E+02  0.63435501278E+02  0.14880331918E+03  0.00000000000E+00 0.  1.
</event>
<event>
12    1  0.1035051E+000  0.2940521E+03  0.7818608E-02  0.1088514E+00
         21   -1    0    0  501  502  0.00000000000E+00  0.00000000000E+00  0.10421372894E+03  0.10421372894E+03  0.00000000000E+00 0.  1.
         21   -1    0    0  502  503 -0.00000000000E+00 -0.00000000000E+00 -0.84803570746E+03  0.84803570746E+03  0.00000000000E+00 0.  1.
         -6    2    1    2    0  503  0.15089188046E+03 -0.18173123632E+03 -0.29298063497E+03  0.41509555309E+03  0.17513441664E+03 0.  0.
        -24    2    3    3    0    0 -0.67953551235E+00 -0.53768361908E+02 -0.91442291360E+02  0.13227372701E+03  0.79013591845E+02 0.  0.
          6    2    1    2  501    0 -0.15089188046E+03  0.18173123632E+03 -0.45084134356E+03  0.53715388331E+03  0.17170257846E+03 0.  0.
         24    2    5    5    0    0 -0.97755724843E+02  0.92787257820E+02 -0.14076591009E+03  0.21019311076E+03  0.78742907073E+02 0.  0.
          5    1    5    5  501    0 -0.53136155622E+02  0.88943978497E+02 -0.31007543347E+03  0.32696077255E+03  0.47000000000E+01 0. -1.
        -11    1    6    6    0    0 -0.85905385647E+02  0.47030074556E+02 -0.55152062461E+02  0.11239801239E+03  0.00000000000E+00 0.  1.
         12    1    6    6    0    0 -0.11850339196E+02  0.45757183264E+02 -0.85613847625E+02  0.97795098366E+02  0.00000000000E+00 0. -1.
         -5    1    3    3    0  503  0.15157141598E+03 -0.12796287441E+03 -0.20153834361E+03  0.28282182609E+03  0.47000000000E+01 0.  1.
         11    1    4    4    0    0  0.24572446490E+02 -0.61681169197E+02 -0.78506555236E+02  0.10281853420E+03  0.00000000000E+00 0. -1.
        -12    1    4    4    0    0 -0.25251982002E+02  0.79128072888E+01 -0.12935736125E+02  0.29455192807E+02  0.00000000000E+00 0.  1.
</event>
<event>
12    1  0.1035051E+000  0.1834707E+03  0.7818608E-02  0.1165345E+00
         21   -1    0    0  501  502  0.00000000000E+00  0.00000000000E+00  0.31503773522E+03  0.31503773522E+03  0.00000000000E+00 0.  1.
         21   -1    0    0  502  503 -0.00000000000E+00 -0.00000000000E+00 -0.11724028719E+03  0.11724028719E+03  0.00000000000E+00 0.  1.
         -6    2    1    2    0  503 -0.41121906958E+02 -0.32708980151E+02  0.17028642160E+03  0.25031775048E+03  0.17578572811E+03 0.  0.
        -24    2    3    3    0    0  0.41037019836E+02 -0.19564420176E+02  0.52038983959E+02  0.10565464109E+03  0.79925238810E+02 0.  0.
          6    2    1    2  501    0  0.41121906958E+02  0.32708980151E+02  0.27511026434E+02  0.18196027193E+03  0.17202265947E+03 0.  0.
         24    2    5    5    0    0 -0.40045334088E+02 -0.83002802523E+01  0.76936444277E+01  0.88768538995E+02  0.78410062596E+02 0.  0.
          5    1    5    5  501    0  0.81167241046E+02  0.41009260403E+02  0.19817382006E+02  0.93191732935E+02  0.47000000000E+01 0. -1.
        -11    1    6    6    0    0 -0.58265647153E+02  0.13184519559E+02  0.69973090561E+00  0.59742839047E+02  0.00000000000E+00 0.  1.
         12    1    6    6    0    0  0.18220313065E+02 -0.21484799811E+02  0.69939135221E+01  0.29025699948E+02  0.00000000000E+00 0. -1.
         -5    1    3    3    0  503 -0.82158926795E+02 -0.13144559975E+02  0.11824743764E+03  0.14466310938E+03  0.47000000000E+01 0.  1.
         13    1    4    4    0    0  0.62262892638E+01 -0.45967228254E+02  0.16165028517E+02  0.49122916224E+02  0.00000000000E+00 0. -1.
        -14    1    4    4    0    0  0.34810730572E+02  0.26402808079E+02  0.35873955442E+02  0.56531724867E+02  0.00000000000E+00 0.  1.
</event>
<event>
12    1  0.1035051E+000  0.1848203E+03  0.7818608E-02  0.1163323E+00
         21   -1    0    0  501  502  0.00000000000E+00  0.00000000000E+00  0.19910785842E+03  0.19910785842E+03  0.00000000000E+00 0. -1.
         21   -1    0    0  502  503 -0.00000000000E+00 -0.00000000000E+00 -0.20591979974E+03  0.20591979974E+03  0.00000000000E+00 0. -1.
         -6    2    1    2    0  503 -0.60017920998E+01 -0.65931738152E+02  0.79816306358E+02  0.20131857906E+03  0.17255582259E+03 0.  0.
        -24    2    3    3    0    0 -0.15089852355E+01  0.30313592161E+02  0.47194487775E+02  0.99487238268E+02  0.82153514810E+02 0.  0.
          6    2    1    2  501    0  0.60017920998E+01  0.65931738152E+02 -0.86628247673E+02  0.20370907910E+03  0.17207533236E+03 0.  0.
         24    2    5    5    0    0  0.43837670504E+02  0.76153973777E+02 -0.11819291432E+02  0.11912469679E+03  0.79560220329E+02 0.  0.
          5    1    5    5  501    0 -0.37835878404E+02 -0.10222235625E+02 -0.74808956241E+02  0.84584382303E+02  0.47000000000E+01 0. -1.
        -11    1    6    6    0    0  0.57730578092E+02  0.64734965604E+02 -0.31670613218E+02  0.92338849680E+02  0.00000000000E+00 0.  1.
         12    1    6    6    0    0 -0.13892907588E+02  0.11419008172E+02  0.19851321786E+02  0.26785847113E+02  0.00000000000E+00 0. -1.
         -5    1    3    3    0  503 -0.44928068643E+01 -0.96245330313E+02  0.32621818582E+02  0.10183134080E+03  0.47000000000E+01 0.  1.
         13    1    4    4    0    0  0.27715101842E+02 -0.59029196511E+01  0.44647464277E+02  0.52880690208E+02  0.00000000000E+00 0. -1.
        -14    1    4    4    0    0 -0.29224087078E+02  0.36216511812E+02  0.25470234985E+01  0.46606548060E+02  0.00000000000E+00 0.  1.
</event>
<event>
12    1  0.1035051E+000  0.1790942E+03  0.7818608E-02  0.1169211E+00
         21   -1    0    0  501  502  0.00000000000E+00  0.00000000000E+00  0.65213256304E+02  0.65213256304E+02  0.00000000000E+00 0.  1.
         21   -1    0    0  502  503 -0.00000000000E+00 -0.00000000000E+00 -0.48727878681E+03  0.48727878681E+03  0.00000000000E+00 0.  1.
         -6    2    1    2    0  503  0.32319607914E+02  0.77524864092E+01 -0.19785435380E+03  0.26687277672E+03  0.17598316833E+03 0.  0.
        -24    2    3    3    0    0  0.16232268054E+02 -0.25596147742E+02 -0.21066051996E+03  0.22741366123E+03  0.80127831215E+02 0.  0.
          6    2    1    2  501    0 -0.32319607914E+02 -0.77524864092E+01 -0.22421117671E+03  0.28561926640E+03  0.17379026289E+03 0.  0.
         24    2    5    5    0    0 -0.42397735556E+02 -0.17459566686E+02 -0.38744095937E+02  0.99565714658E+02  0.79434388751E+02 0.  0.
          5    1    5    5  501    0  0.10078127642E+02  0.97070802771E+01 -0.18546708077E+03  0.18605355174E+03  0.47000000000E+01 0. -1.
        -13    1    6    6    0    0  0.10583265650E+02 -0.32471657501E+02 -0.26311921983E+02  0.43113006055E+02  0.00000000000E+00 0.  1.
         14    1    6    6    0    0 -0.52981001206E+02  0.15012090815E+02 -0.12432173955E+02  0.56452708603E+02  0.00000000000E+00 0. -1.
         -5    1    3    3    0  503  0.16087339861E+02  0.33348634151E+02  0.12806166167E+02  0.39459115492E+02  0.47000000000E+01 0.  1.
         13    1    4    4    0    0  0.27727202725E+02  0.58928456324E+01 -0.22226994050E+02  0.36021697144E+02  0.00000000000E+00 0. -1.
        -14    1    4    4    0    0 -0.11494934672E+02 -0.31488993374E+02 -0.18843352591E+03  0.19139196408E+03  0.00000000000E+00 0.  1.
</event>
<event>
12    1  0.1035051E+000  0.5520625E+03  0.7818608E-02  0.1001297E+00
         21   -1    0    0  503  502  0.00000000000E+00  0.00000000000E+00  0.14549945895E+03  0.14549945895E+03  0.00000000000E+00 0. -1.
         21   -1    0    0  501  503 -0.00000000000E+00 -0.00000000000E+00 -0.24159906527E+04  0.24159906527E+04  0.00000000000E+00 0.  1.
          6    2    1    2  501    0  0.39379532277E+03 -0.34150910025E+03 -0.16111168846E+04  0.17015206739E+04  0.16664863060E+03 0.  0.
         24    2    3    3    0    0  0.10340798444E+03 -0.11817323076E+03 -0.42648502971E+03  0.46152936809E+03  0.80385031753E+02 0.  0.
         -6    2    1    2    0  502 -0.39379532277E+03  0.34150910025E+03 -0.65937430917E+03  0.85996943777E+03  0.18185085243E+03 0.  0.
        -24    2    5    5    0    0 -0.36612747051E+03  0.29208065877E+03 -0.64576091680E+03  0.80152206549E+03  0.77910358151E+02 0.  0.
          5    1    3    3  501    0  0.29038733832E+03 -0.22333586949E+03 -0.11846318549E+04  0.12399913058E+04  0.47000000000E+01 0. -1.
        -11    1    4    4    0    0  0.11135892156E+02  0.50401960198E+01 -0.57299733277E+01  0.13499787567E+02  0.00000000000E+00 0.  1.
         12    1    4    4    0    0  0.92272092288E+02 -0.12321342678E+03 -0.42075505638E+03  0.44802958053E+03  0.00000000000E+00 0. -1.
         -5    1    5    5    0  502 -0.27667852260E+02  0.49428441477E+02 -0.13613392366E+02  0.58447372287E+02  0.47000000000E+01 0.  1.
         11    1    6    6    0    0 -0.21290804901E+03  0.14864580446E+03 -0.41547040721E+03  0.48993986547E+03  0.00000000000E+00 0. -1.
        -12    1    6    6    0    0 -0.15321942150E+03  0.14343485431E+03 -0.23029050959E+03  0.31158220001E+03  0.00000000000E+00 0.  1.
</event>
<event>
12    1  0.1035051E+000  0.2401929E+03  0.7818608E-02  0.1119914E+00
         21   -1    0    0  501  502  0.00000000000E+00  0.00000000000E+00  0.23739534831E+03  0.23739534831E+03  0.00000000000E+00 0. -1.
         21   -1    0    0  502  503 -0.00000000000E+00 -0.00000000000E+00 -0.27485955355E+03  0.27485955355E+03  0.00000000000E+00 0. -1.
         -6    2    1    2    0  503 -0.13118222436E+03  0.10306890663E+03  0.70535093055E+02  0.24889868294E+03  0.17071432135E+03 0.  0.
        -24    2    3    3    0    0 -0.28569883345E+02  0.70937468173E+02 -0.17356905421E+02  0.10994251984E+03  0.77056686134E+02 0.  0.
          6    2    1    2  501    0  0.13118222436E+03 -0.10306890663E+03 -0.10799929830E+03  0.26335621892E+03  0.17280241349E+03 0.  0.
         24    2    5    5    0    0  0.14480009659E+03 -0.50227453253E+02 -0.11349604150E+03  0.20831105724E+03  0.83799045936E+02 0.  0.
          5    1    5    5  501    0 -0.13617872226E+02 -0.52841453374E+02  0.54967431962E+01  0.55045161680E+02  0.47000000000E+01 0. -1.
        -13    1    6    6    0    0  0.75033560882E+02 -0.69514790200E+02 -0.67454714220E+02  0.12252542506E+03  0.00000000000E+00 0.  1.
         14    1    6    6    0    0  0.69766535708E+02  0.19287336947E+02 -0.46041327278E+02  0.85785632181E+02  0.00000000000E+00 0. -1.
         -5    1    3    3    0  503 -0.10261234102E+03  0.32131438454E+02  0.87891998476E+02  0.13895616310E+03  0.47000000000E+01 0.  1.
         11    1    4    4    0    0 -0.19067189493E+02  0.69752706035E+02  0.16993924406E+02  0.74281836145E+02  0.00000000000E+00 0. -1.
        -12    1    4    4    0    0 -0.95026938528E+01  0.11847621379E+01 -0.34350829828E+02  0.35660683695E+02  0.00000000000E+00 0.  1.
</event>
<event>
12    1  0.1035051E+000  0.4045731E+03  0.7818608E-02  0.1042241E+00
         21   -1    0    0  503  502  0.00000000000E+00  0.00000000000E+00  0.79647417083E+03  0.79647417083E+03  0.00000000000E+00 0. -1.
         21   -1    0    0  501  503 -0.00000000000E+00 -0.00000000000E+00 -0.24412895698E+03  0.24412895698E+03  0.00000000000E+00 0. -1.
          6    2    1    2  501    0  0.31142501954E+03 -0.19197850084E+03  0.48376358868E+03  0.63063982077E+03  0.17273704361E+03 0.  0.
         24    2    3    3    0    0  0.32349845289E+03 -0.20019234755E+03  0.45943505716E+03  0.60187869220E+03  0.80306683045E+02 0.  0.
         -6    2    1    2    0  502 -0.31142501954E+03  0.19197850084E+03  0.68581625177E+02  0.40996330704E+03  0.17182894466E+03 0.  0.
        -24    2    5    5    0    0 -0.87891561416E+02  0.89565131035E+02 -0.13841098406E+02  0.15059619158E+03  0.82102360798E+02 0.  0.
          5    1    3    3  501    0 -0.12073433352E+02  0.82138467098E+01  0.24328531521E+02  0.28761128571E+02  0.47000000000E+01 0. -1.
        -13    1    4    4    0    0  0.25607076285E+03 -0.18440791438E+03  0.34041049473E+03  0.46417434159E+03  0.00000000000E+00 0.  1.
         14    1    4    4    0    0  0.67427690044E+02 -0.15784433164E+02  0.11902456243E+03  0.13770435061E+03  0.00000000000E+00 0. -1.
         -5    1    5    5    0  502 -0.22353345813E+03  0.10241336980E+03  0.82422723583E+02  0.25936711545E+03  0.47000000000E+01 0.  1.
         13    1    6    6    0    0  0.51012235470E+01  0.41864038805E+02  0.10120791146E+02  0.43371080690E+02  0.00000000000E+00 0. -1.
        -14    1    6    6    0    0 -0.92992784963E+02  0.47701092229E+02 -0.23961889552E+02  0.10722511089E+03  0.00000000000E+00 0.  1.
</event>
<event>
12    1  0.1035051E+000  0.1887365E+03  0.7818608E-02  0.1159784E+00
         21   -1    0    0  501  502  0.00000000000E+00  0.00000000000E+00  0.92417371920E+02  0.92417371920E+02  0.00000000000E+00 0. -1.
         21   -1    0    0  502  503 -0.00000000000E+00 -0.00000000000E+00 -0.45842191747E+03  0.45842191747E+03  0.00000000000E+00 0. -1.
         -6    2    1    2    0  503 -0.30807838277E+02 -0.70131054208E+02 -0.71600758385E+02  0.20113218918E+03  0.17163916005E+03 0.  0.
        -24    2    3    3    0    0 -0.50060954025E+02  0.20054026849E+02 -0.30902554673E+02  0.10022398785E+03  0.78623258291E+02 0.  0.
          6    2    1    2  501    0  0.30807838277E+02  0.70131054208E+02 -0.29440378716E+03  0.34970710020E+03  0.17249341545E+03 0.  0.
         24    2    5    5    0    0 -0.48720701581E+02  0.43215974913E+02 -0.14230079538E+03  0.17590658163E+03  0.80326096921E+02 0.  0.
          5    1    5    5  501    0  0.79528539858E+02  0.26915079295E+02 -0.15210299179E+03  0.17380051857E+03  0.47000000000E+01 0. -1.
        -13    1    6    6    0    0  0.13014664529E+02  0.27928316124E+02 -0.84586041644E+02  0.90023167993E+02  0.00000000000E+00 0.  1.
         14    1    6    6    0    0 -0.61735366110E+02  0.15287658789E+02 -0.57714753731E+02  0.85883413639E+02  0.00000000000E+00 0. -1.
         -5    1    3    3    0  503  0.19253115748E+02 -0.90185081057E+02 -0.40698203712E+02  0.10090820133E+03  0.47000000000E+01 0.  1.
         11    1    4    4    0    0 -0.32540751719E+02  0.30261920633E+02  0.17489614913E+02  0.47755324234E+02  0.00000000000E+00 0. -1.
        -12    1    4    4    0    0 -0.17520202306E+02 -0.10207893785E+02 -0.48392169586E+02  0.52468663615E+02  0.00000000000E+00 0.  1.
</event>
<event>
12    1  0.1035051E+000  0.4307303E+03  0.7818608E-02  0.1034309E+00
         21   -1    0    0  503  502  0.00000000000E+00  0.00000000000E+00  0.55324459033E+03  0.55324459033E+03  0.00000000000E+00 0. -1.
         21   -1    0    0  501  503 -0.00000000000E+00 -0.00000000000E+00 -0.45057066711E+03  0.45057066711E+03  0.00000000000E+00 0. -1.
          6    2    1    2  501    0  0.16198252096E+03  0.35926727657E+03 -0.20927040516E+03  0.47887646346E+03  0.17383110099E+03 0.  0.
         24    2    3    3    0    0  0.14848210583E+03  0.34048733859E+03 -0.13920325016E+03  0.40494106268E+03  0.81370485399E+02 0.  0.
         -6    2    1    2    0  502 -0.16198252096E+03 -0.35926727657E+03  0.31194432838E+03  0.52493879397E+03  0.15146009473E+03 0.  0.
        -24    2    5    5    0    0 -0.17265852681E+03 -0.34756536998E+03  0.26864934736E+03  0.47859813040E+03  0.79189931787E+02 0.  0.
          5    1    3    3  501    0  0.13500415135E+02  0.18779937979E+02 -0.70067155002E+02  0.73935400786E+02  0.47000000000E+01 0. -1.
        -11    1    4    4    0    0  0.60014668973E+02  0.22761738238E+03 -0.10355800606E+03  0.25716860981E+03  0.00000000000E+00 0.  1.
         12    1    4    4    0    0  0.88467436853E+02  0.11286995622E+03 -0.35645244097E+02  0.14777245287E+03  0.00000000000E+00 0. -1.
         -5    1    5    5    0  502  0.10676005849E+02 -0.11701906594E+02  0.43294981022E+02  0.46340663575E+02  0.47000000000E+01 0.  1.
         11    1    6    6    0    0 -0.62964849989E+01 -0.12587180554E+02  0.34690114369E+02  0.37436437766E+02  0.00000000000E+00 0. -1.
        -12    1    6    6    0    0 -0.16636204181E+03 -0.33497818943E+03  0.23395923299E+03  0.44116169263E+03  0.00000000000E+00 0.  1.
</event>
<event>
12    1  0.1035051E+000  0.2437131E+03  0.7818608E-02  0.1118510E+00
         21   -1    0    0  503  502  0.00000000000E+00  0.00000000000E+00  0.84146343093E+03  0.84146343093E+03  0.00000000000E+00 0.  1.
         21   -1    0    0  501  503 -0.00000000000E+00 -0.00000000000E+00 -0.69118828566E+02  0.69118828566E+02  0.00000000000E+00 0.  1.
          6    2    1    2  501    0 -0.14178102450E+03 -0.85193313323E+02  0.43253962092E+03  0.49647416033E+03  0.17898689524E+03 0.  0.
         24    2    3    3    0    0 -0.62977425263E+02 -0.83530713097E+02  0.13427022818E+03  0.18793001092E+03  0.79659642886E+02 0.  0.
         -6    2    1    2    0  502  0.14178102450E+03  0.85193313323E+02  0.33980498144E+03  0.41410809916E+03  0.16928772205E+03 0.  0.
        -24    2    5    5    0    0  0.56460772438E+02  0.75209298566E+01  0.66220003781E+02  0.11715124276E+03  0.78070106751E+02 0.  0.
          5    1    3    3  501    0 -0.78803599235E+02 -0.16626002255E+01  0.29826939274E+03  0.30854414942E+03  0.47000000000E+01 0. -1.
        -11    1    4    4    0    0 -0.37796207884E+02 -0.42425008767E+01  0.11696517439E+02  0.39791464716E+02  0.00000000000E+00 0.  1.
         12    1    4    4    0    0 -0.25181217379E+02 -0.79288212220E+02  0.12257371074E+03  0.14813854620E+03  0.00000000000E+00 0. -1.
         -5    1    5    5    0  502  0.85320252060E+02  0.77672383466E+02  0.27358497766E+03  0.29695685641E+03  0.47000000000E+01 0.  1.
         11    1    6    6    0    0  0.39903242277E+02 -0.32246034558E+02  0.48411366983E+02  0.70538896661E+02  0.00000000000E+00 0. -1.
        -12    1    6    6    0    0  0.16557530161E+02  0.39766964415E+02  0.17808636798E+02  0.46612346095E+02  0.00000000000E+00 0.  1.
</event>
<event>
12    1  0.1035051E+000  0.2867521E+03  0.7818608E-02  0.1092120E+00
         21   -1    0    0  503  502  0.00000000000E+00  0.00000000000E+00  0.14742410641E+04  0.14742410641E+04  0.00000000000E+00 0.  1.
         21   -1    0    0  501  503 -0.00000000000E+00 -0.00000000000E+00 -0.56872563852E+02  0.56872563852E+02  0.00000000000E+00 0.  1.
          6    2    1    2  501    0  0.14650594403E+03 -0.17648102544E+03  0.81992325118E+03  0.86862011086E+03  0.17209652870E+03 0.  0.
         24    2    3    3    0    0  0.70001188503E+02 -0.51592419721E+02  0.53779584299E+03  0.55070800680E+03  0.80579127887E+02 0.  0.
         -6    2    1    2    0  502 -0.14650594403E+03  0.17648102544E+03  0.59744524909E+03  0.66249351711E+03  0.17131050924E+03 0.  0.
        -24    2    5    5    0    0 -0.52129631240E+02  0.14057106552E+03  0.26908842639E+03  0.31892881193E+03  0.82639475695E+02 0.  0.
          5    1    3    3  501    0  0.76504755525E+02 -0.12488860572E+03  0.28212740818E+03  0.31791210406E+03  0.47000000000E+01 0. -1.
        -13    1    4    4    0    0 -0.17034882646E+02 -0.86774055687E+01  0.54226097118E+02  0.57497427794E+02  0.00000000000E+00 0.  1.
         14    1    4    4    0    0  0.87036071150E+02 -0.42915014153E+02  0.48356974587E+03  0.49321057901E+03  0.00000000000E+00 0. -1.
         -5    1    5    5    0  502 -0.94376312788E+02  0.35909959923E+02  0.32835682270E+03  0.34356470519E+03  0.47000000000E+01 0.  1.
         11    1    6    6    0    0 -0.60215924619E+02  0.14729474515E+03  0.23966195134E+03  0.28767959686E+03  0.00000000000E+00 0. -1.
        -12    1    6    6    0    0  0.80862933790E+01 -0.67236796321E+01  0.29426475055E+02  0.31249215072E+02  0.00000000000E+00 0.  1.
</event>
<event>
12    1  0.1035051E+000  0.3333715E+03  0.7818608E-02  0.1069712E+00
         21   -1    0    0  501  502  0.00000000000E+00  0.00000000000E+00  0.57751410892E+03  0.57751410892E+03  0.00000000000E+00 0. -1.
         21   -1    0    0  502  503 -0.00000000000E+00 -0.00000000000E+00 -0.19234721475E+03  0.19234721475E+03  0.00000000000E+00 0. -1.
         -6    2    1    2    0  503  0.28357926662E+03  0.32926264019E+02  0.18008122840E+03  0.37890077172E+03  0.17214879225E+03 0.  0.
        -24    2    3    3    0    0  0.16030782837E+03 -0.28989144823E+02  0.15614570081E+03  0.23881378153E+03  0.78176543873E+02 0.  0.
          6    2    1    2  501    0 -0.28357926662E+03 -0.32926264019E+02  0.20508566577E+03  0.39096055195E+03  0.17113936883E+03 0.  0.
         24    2    5    5    0    0 -0.19026871178E+03  0.39541003466E+02  0.12197533544E+03  0.24643449372E+03  0.89923876707E+02 0.  0.
          5    1    5    5  501    0 -0.93310554836E+02 -0.72467267486E+02  0.83110330334E+02  0.14452605823E+03  0.47000000000E+01 0. -1.
        -13    1    6    6    0    0 -0.16573860182E+03 -0.67068411787E+00  0.10580638487E+03  0.19663347892E+03  0.00000000000E+00 0.  1.
         14    1    6    6    0    0 -0.24530109954E+02  0.40211687584E+02  0.16168950567E+02  0.49801014800E+02  0.00000000000E+00 0. -1.
         -5    1    3    3    0  503  0.12327143825E+03  0.61915408843E+02  0.23935527583E+02  0.14008699019E+03  0.47000000000E+01 0.  1.
         13    1    4    4    0    0  0.40773066438E+02 -0.84900349590E+01  0.93398677942E+02  0.10226356478E+03  0.00000000000E+00 0. -1.
        -14    1    4    4    0    0  0.11953476193E+03 -0.20499109864E+02  0.62747022872E+02  0.13655021675E+03  0.00000000000E+00 0.  1.
</event>
<event>
12    1  0.1035051E+000  0.2164034E+03  0.7818608E-02  0.1136872E+00
         21   -1    0    0  501  502  0.00000000000E+00  0.00000000000E+00  0.16026486821E+03  0.16026486821E+03  0.00000000000E+00 0. -1.
         21   -1    0    0  502  503 -0.00000000000E+00 -0.00000000000E+00 -0.29211288719E+03  0.29211288719E+03  0.00000000000E+00 0. -1.
         -6    2    1    2    0  503 -0.67699403246E+01  0.12903765348E+03 -0.84258590809E+02  0.23222817378E+03  0.17359108982E+03 0.  0.
        -24    2    3    3    0    0 -0.21107105855E+02  0.12621189519E+03 -0.41717944303E+01  0.15068355913E+03  0.79455514070E+02 0.  0.
          6    2    1    2  501    0  0.67699403246E+01 -0.12903765348E+03 -0.47589428174E+02  0.22014958161E+03  0.17176884613E+03 0.  0.
         24    2    5    5    0    0  0.54566788397E+02 -0.27442859494E+02 -0.17656957734E+02  0.10385648793E+03  0.82120381126E+02 0.  0.
          5    1    5    5  501    0 -0.47796848072E+02 -0.10159479399E+03 -0.29932470441E+02  0.11629309368E+03  0.47000000000E+01 0. -1.
        -11    1    6    6    0    0  0.47630990203E+00 -0.33737605318E+02  0.18510123459E+02  0.38484770419E+02  0.00000000000E+00 0.  1.
         12    1    6    6    0    0  0.54090478495E+02  0.62947458242E+01 -0.36167081193E+02  0.65371717515E+02  0.00000000000E+00 0. -1.
         -5    1    3    3    0  503  0.14337165531E+02  0.28257582874E+01 -0.80086796379E+02  0.81544614657E+02  0.47000000000E+01 0.  1.
         13    1    4    4    0    0  0.14107515134E+02  0.10523200807E+03  0.11510449767E+02  0.10679554278E+03  0.00000000000E+00 0. -1.
        -14    1    4    4    0    0 -0.35214620989E+02  0.20979887127E+02 -0.15682244198E+02  0.43888016341E+02  0.00000000000E+00 0.  1.
</event>
<event>
12    1  0.1035051E+000  0.1916715E+03  0.7818608E-02  0.1158218E+00
         21   -1    0    0  501  502  0.00000000000E+00  0.00000000000E+00  0.10581823680E+03  0.10581823680E+03  0.00000000000E+00 0.  1.
         21   -1    0    0  502  503 -0.00000000000E+00 -0.00000000000E+00 -0.36620783876E+03  0.36620783876E+03  0.00000000000E+00 0.  1.
         -6    2    1    2    0  503  0.61778150406E+02  0.32826414353E+02 -0.62032708033E+02  0.19619386189E+03  0.17248148083E+03 0.  0.
        -24    2    3    3    0    0 -0.12139657118E+02 -0.15434263776E+02 -0.69103357289E+02  0.10750891726E+03  0.79983157783E+02 0.  0.
          6    2    1    2  501    0 -0.61778150406E+02 -0.32826414353E+02 -0.19835689392E+03  0.27583221367E+03  0.17844842219E+03 0.  0.
         24    2    5    5    0    0 -0.64407994984E+02 -0.70649670277E+01 -0.33657461581E+02  0.10904324142E+03  0.80989506736E+02 0.  0.
          5    1    5    5  501    0  0.26298445779E+01 -0.25761447325E+02 -0.16469943234E+03  0.16678897225E+03  0.47000000000E+01 0. -1.
        -13    1    6    6    0    0  0.18744408007E+02  0.16081547869E+01 -0.13173373783E+02  0.22966862436E+02  0.00000000000E+00 0.  1.
         14    1    6    6    0    0 -0.83152402991E+02 -0.86731218146E+01 -0.20484087799E+02  0.86076378979E+02  0.00000000000E+00 0. -1.
         -5    1    3    3    0  503  0.73917807524E+02  0.48260678129E+02  0.70706492561E+01  0.88684944628E+02  0.47000000000E+01 0.  1.
         11    1    4    4    0    0  0.23183922290E+02 -0.32869219415E+02 -0.48646504091E+02  0.63121804458E+02  0.00000000000E+00 0. -1.
        -12    1    4    4    0    0 -0.35323579408E+02  0.17434955639E+02 -0.20456853198E+02  0.44387112804E+02  0.00000000000E+00 0.  1.
</event>
<event>
12    1  0.1035051E+000  0.1767857E+03  0.7818608E-02  0.1171038E+00
         21   -1    0    0  503  502  0.00000000000E+00  0.00000000000E+00  0.37659105524E+03  0.37659105524E+03  0.00000000000E+00 0.  1.
         21   -1    0    0  501  503 -0.00000000000E+00 -0.00000000000E+00 -0.13256021587E+03  0.13256021587E+03  0.00000000000E+00 0.  1.
          6    2    1    2  501    0  0.94083108517E+01  0.36896814464E+02  0.27787395342E+03  0.32915529409E+03  0.17227705130E+03 0.  0.
         24    2    3    3    0    0  0.71697089067E+02  0.81764504491E+01  0.17834278639E+03  0.20818713955E+03  0.79551296005E+02 0.  0.
         -6    2    1    2    0  502 -0.94083108517E+01 -0.36896814464E+02 -0.33843114044E+02  0.17999597703E+03  0.17263633496E+03 0.  0.
        -24    2    5    5    0    0 -0.38813485298E+02 -0.26863401800E+02  0.37936595163E+02  0.10163941822E+03  0.81628776094E+02 0.  0.
          5    1    3    3  501    0 -0.62288778215E+02  0.28720364015E+02  0.99531167028E+02  0.12096815453E+03  0.47000000000E+01 0. -1.
        -13    1    4    4    0    0  0.16509704950E+02 -0.27965969096E+02  0.24136862070E+02  0.40462994151E+02  0.00000000000E+00 0.  1.
         14    1    4    4    0    0  0.55187384117E+02  0.36142419545E+02  0.15420592432E+03  0.16772414540E+03  0.00000000000E+00 0. -1.
         -5    1    5    5    0  502  0.29405174447E+02 -0.10033412664E+02 -0.71779709207E+02  0.78356558805E+02  0.47000000000E+01 0.  1.
         13    1    6    6    0    0 -0.18182347321E+02  0.65423038579E+01 -0.22443609674E+02  0.29616129205E+02  0.00000000000E+00 0. -1.
        -14    1    6    6    0    0 -0.20631137977E+02 -0.33405705658E+02  0.60380204837E+02  0.72023289017E+02  0.00000000000E+00 0.  1.
</event>
<event>
12    1  0.1035051E+000  0.2177193E+03  0.7818608E-02  0.1135867E+00
         21   -1    0    0  501  502  0.00000000000E+00  0.00000000000E+00  0.25786234195E+03  0.25786234195E+03  0.00000000000E+00 0. -1.
         21   -1    0    0  502  503 -0.00000000000E+00 -0.00000000000E+00 -0.19350392972E+03  0.19350392972E+03  0.00000000000E+00 0. -1.
         -6    2    1    2    0  503  0.66887779241E+02 -0.11706742895E+03 -0.21456916318E+02  0.21734495293E+03  0.16911437365E+03 0.  0.
        -24    2    3    3    0    0  0.45652357487E+02 -0.50345188190E+02 -0.61226634774E+02  0.13668194372E+03  0.10156021473E+03 0.  0.
          6    2    1    2  501    0 -0.66887779241E+02  0.11706742895E+03  0.85815328542E+02  0.23402131874E+03  0.17094721138E+03 0.  0.
         24    2    5    5    0    0 -0.73140538791E+02  0.55509867422E+02  0.11584740727E+03  0.16508333113E+03  0.73491500517E+02 0.  0.
          5    1    5    5  501    0  0.62527595497E+01  0.61557561525E+02 -0.30032078731E+02  0.68937987611E+02  0.47000000000E+01 0. -1.
        -11    1    6    6    0    0 -0.83248349482E+02  0.52488515422E+02  0.77369381809E+02  0.12518527543E+03  0.00000000000E+00 0.  1.
         12    1    6    6    0    0  0.10107810691E+02  0.30213520006E+01  0.38478025464E+02  0.39898055698E+02  0.00000000000E+00 0. -1.
         -5    1    3    3    0  503  0.21235421754E+02 -0.66722240757E+02  0.39769718456E+02  0.80663009210E+02  0.47000000000E+01 0.  1.
         13    1    4    4    0    0  0.14410949365E+02  0.45201202688E+01  0.25362555008E+02  0.29518911657E+02  0.00000000000E+00 0. -1.
        -14    1    4    4    0    0  0.31241408121E+02 -0.54865308459E+02 -0.86589189783E+02  0.10716303206E+03  0.00000000000E+00 0.  1.
</event>
<event>
12    1  0.1035051E+000  0.2389311E+03  0.7818608E-02  0.1120661E+00
         21   -1    0    0  501  502  0.00000000000E+00  0.00000000000E+00  0.22927070114E+03  0.22927070114E+03  0.00000000000E+00 0.  1.
         21   -1    0    0  502  503 -0.00000000000E+00 -0.00000000000E+00 -0.25707714954E+03  0.25707714954E+03  0.00000000000E+00 0.  1.
         -6    2    1    2    0  503  0.86713750547E+02 -0.13955174007E+03 -0.59520490075E+02  0.24623318698E+03  0.17347660056E+03 0.  0.
        -24    2    3    3    0    0  0.87594296878E+02 -0.20681305960E+02 -0.51997231420E+02  0.12702897192E+03  0.73021711635E+02 0.  0.
          6    2    1    2  501    0 -0.86713750547E+02  0.13955174007E+03  0.31714041669E+02  0.24011466371E+03  0.17220716768E+03 0.  0.
         24    2    5    5    0    0 -0.44868686280E+02  0.67987043011E+02 -0.48283474381E+02  0.12481415269E+03  0.81313232541E+02 0.  0.
          5    1    5    5  501    0 -0.41845064267E+02  0.71564697054E+02  0.79997516051E+02  0.11530051102E+03  0.47000000000E+01 0. -1.
        -13    1    6    6    0    0 -0.39557330698E+02 -0.49588609972E+01 -0.59539059913E+01  0.40309077276E+02  0.00000000000E+00 0.  1.
         14    1    6    6    0    0 -0.53113555826E+01  0.72945904009E+02 -0.42329568390E+02  0.84505075409E+02  0.00000000000E+00 0. -1.
         -5    1    3    3    0  503 -0.88054633101E+00 -0.11887043410E+03 -0.75232586558E+01  0.11920421505E+03  0.47000000000E+01 0.  1.
         13    1    4    4    0    0  0.19289650286E+02 -0.40282523002E+02 -0.16688923310E+02  0.47679056501E+02  0.00000000000E+00 0. -1.
        -14    1    4    4    0    0  0.68304646592E+02  0.19601217042E+02 -0.35308308110E+02  0.79349915420E+02  0.00000000000E+00 0.  1.
</event>
<event>
12    1  0.1035051E+000  0.1713881E+03  0.7818608E-02  0.1176724E+00
         21   -1    0    0  501  502  0.00000000000E+00  0.00000000000E+00  0.23514864526E+03  0.23514864526E+03  0.00000000000E+00 0. -1.
         21   -1    0    0  502  503 -0.00000000000E+00 -0.00000000000E+00 -0.15907322626E+03  0.15907322626E+03  0.00000000000E+00 0. -1.
         -6    2    1    2    0  503 -0.19592297698E+01 -0.81649995768E-01 -0.54584646698E+02  0.17870868247E+03  0.17015717524E+03 0.  0.
        -24    2    3    3    0    0  0.98214967570E+01 -0.49857438539E+02 -0.77109832652E+02  0.12262046049E+03  0.80669852253E+02 0.  0.
          6    2    1    2  501    0  0.19592297698E+01  0.81649995768E-01  0.13066006570E+03  0.21551318905E+03  0.17137688478E+03 0.  0.
         24    2    5    5    0    0  0.82629829527E+01  0.21939380497E+02  0.33505312132E+00  0.83134200569E+02  0.79759449220E+02 0.  0.
          5    1    5    5  501    0 -0.63037531829E+01 -0.21857730501E+02  0.13032501258E+03  0.13237898848E+03  0.47000000000E+01 0. -1.
        -13    1    6    6    0    0  0.91381290592E+00 -0.28549854726E+02 -0.11442680354E+02  0.30771158454E+02  0.00000000000E+00 0.  1.
         14    1    6    6    0    0  0.73491700468E+01  0.50489235223E+02  0.11777733476E+02  0.52363042116E+02  0.00000000000E+00 0. -1.
         -5    1    3    3    0  503 -0.11780726527E+02  0.49775788543E+02  0.22525185954E+02  0.56088221980E+02  0.47000000000E+01 0.  1.
         13    1    4    4    0    0  0.19113015625E+02  0.12467293468E+02 -0.48123228950E+02  0.53259608873E+02  0.00000000000E+00 0. -1.
        -14    1    4    4    0    0 -0.92915188684E+01 -0.62324732007E+02 -0.28986603702E+02  0.69360851615E+02  0.00000000000E+00 0.  1.
</event>
<event>
12    1  0.1035051E+000  0.2134186E+03  0.7818608E-02  0.1138891E+00
         21   -1    0    0  503  502  0.00000000000E+00  0.00000000000E+00  0.11770313517E+04  0.11770313517E+04  0.00000000000E+00 0.  1.
         21   -1    0    0  501  503 -0.00000000000E+00 -0.00000000000E+00 -0.52731082840E+02  0.52731082840E+02  0.00000000000E+00 0.  1.
          6    2    1    2  501    0  0.44271588273E+02  0.11836008371E+03  0.24491281388E+03  0.32485347437E+03  0.17198375057E+03 0.  0.
         24    2    3    3    0    0  0.19433475986E+02  0.10041959151E+03  0.69270743596E+02  0.14649703367E+03  0.78747638758E+02 0.  0.
         -6    2    1    2    0  502 -0.44271588273E+02 -0.11836008371E+03  0.87938745501E+03  0.90490896020E+03  0.17195594577E+03 0.  0.
        -24    2    5    5    0    0  0.67351448906E+01 -0.59818732326E+02  0.24268759068E+03  0.26347495433E+03  0.83055053891E+02 0.  0.
          5    1    3    3  501    0  0.24838112287E+02  0.17940492206E+02  0.17564207029E+03  0.17835644069E+03  0.47000000000E+01 0. -1.
        -13    1    4    4    0    0  0.36821961845E+02  0.91093626894E+02  0.30307416227E+02  0.10282239646E+03  0.00000000000E+00 0.  1.
         14    1    4    4    0    0 -0.17388485858E+02  0.93259646116E+01  0.38963327369E+02  0.43674637217E+02  0.00000000000E+00 0. -1.
         -5    1    5    5    0  502 -0.51006733164E+02 -0.58541351387E+02  0.63669986433E+03  0.64143400587E+03  0.47000000000E+01 0.  1.
         13    1    6    6    0    0 -0.31756314645E+02 -0.55306330937E+02  0.14711632724E+03  0.16034483933E+03  0.00000000000E+00 0. -1.
        -14    1    6    6    0    0  0.38491459536E+02 -0.45124013889E+01  0.95571263446E+02  0.10313011500E+03  0.00000000000E+00 0.  1.
</event>
<event>
12    1  0.1035051E+000  0.1897175E+03  0.7818608E-02  0.1158725E+00
         21   -1    0    0  501  502  0.00000000000E+00  0.00000000000E+00  0.16520596022E+03  0.16520596022E+03  0.00000000000E+00 0.  1.
         21   -1    0    0  502  503 -0.00000000000E+00 -0.00000000000E+00 -0.30152087853E+03  0.30152087853E+03  0.00000000000E+00 0. -1.
         -6    2    1    2    0  503 -0.79636359749E+02 -0.15541804352E+02  0.54800749781E+02  0.19743530401E+03  0.17144701694E+03 0.  0.
        -24    2    3    3    0    0  0.18470453458E+02 -0.98108315932E+01 -0.28374368328E+01  0.83408809711E+02  0.80694289898E+02 0.  0.
          6    2    1    2  501    0  0.79636359749E+02  0.15541804352E+02 -0.19111566809E+03  0.26929153473E+03  0.17149120856E+03 0.  0.
         24    2    5    5    0    0 -0.20114262978E+02  0.29449837651E+02 -0.90208139067E+02  0.12664498014E+03  0.81422147642E+02 0.  0.
          5    1    5    5  501    0  0.99750622727E+02 -0.13908033299E+02 -0.10090752902E+03  0.14264655460E+03  0.47000000000E+01 0. -1.
        -13    1    6    6    0    0 -0.13145722233E+02 -0.19205942924E+02  0.71675592415E+00  0.23285016549E+02  0.00000000000E+00 0.  1.
         14    1    6    6    0    0 -0.69685407448E+01  0.48655780575E+02 -0.90924894991E+02  0.10335996359E+03  0.00000000000E+00 0. -1.
         -5    1    3    3    0  503 -0.98106813208E+02 -0.57309727589E+01  0.57638186613E+02  0.11402649430E+03  0.47000000000E+01 0.  1.
         13    1    4    4    0    0  0.29923817448E+02 -0.26375178059E+02 -0.29774855279E+02  0.49775765943E+02  0.00000000000E+00 0. -1.
        -14    1    4    4    0    0 -0.11453363990E+02  0.16564346466E+02  0.26937418446E+02  0.33633043768E+02  0.00000000000E+00 0.  1.
</event>
<event>
12    1  0.1035051E+000  0.1833789E+03  0.7818608E-02  0.1167257E+00
         21   -1    0    0  503  502  0.00000000000E+00  0.00000000000E+00  0.31706276365E+02  0.31706276365E+02  0.00000000000E+00 0. -1.
         21   -1    0    0  501  503 -0.00000000000E+00 -0.00000000000E+00 -0.11316608871E+04  0.11316608871E+04  0.00000000000E+00 0. -1.
          6    2    1    2  501    0  0.17542683721E+02 -0.62184090973E+02 -0.36511268074E+03  0.40857692763E+03  0.17161943139E+03 0.  0.
         24    2    3    3    0    0  0.53025736808E+02  0.41697299776E+01 -0.13208091256E+03  0.16365291576E+03  0.80670899093E+02 0.  0.
         -6    2    1    2    0  502 -0.17542683721E+02  0.62184090973E+02 -0.73484193002E+03  0.75479023586E+03  0.15981561599E+03 0.  0.
        -24    2    5    5    0    0 -0.41998062540E+02  0.94921546883E+02 -0.58047941008E+03  0.59504142010E+03  0.79649286226E+02 0.  0.
          5    1    3    3  501    0 -0.35483053088E+02 -0.66353820951E+02 -0.23303176818E+03  0.24492401187E+03  0.47000000000E+01 0. -1.
        -11    1    4    4    0    0  0.23078715933E+01  0.34996003778E+02 -0.33004052277E+02  0.48159256830E+02  0.00000000000E+00 0.  1.
         12    1    4    4    0    0  0.50717865215E+02 -0.30826273801E+02 -0.99076860286E+02  0.11549365893E+03  0.00000000000E+00 0. -1.
         -5    1    5    5    0  502  0.24455378819E+02 -0.32737455910E+02 -0.15436251994E+03  0.15974881575E+03  0.47000000000E+01 0.  1.
         13    1    6    6    0    0  0.76423898259E+00 -0.13836126468E+02 -0.54221793321E+02  0.55964500603E+02  0.00000000000E+00 0. -1.
        -14    1    6    6    0    0 -0.42762301523E+02  0.10875767335E+03 -0.52625761676E+03  0.53907691950E+03  0.00000000000E+00 0.  1.
</event>
<event>
12    1  0.1035051E+000  0.1930721E+03  0.7818608E-02  0.1155740E+00
         21   -1    0    0  501  502  0.00000000000E+00  0.00000000000E+00  0.53199362964E+03  0.53199362964E+03  0.00000000000E+00 0.  1.
         21   -1    0    0  502  503 -0.00000000000E+00 -0.00000000000E+00 -0.70527532549E+02  0.70527532549E+02  0.00000000000E+00 0.  1.
         -6    2    1    2    0  503  0.96824481905E+01 -0.86490891386E+02  0.25581030586E+03  0.32043756393E+03  0.17224080730E+03 0.  0.
        -24    2    3    3    0    0  0.64636949289E+01 -0.48286027257E+02  0.26451544672E+03  0.28084158569E+03  0.80809992671E+02 0.  0.
          6    2    1    2  501    0 -0.96824481905E+01  0.86490891386E+02  0.20565579124E+03  0.28208359826E+03  0.17234392314E+03 0.  0.
         24    2    5    5    0    0 -0.70283011141E+02  0.37831761851E+02  0.97877249067E+02  0.14912329114E+03  0.79289698045E+02 0.  0.
          5    1    5    5  501    0  0.60600562951E+02  0.48659129535E+02  0.10777854217E+03  0.13296030712E+03  0.47000000000E+01 0. -1.
        -13    1    6    6    0    0 -0.21997033856E+02 -0.65621568848E+01  0.76907981985E+02  0.80260632283E+02  0.00000000000E+00 0.  1.
         14    1    6    6    0    0 -0.48285977286E+02  0.44393918735E+02  0.20969267082E+02  0.68862658859E+02  0.00000000000E+00 0. -1.
         -5    1    3    3    0  503  0.32187532616E+01 -0.38204864129E+02 -0.87051408657E+01  0.39595978244E+02  0.47000000000E+01 0.  1.
         11    1    4    4    0    0 -0.32211543043E+02 -0.44760892197E+02  0.14268001355E+03  0.15296635984E+03  0.00000000000E+00 0. -1.
        -12    1    4    4    0    0  0.38675237972E+02 -0.35251350602E+01  0.12183543317E+03  0.12787522585E+03  0.00000000000E+00 0.  1.
</event>
<event>
12    1  0.1035051E+000  0.3192069E+03  0.7818608E-02  0.1076182E+00
         21   -1    0    0  503  502  0.00000000000E+00  0.00000000000E+00  0.35636952684E+03  0.35636952684E+03  0.00000000000E+00 0.  1.
         21   -1    0    0  501  503 -0.00000000000E+00 -0.00000000000E+00 -0.29134077341E+03  0.29134077341E+03  0.00000000000E+00 0.  1.
          6    2    1    2  501    0 -0.25268840427E+03  0.90122787200E+02  0.81734595687E+02  0.32950508410E+03  0.17297256976E+03 0.  0.
         24    2    3    3    0    0 -0.12458210589E+03  0.90859684952E+02  0.99815026503E+02  0.20004173530E+03  0.79230504794E+02 0.  0.
         -6    2    1    2    0  502  0.25268840427E+03 -0.90122787200E+02 -0.16705842252E+02  0.31820521614E+03  0.17029952434E+03 0.  0.
        -24    2    5    5    0    0  0.40397477699E+02 -0.26823676203E+02 -0.24835318599E+02  0.96479274172E+02  0.79624063481E+02 0.  0.
          5    1    3    3  501    0 -0.12810629838E+03 -0.73689775128E+00 -0.18080430816E+02  0.12946334880E+03  0.47000000000E+01 0. -1.
        -13    1    4    4    0    0 -0.43026850440E+00  0.76123544318E+01 -0.11409740434E+02  0.13722800289E+02  0.00000000000E+00 0.  1.
         14    1    4    4    0    0 -0.12415183738E+03  0.83247330520E+02  0.11122476694E+03  0.18631893501E+03  0.00000000000E+00 0. -1.
         -5    1    5    5    0  502  0.21229092657E+03 -0.63299110997E+02  0.81294763469E+01  0.22172594197E+03  0.47000000000E+01 0.  1.
         11    1    6    6    0    0  0.60790413709E+02 -0.23911560716E+02 -0.14849038829E+01  0.65340967810E+02  0.00000000000E+00 0. -1.
        -12    1    6    6    0    0 -0.20392936009E+02 -0.29121154869E+01 -0.23350414716E+02  0.31138306362E+02  0.00000000000E+00 0.  1.
</event>
<event>
12    1  0.1035051E+000  0.4722131E+03  0.7818608E-02  0.1021434E+00
         21   -1    0    0  501  502  0.00000000000E+00  0.00000000000E+00  0.84417625274E+03  0.84417625274E+03  0.00000000000E+00 0. -1.
         21   -1    0    0  502  503 -0.00000000000E+00 -0.00000000000E+00 -0.32545708081E+03  0.32545708081E+03  0.00000000000E+00 0. -1.
         -6    2    1    2    0  503  0.43002565561E+03 -0.82001681079E+02  0.28586334035E+01  0.47027843799E+03  0.17177688222E+03 0.  0.
        -24    2    3    3    0    0  0.23146142290E+03 -0.32849719293E+02 -0.63564469390E+02  0.25515570919E+03  0.80065596945E+02 0.  0.
          6    2    1    2  501    0 -0.43002565561E+03  0.82001681079E+02  0.51586053853E+03  0.69935489557E+03  0.17702777907E+03 0.  0.
         24    2    5    5    0    0 -0.39895166430E+03  0.26738447876E+02  0.43235273746E+03  0.59440128335E+03  0.80663628790E+02 0.  0.
          5    1    5    5  501    0 -0.31073991316E+02  0.55263233204E+02  0.83507801065E+02  0.10495361222E+03  0.47000000000E+01 0. -1.
        -11    1    6    6    0    0 -0.27857335665E+03  0.12299340477E+02  0.24469640048E+03  0.37098614154E+03  0.00000000000E+00 0.  1.
         12    1    6    6    0    0 -0.12037830765E+03  0.14439107399E+02  0.18765633699E+03  0.22341514180E+03  0.00000000000E+00 0. -1.
         -5    1    3    3    0  503  0.19856423271E+03 -0.49151961787E+02  0.66423102793E+02  0.21512272879E+03  0.47000000000E+01 0.  1.
         13    1    4    4    0    0  0.17415098443E+03 -0.86304621356E+01 -0.12760990843E+02  0.17483104170E+03  0.00000000000E+00 0. -1.
        -14    1    4    4    0    0  0.57310438475E+02 -0.24219257157E+02 -0.50803478547E+02  0.80324667493E+02  0.00000000000E+00 0.  1.
</event>
<event>
12    1  0.1035051E+000  0.5956850E+03  0.7818608E-02  0.9915194E-01
         21   -1    0    0  503  502  0.00000000000E+00  0.00000000000E+00  0.38981960051E+03  0.38981960051E+03  0.00000000000E+00 0. -1.
         21   -1    0    0  501  503 -0.00000000000E+00 -0.00000000000E+00 -0.90804678082E+03  0.90804678082E+03  0.00000000000E+00 0. -1.
          6    2    1    2  501    0 -0.50447144417E+03 -0.26295986711E+03 -0.25213791851E+03  0.64545235099E+03  0.17145226086E+03 0.  0.
         24    2    3    3    0    0 -0.42432257682E+03 -0.27608598043E+03 -0.22419140714E+03  0.55943355487E+03  0.80193500297E+02 0.  0.
         -6    2    1    2    0  502  0.50447144417E+03  0.26295986711E+03 -0.26608926180E+03  0.65241403034E+03  0.17663873314E+03 0.  0.
        -24    2    5    5    0    0  0.23292566816E+03  0.52238440576E+02 -0.11817359055E+03  0.27819248651E+03  0.80267306433E+02 0.  0.
          5    1    3    3  501    0 -0.80148867351E+02  0.13126113317E+02 -0.27946511367E+02  0.86018796120E+02  0.47000000000E+01 0. -1.
        -13    1    4    4    0    0 -0.76972390339E+02 -0.75926620505E+02 -0.75422071558E+02  0.13182598171E+03  0.00000000000E+00 0.  1.
         14    1    4    4    0    0 -0.34735018648E+03 -0.20015935992E+03 -0.14876933559E+03  0.42760757316E+03  0.00000000000E+00 0. -1.
         -5    1    5    5    0  502  0.27154577601E+03  0.21072142653E+03 -0.14791567125E+03  0.37422154384E+03  0.47000000000E+01 0.  1.
         13    1    6    6    0    0  0.23261945350E+03  0.59242069248E+02 -0.10248122504E+03  0.26100542983E+03  0.00000000000E+00 0. -1.
        -14    1    6    6    0    0  0.30621466603E+00 -0.70036286715E+01 -0.15692365509E+02  0.17187056678E+02  0.00000000000E+00 0.  1.
</event>
<event>
12    1  0.1035051E+000  0.2266462E+03  0.7818608E-02  0.1129063E+00
         21   -1    0    0  501  502  0.00000000000E+00  0.00000000000E+00  0.57690581422E+02  0.57690581422E+02  0.00000000000E+00 0.  1.
         21   -1    0    0  502  503 -0.00000000000E+00 -0.00000000000E+00 -0.14708488268E+04  0.14708488268E+04  0.00000000000E+00 0.  1.
         -6    2    1    2    0  503 -0.62897091608E+02 -0.13199248605E+03 -0.22589204772E+03  0.31983367893E+03  0.17288234279E+03 0.  0.
        -24    2    3    3    0    0 -0.50395351387E+02 -0.74422178688E+02 -0.23079779299E+03  0.26053114833E+03  0.80811545447E+02 0.  0.
          6    2    1    2  501    0  0.62897091608E+02  0.13199248605E+03 -0.11872661977E+04  0.12087057293E+04  0.17317752572E+03 0.  0.
         24    2    5    5    0    0  0.49593086727E+02  0.34061995339E+01 -0.39765427437E+03  0.40856792302E+03  0.79547151738E+02 0.  0.
          5    1    5    5  501    0  0.13304004881E+02  0.12858628652E+03 -0.78961192334E+03  0.80013780632E+03  0.47000000000E+01 0. -1.
        -11    1    6    6    0    0  0.10693840955E+00  0.29646303231E+02 -0.22768741572E+03  0.22960939442E+03  0.00000000000E+00 0.  1.
         12    1    6    6    0    0  0.49486148318E+02 -0.26240103697E+02 -0.16996685865E+03  0.17895852859E+03  0.00000000000E+00 0. -1.
         -5    1    3    3    0  503 -0.12501740221E+02 -0.57570307366E+02  0.49057452758E+01  0.59302530599E+02  0.47000000000E+01 0.  1.
         13    1    4    4    0    0 -0.11703126015E+02 -0.73363616774E+02 -0.19134722469E+03  0.20526310877E+03  0.00000000000E+00 0. -1.
        -14    1    4    4    0    0 -0.38692225372E+02 -0.10585619142E+01 -0.39450568303E+02  0.55268039561E+02  0.00000000000E+00 0.  1.
</event>
<event>
12    1  0.1035051E+000  0.3342284E+03  0.7818608E-02  0.1069525E+00
         21   -1    0    0  501  502  0.00000000000E+00  0.00000000000E+00  0.29214764180E+03  0.29214764180E+03  0.00000000000E+00 0. -1.
         21   -1    0    0  502  503 -0.00000000000E+00 -0.00000000000E+00 -0.49467976855E+03  0.49467976855E+03  0.00000000000E+00 0. -1.
         -6    2    1    2    0  503 -0.25968490638E+03  0.11966893817E+03 -0.29057272276E+03  0.44119792725E+03  0.16871928887E+03 0.  0.
        -24    2    3    3    0    0 -0.16314414414E+03  0.38285617594E+02 -0.94934290551E+02  0.20830342367E+03  0.79347315703E+02 0.  0.
          6    2    1    2  501    0  0.25968490638E+03 -0.11966893817E+03  0.88040596015E+02  0.34562948310E+03  0.17306555889E+03 0.  0.
         24    2    5    5    0    0  0.42230195087E+02 -0.57359951059E+02  0.32406687236E+02  0.11263552793E+03  0.81012439855E+02 0.  0.
          5    1    5    5  501    0  0.21745471129E+03 -0.62308987108E+02  0.55633908780E+02  0.23299395517E+03  0.47000000000E+01 0. -1.
        -11    1    6    6    0    0  0.65188322901E+02 -0.29307825052E+02  0.18678038048E+02  0.73873778550E+02  0.00000000000E+00 0.  1.
         12    1    6    6    0    0 -0.22958127814E+02 -0.28052126007E+02  0.13728649188E+02  0.38761749377E+02  0.00000000000E+00 0. -1.
         -5    1    3    3    0  503 -0.96540762245E+02  0.81383320573E+02 -0.19563843221E+03  0.23289450359E+03  0.47000000000E+01 0.  1.
         11    1    4    4    0    0 -0.24537815522E+01  0.23958885977E+02 -0.12164751848E+02  0.26982039372E+02  0.00000000000E+00 0. -1.
        -12    1    4    4    0    0 -0.16069036258E+03  0.14326731617E+02 -0.82769538703E+02  0.18132138430E+03  0.00000000000E+00 0.  1.
</event>
<event>
12    1  0.1035051E+000  0.3760219E+03  0.7818608E-02  0.1052417E+00
         21   -1    0    0  503  502  0.00000000000E+00  0.00000000000E+00  0.33948541652E+03  0.33948541652E+03  0.00000000000E+00 0. -1.
         21   -1    0    0  501  503 -0.00000000000E+00 -0.00000000000E+00 -0.43329121272E+03  0.43329121272E+03  0.00000000000E+00 0.  1.
          6    2    1    2  501    0  0.23702591914E+03 -0.23627220587E+03 -0.12307520736E+03  0.39561727821E+03  0.17134667357E+03 0.  0.
         24    2    3    3    0    0  0.11743637120E+03 -0.92161168376E+02 -0.12385852962E+03  0.20828774318E+03  0.75880605959E+02 0.  0.
         -6    2    1    2    0  502 -0.23702591914E+03  0.23627220587E+03  0.29269411157E+02  0.37715935103E+03  0.17142530744E+03 0.  0.
        -24    2    5    5    0    0 -0.21302517821E+03  0.15395447860E+03  0.68281701764E+02  0.28283919090E+03  0.79081660852E+02 0.  0.
          5    1    3    3  501    0  0.11958954793E+03 -0.14411103749E+03  0.78332225629E+00  0.18732953503E+03  0.47000000000E+01 0. -1.
        -11    1    4    4    0    0  0.43389558920E+02 -0.81825228569E+02 -0.65375042751E+02  0.11336630041E+03  0.00000000000E+00 0.  1.
         12    1    4    4    0    0  0.74046812283E+02 -0.10335939807E+02 -0.58483486866E+02  0.94921442767E+02  0.00000000000E+00 0. -1.
         -5    1    5    5    0  502 -0.24000740932E+02  0.82317727271E+02 -0.39012290606E+02  0.94320160129E+02  0.47000000000E+01 0.  1.
         11    1    6    6    0    0 -0.70013219178E+02  0.12595950853E+02  0.34035414742E+02  0.78860118528E+02  0.00000000000E+00 0. -1.
        -12    1    6    6    0    0 -0.14301195903E+03  0.14135852774E+03  0.34246287022E+02  0.20397907237E+03  0.00000000000E+00 0.  1.
</event>
<event>
12    1  0.1035051E+000  0.1908382E+03  0.7818608E-02  0.1159772E+00
         21   -1    0    0  503  502  0.00000000000E+00  0.00000000000E+00  0.30958925335E+02  0.30958925335E+02  0.00000000000E+00 0.  1.
         21   -1    0    0  501  503 -0.00000000000E+00 -0.00000000000E+00 -0.11218491813E+04  0.11218491813E+04  0.00000000000E+00 0.  1.
          6    2    1    2  501    0 -0.82687225599E+02 -0.25454758927E+01 -0.56519997250E+03  0.59654860382E+03  0.17197549557E+03 0.  0.
         24    2    3    3    0    0 -0.88935278896E+01 -0.52691395452E+02 -0.33942876329E+03  0.35374240130E+03  0.84061424801E+02 0.  0.
         -6    2    1    2    0  502  0.82687225599E+02  0.25454758927E+01 -0.52569028345E+03  0.55625950280E+03  0.16195895659E+03 0.  0.
        -24    2    5    5    0    0  0.54949765169E+02  0.42308069787E+01 -0.51895516095E+03  0.52728263398E+03  0.75333529006E+02 0.  0.
          5    1    3    3  501    0 -0.73793697709E+02  0.50145919559E+02 -0.22577120921E+03  0.24280620251E+03  0.47000000000E+01 0. -1.
        -11    1    4    4    0    0  0.19478011764E+02  0.30480815435E+01 -0.19949966815E+03  0.20047144769E+03  0.00000000000E+00 0.  1.
         12    1    4    4    0    0 -0.28371539653E+02 -0.55739476995E+02 -0.13992909513E+03  0.15327095362E+03  0.00000000000E+00 0. -1.
         -5    1    5    5    0  502  0.27737460430E+02 -0.16853310860E+01 -0.67351224961E+01  0.28976868827E+02  0.47000000000E+01 0.  1.
         13    1    6    6    0    0  0.46398800544E+02  0.35540639295E+02 -0.38733404138E+03  0.39171883455E+03  0.00000000000E+00 0. -1.
        -14    1    6    6    0    0  0.85509646251E+01 -0.31309832316E+02 -0.13162111958E+03  0.13556379943E+03  0.00000000000E+00 0.  1.
</event>
<event>
12    1  0.1035051E+000  0.1857296E+03  0.7818608E-02  0.1162609E+00
         21   -1    0    0  503  502  0.00000000000E+00  0.00000000000E+00  0.17539050361E+02  0.17539050361E+02  0.00000000000E+00 0. -1.
         21   -1    0    0  501  503 -0.00000000000E+00 -0.00000000000E+00 -0.20236749503E+04  0.20236749503E+04  0.00000000000E+00 0. -1.
          6    2    1    2  501    0 -0.55700881032E+02 -0.41705419152E+02 -0.81904832601E+03  0.83984263107E+03  0.17220207459E+03 0.  0.
         24    2    3    3    0    0 -0.91857330442E+02 -0.13565542492E+02 -0.39814845689E+03  0.41643038360E+03  0.79185084172E+02 0.  0.
         -6    2    1    2    0  502  0.55700881032E+02  0.41705419152E+02 -0.11870875739E+04  0.12013713696E+04  0.17109742650E+03 0.  0.
        -24    2    5    5    0    0 -0.73703435288E+01  0.78641976746E+02 -0.76998974623E+03  0.77789176379E+03  0.77411267939E+02 0.  0.
          5    1    3    3  501    0  0.36156449410E+02 -0.28139876660E+02 -0.42089986911E+03  0.42341224747E+03  0.47000000000E+01 0. -1.
        -11    1    4    4    0    0 -0.10460642195E+03 -0.20822319554E+02 -0.36295281932E+03  0.37829990954E+03  0.00000000000E+00 0.  1.
         12    1    4    4    0    0  0.12749091506E+02  0.72567770624E+01 -0.35195637572E+02  0.38130474055E+02  0.00000000000E+00 0. -1.
         -5    1    5    5    0  502  0.63071224561E+02 -0.36936557594E+02 -0.41709782768E+03  0.42347960578E+03  0.47000000000E+01 0.  1.
         11    1    6    6    0    0 -0.35104936685E+02  0.38012015855E+02 -0.55202282845E+03  0.55444248850E+03  0.00000000000E+00 0. -1.
        -12    1    6    6    0    0  0.27734593156E+02  0.40629960891E+02 -0.21796691779E+03  0.22344927529E+03  0.00000000000E+00 0.  1.
</event>
<event>
12    1  0.1035051E+000  0.2097730E+03  0.7818608E-02  0.1141784E+00
         21   -1    0    0  503  502  0.00000000000E+00  0.00000000000E+00  0.29275603396E+03  0.29275603396E+03  0.00000000000E+00 0. -1.
         21   -1    0    0  501  503 -0.00000000000E+00 -0.00000000000E+00 -0.16606997968E+03  0.16606997968E+03  0.00000000000E+00 0. -1.
          6    2    1    2  501    0 -0.11320349152E+03 -0.40298909897E+02 -0.76620987187E+01  0.20971929347E+03  0.17171034234E+03 0.  0.
         24    2    3    3    0    0 -0.21169381647E+01 -0.82365812171E+01  0.33895688176E+02  0.86766640356E+02  0.79417941955E+02 0.  0.
         -6    2    1    2    0  502  0.11320349152E+03  0.40298909897E+02  0.13434815300E+03  0.24910672016E+03  0.17194679172E+03 0.  0.
        -24    2    5    5    0    0 -0.11447670429E+02  0.20235841535E+02  0.62890232984E+02  0.10395589095E+03  0.79442478675E+02 0.  0.
          5    1    3    3  501    0 -0.11108655336E+03 -0.32062328680E+02 -0.41557786895E+02  0.12295265312E+03  0.47000000000E+01 0. -1.
        -11    1    4    4    0    0 -0.13749773699E+02  0.31563000694E+02  0.20589046848E+01  0.34489395154E+02  0.00000000000E+00 0.  1.
         12    1    4    4    0    0  0.11632835534E+02 -0.39799581911E+02  0.31836783491E+02  0.52277245202E+02  0.00000000000E+00 0. -1.
         -5    1    5    5    0  502  0.12465116195E+03  0.20063068362E+02  0.71457920015E+02  0.14515082921E+03  0.47000000000E+01 0.  1.
         13    1    6    6    0    0 -0.12692849789E+02  0.22333742039E+02 -0.12470610337E+02  0.28555570235E+02  0.00000000000E+00 0. -1.
        -14    1    6    6    0    0  0.12451793609E+01 -0.20979005042E+01  0.75360843322E+02  0.75400320718E+02  0.00000000000E+00 0.  1.
</event>
<event>
12    1  0.1035051E+000  0.2191948E+03  0.7818608E-02  0.1134620E+00
         21   -1    0    0  503  502  0.00000000000E+00  0.00000000000E+00  0.40012081487E+03  0.40012081487E+03  0.00000000000E+00 0. -1.
         21   -1    0    0  501  503 -0.00000000000E+00 -0.00000000000E+00 -0.12451878698E+03  0.12451878698E+03  0.00000000000E+00 0. -1.
          6    2    1    2  501    0 -0.78806652310E+02  0.10970693065E+03  0.18926887240E+03  0.28905568494E+03  0.17171017400E+03 0.  0.
         24    2    3    3    0    0 -0.47533601913E+02  0.10265787837E+03  0.53235622653E+02  0.14921710709E+03  0.81447100782E+02 0.  0.
         -6    2    1    2    0  502  0.78806652310E+02 -0.10970693065E+03  0.86333155497E+02  0.23558391691E+03  0.17262754441E+03 0.  0.
        -24    2    5    5    0    0  0.52683863384E+02 -0.12226699628E+03  0.11632526785E+03  0.19361044728E+03  0.78921666949E+02 0.  0.
          5    1    3    3  501    0 -0.31273050397E+02  0.70490522819E+01  0.13603324974E+03  0.13983857785E+03  0.47000000000E+01 0. -1.
        -11    1    4    4    0    0 -0.19309433546E+01  0.11044668357E+02  0.45196180570E+02  0.46566167756E+02  0.00000000000E+00 0.  1.
         12    1    4    4    0    0 -0.45602658558E+02  0.91613210012E+02  0.80394420824E+01  0.10265093933E+03  0.00000000000E+00 0. -1.
         -5    1    5    5    0  502  0.26122788926E+02  0.12560065633E+02 -0.29992112350E+02  0.41973469635E+02  0.47000000000E+01 0.  1.
         11    1    6    6    0    0  0.64034659237E+02 -0.63599189653E+02  0.92631676737E+02  0.12932873634E+03  0.00000000000E+00 0. -1.
        -12    1    6    6    0    0 -0.11350795853E+02 -0.58667806631E+02  0.23693591110E+02  0.64281710938E+02  0.00000000000E+00 0.  1.
</event>
<event>
12    1  0.1035051E+000  0.2817622E+03  0.7818608E-02  0.1094942E+00
         21   -1    0    0  503  502  0.00000000000E+00  0.00000000000E+00  0.30763472085E+03  0.30763472085E+03  0.00000000000E+00 0.  1.
         21   -1    0    0  501  503 -0.00000000000E+00 -0.00000000000E+00 -0.39936459024E+03  0.39936459024E+03  0.00000000000E+00 0. -1.
          6    2    1    2  501    0  0.12822953973E+03  0.18128522401E+03  0.16537909881E+03  0.32671113691E+03  0.17344386225E+03 0.  0.
         24    2    3    3    0    0  0.40732186285E+02  0.16740933760E+03  0.88862817599E+02  0.20955671585E+03  0.79576500876E+02 0.  0.
         -6    2    1    2    0  502 -0.12822953973E+03 -0.18128522401E+03 -0.25710896820E+03  0.38028817418E+03  0.17090034110E+03 0.  0.
        -24    2    5    5    0    0 -0.26188672145E+02 -0.14568147370E+03 -0.17934731081E+03  0.24706305998E+03  0.83461124985E+02 0.  0.
          5    1    3    3  501    0  0.87497353443E+02  0.13875886415E+02  0.76516281209E+02  0.11715442106E+03  0.47000000000E+01 0. -1.
        -11    1    4    4    0    0 -0.81990417183E+01  0.12193279481E+03  0.48312603146E+02  0.13141133269E+03  0.00000000000E+00 0.  1.
         12    1    4    4    0    0  0.48931228003E+02  0.45476542790E+02  0.40550214453E+02  0.78145383166E+02  0.00000000000E+00 0. -1.
         -5    1    5    5    0  502 -0.10204086758E+03 -0.35603750310E+02 -0.77761657390E+02  0.13322511420E+03  0.47000000000E+01 0.  1.
         13    1    6    6    0    0  0.66290337752E+01 -0.83113103974E+02 -0.14778185419E+03  0.16967972351E+03  0.00000000000E+00 0. -1.
        -14    1    6    6    0    0 -0.32817705920E+02 -0.62568369731E+02 -0.31565456618E+02  0.77383336476E+02  0.00000000000E+00 0.  1.
</event>
<event>
12    1  0.1035051E+000  0.2015991E+03  0.7818608E-02  0.1148401E+00
         21   -1    0    0  503  502  0.00000000000E+00  0.00000000000E+00  0.14687558409E+03  0.14687558409E+03  0.00000000000E+00 0.  1.
         21   -1    0    0  501  503 -0.00000000000E+00 -0.00000000000E+00 -0.30499822607E+03  0.30499822607E+03  0.00000000000E+00 0.  1.
          6    2    1    2  501    0 -0.84910557577E+02 -0.63012512086E+02 -0.10227428445E+02  0.20185835821E+03  0.17164444942E+03 0.  0.
         24    2    3    3    0    0 -0.82553555299E+01  0.70064120074E+01 -0.46772050282E+02  0.91693621937E+02  0.78120771324E+02 0.  0.
         -6    2    1    2    0  502  0.84910557577E+02  0.63012512086E+02 -0.14789521354E+03  0.25001545195E+03  0.17162270409E+03 0.  0.
        -24    2    5    5    0    0  0.51465471505E+02  0.10303527825E+03 -0.13640916659E+03  0.19640188214E+03  0.81861317218E+02 0.  0.
          5    1    3    3  501    0 -0.76655202047E+02 -0.70018924093E+02  0.36544621837E+02  0.11016473627E+03  0.47000000000E+01 0. -1.
        -11    1    4    4    0    0  0.31433303142E+02 -0.79127229934E+01 -0.61848594689E+01  0.32998730555E+02  0.00000000000E+00 0.  1.
         12    1    4    4    0    0 -0.39688658672E+02  0.14919135001E+02 -0.40587190813E+02  0.58694891383E+02  0.00000000000E+00 0. -1.
         -5    1    5    5    0  502  0.33445086072E+02 -0.40022766163E+02 -0.11486046952E+02  0.53613569815E+02  0.47000000000E+01 0.  1.
         13    1    6    6    0    0  0.72302343023E+02  0.82577550774E+02 -0.12107645817E+03  0.16342028461E+03  0.00000000000E+00 0. -1.
        -14    1    6    6    0    0 -0.20836871518E+02  0.20457727475E+02 -0.15332708419E+02  0.32981597529E+02  0.00000000000E+00 0.  1.
</event>
<event>
12    1  0.1035051E+000  0.2169657E+03  0.7818608E-02  0.1136342E+00
         21   -1    0    0  501  502  0.00000000000E+00  0.00000000000E+00  0.10203171398E+03  0.10203171398E+03  0.00000000000E+00 0.  1.
         21   -1    0    0  502  503 -0.00000000000E+00 -0.00000000000E+00 -0.45960931372E+03  0.45960931372E+03  0.00000000000E+00 0.  1.
         -6    2    1    2    0  503 -0.10758035974E+03 -0.74175051452E+02 -0.18444799473E+03  0.28406589433E+03  0.17203748866E+03 0.  0.
        -24    2    3    3    0    0 -0.14814009666E+02  0.20112670230E+02 -0.60136987295E+02  0.10248647167E+03  0.79139403893E+02 0.  0.
          6    2    1    2  501    0  0.10758035974E+03  0.74175051452E+02 -0.17312960501E+03  0.27757513337E+03  0.17320110414E+03 0.  0.
         24    2    5    5    0    0  0.83828267578E+02 -0.19637791451E+02 -0.89486926249E+02  0.14957826198E+03  0.83384202274E+02 0.  0.
          5    1    5    5  501    0  0.23752092161E+02  0.93812842903E+02 -0.83642678765E+02  0.12799687139E+03  0.47000000000E+01 0. -1.
        -13    1    6    6    0    0  0.14165760306E+02 -0.12450707559E+02 -0.75941161441E+02  0.78247996043E+02  0.00000000000E+00 0.  1.
         14    1    6    6    0    0  0.69662507272E+02 -0.71870838923E+01 -0.13545764808E+02  0.71330265936E+02  0.00000000000E+00 0. -1.
         -5    1    3    3    0  503 -0.92766350073E+02 -0.94287721682E+02 -0.12431100743E+03  0.18157942266E+03  0.47000000000E+01 0.  1.
         11    1    4    4    0    0 -0.42560636850E+02  0.30903404304E+02 -0.32265182509E+02  0.61704701676E+02  0.00000000000E+00 0. -1.
        -12    1    4    4    0    0  0.27746627183E+02 -0.10790734073E+02 -0.27871804786E+02  0.40781769995E+02  0.00000000000E+00 0.  1.
</event>
<event>
12    1  0.1035051E+000  0.1807298E+03  0.7818608E-02  0.1167568E+00
         21   -1    0    0  503  502  0.00000000000E+00  0.00000000000E+00  0.14598291966E+03  0.14598291966E+03  0.00000000000E+00 0. -1.
         21   -1    0    0  501  503 -0.00000000000E+00 -0.00000000000E+00 -0.22442945090E+03  0.22442945090E+03  0.00000000000E+00 0. -1.
          6    2    1    2  501    0  0.35456524048E+02 -0.40363854557E+02 -0.17750820582E+02  0.18159945449E+03  0.17255974150E+03 0.  0.
         24    2    3    3    0    0  0.19924604451E+02 -0.85575120284E+02  0.19619475966E+02  0.12073954864E+03  0.80455103601E+02 0.  0.
         -6    2    1    2    0  502 -0.35456524048E+02  0.40363854557E+02 -0.60695710657E+02  0.18881291606E+03  0.17052842030E+03 0.  0.
        -24    2    5    5    0    0  0.36410117303E+02  0.54472476227E+02 -0.54780961818E+02  0.11518587213E+03  0.77290905369E+02 0.  0.
          5    1    3    3  501    0  0.15531919596E+02  0.45211265727E+02 -0.37370296548E+02  0.60859905842E+02  0.47000000000E+01 0. -1.
        -11    1    4    4    0    0  0.39066029901E+02 -0.22464139549E+02  0.29774821902E+02  0.54012334491E+02  0.00000000000E+00 0.  1.
         12    1    4    4    0    0 -0.19141425449E+02 -0.63110980735E+02 -0.10155345936E+02  0.66727214153E+02  0.00000000000E+00 0. -1.
         -5    1    5    5    0  502 -0.71866641351E+02 -0.14108621670E+02 -0.59147488396E+01  0.73627043933E+02  0.47000000000E+01 0.  1.
         13    1    6    6    0    0  0.31477852509E+02  0.55192489473E+02 -0.34691747514E+01  0.63632548795E+02  0.00000000000E+00 0. -1.
        -14    1    6    6    0    0  0.49322647949E+01 -0.72001324570E+00 -0.51311787066E+02  0.51553323336E+02  0.00000000000E+00 0.  1.
</event>
<event>
12    1  0.1035051E+000  0.3210285E+03  0.7818608E-02  0.1075422E+00
         21   -1    0    0  503  502  0.00000000000E+00  0.00000000000E+00  0.22952423995E+03  0.22952423995E+03  0.00000000000E+00 0. -1.
         21   -1    0    0  501  503 -0.00000000000E+00 -0.00000000000E+00 -0.52148861181E+03  0.52148861181E+03  0.00000000000E+00 0. -1.
          6    2    1    2  501    0 -0.17143828644E+03 -0.20951153309E+03 -0.28839516780E+03  0.42996448309E+03  0.16855715754E+03 0.  0.
         24    2    3    3    0    0 -0.24264778695E+02 -0.10260065613E+03 -0.15945082204E+03  0.20694270995E+03  0.79278284725E+02 0.  0.
         -6    2    1    2    0  502  0.17143828644E+03  0.20951153309E+03 -0.35692040610E+01  0.32104836867E+03  0.17254897059E+03 0.  0.
        -24    2    5    5    0    0  0.15366225817E+03  0.10315441618E+03 -0.43165835891E+02  0.20607964792E+03  0.79703254226E+02 0.  0.
          5    1    3    3  501    0 -0.14717350774E+03 -0.10691087696E+03 -0.12894434576E+03  0.22302177315E+03  0.47000000000E+01 0. -1.
        -13    1    4    4    0    0 -0.50764540456E+02 -0.49801740414E+02 -0.10349882481E+03  0.12557570885E+03  0.00000000000E+00 0.  1.
         14    1    4    4    0    0  0.26499761761E+02 -0.52798915716E+02 -0.55951997230E+02  0.81367001101E+02  0.00000000000E+00 0. -1.
         -5    1    5    5    0  502  0.17776028267E+02  0.10635711691E+03  0.39596631830E+02  0.11496872075E+03  0.47000000000E+01 0.  1.
         11    1    6    6    0    0  0.95122011292E+02  0.10412099881E+03 -0.43313806204E+02  0.14753123477E+03  0.00000000000E+00 0. -1.
        -12    1    6    6    0    0  0.58540246878E+02 -0.96658263158E+00  0.14797031317E+00  0.58548413144E+02  0.00000000000E+00 0.  1.
</event>
<event>
12    1  0.1035051E+000  0.2161527E+03  0.7818608E-02  0.1138134E+00
         21   -1    0    0  501  502  0.00000000000E+00  0.00000000000E+00  0.85465389184E+02  0.85465389184E+02  0.00000000000E+00 0.  1.
         21   -1    0    0  502  503 -0.00000000000E+00 -0.00000000000E+00 -0.56929165648E+03  0.56929165648E+03  0.00000000000E+00 0.  1.
         -6    2    1    2    0  503  0.45231606038E+02 -0.12402681606E+03 -0.15140004360E+03  0.25823571000E+03  0.16228111237E+03 0.  0.
        -24    2    3    3    0    0  0.90794332476E+02 -0.96314983896E+02 -0.10979645976E+03  0.19043559297E+03  0.81794043543E+02 0.  0.
          6    2    1    2  501    0 -0.45231606038E+02  0.12402681606E+03 -0.33242622369E+03  0.39652133566E+03  0.17115322418E+03 0.  0.
         24    2    5    5    0    0 -0.95867790786E+02  0.10119298737E+03 -0.25601992317E+03  0.30194110676E+03  0.78686573761E+02 0.  0.
          5    1    5    5  501    0  0.50636184748E+02  0.22833828682E+02 -0.76406300523E+02  0.94580228894E+02  0.47000000000E+01 0. -1.
        -11    1    6    6    0    0 -0.38508273720E+02 -0.68986706150E+00 -0.98568695401E+02  0.10582604015E+03  0.00000000000E+00 0.  1.
         12    1    6    6    0    0 -0.57359517066E+02  0.10188285444E+03 -0.15745122777E+03  0.19611506661E+03  0.00000000000E+00 0. -1.
         -5    1    3    3    0  503 -0.45562726438E+02 -0.27711832160E+02 -0.41603583838E+02  0.67800117038E+02  0.47000000000E+01 0.  1.
         11    1    4    4    0    0  0.81647154378E+02 -0.88041966698E+02 -0.51163554747E+02  0.13051955812E+03  0.00000000000E+00 0. -1.
        -12    1    4    4    0    0  0.91471780976E+01 -0.82730171976E+01 -0.58632905016E+02  0.59916034843E+02  0.00000000000E+00 0.  1.
</event>
<event>
12    1  0.1035051E+000  0.2379714E+03  0.7818608E-02  0.1121251E+00
         21   -1    0    0  503  502  0.00000000000E+00  0.00000000000E+00  0.13694084438E+03  0.13694084438E+03  0.00000000000E+00 0.  1.
         21   -1    0    0  501  503 -0.00000000000E+00 -0.00000000000E+00 -0.50870249833E+03  0.50870249833E+03  0.00000000000E+00 0.  1.
          6    2    1    2  501    0  0.10321747742E+03  0.13117088130E+03 -0.45693257591E+02  0.24231849287E+03  0.16961936933E+03 0.  0.
         24    2    3    3    0    0  0.26216750740E+02  0.12621201037E+03  0.24758286239E+01  0.15123582066E+03  0.79052856640E+02 0.  0.
         -6    2    1    2    0  502 -0.10321747742E+03 -0.13117088130E+03 -0.32606839636E+03  0.40332484984E+03  0.16879184710E+03 0.  0.
        -24    2    5    5    0    0 -0.12951534234E+03 -0.13403534849E+03 -0.24471807591E+03  0.31765252345E+03  0.79224304556E+02 0.  0.
          5    1    3    3  501    0  0.77000726683E+02  0.49588709358E+01 -0.48169086215E+02  0.91082672213E+02  0.47000000000E+01 0. -1.
        -13    1    4    4    0    0  0.37574068075E+02  0.11651065153E+03 -0.20207693334E+02  0.12407615960E+03  0.00000000000E+00 0.  1.
         14    1    4    4    0    0 -0.11357317334E+02  0.97013588355E+01  0.22683521958E+02  0.27159661056E+02  0.00000000000E+00 0. -1.
         -5    1    5    5    0  502  0.26297864919E+02  0.28644671848E+01 -0.81350320443E+02  0.85672326382E+02  0.47000000000E+01 0.  1.
         11    1    6    6    0    0 -0.10552289119E+03 -0.12374605938E+03 -0.24177460714E+03  0.29138141402E+03  0.00000000000E+00 0. -1.
        -12    1    6    6    0    0 -0.23992451151E+02 -0.10289289106E+02 -0.29434687720E+01  0.26271109435E+02  0.00000000000E+00 0.  1.
</event>
<event>
12    1  0.1035051E+000  0.2018823E+03  0.7818608E-02  0.1148162E+00
         21   -1    0    0  503  502  0.00000000000E+00  0.00000000000E+00  0.32574144748E+03  0.32574144748E+03  0.00000000000E+00 0. -1.
         21   -1    0    0  501  503 -0.00000000000E+00 -0.00000000000E+00 -0.15952981116E+03  0.15952981116E+03  0.00000000000E+00 0. -1.
          6    2    1    2  501    0  0.78239108404E+01  0.10505872852E+03  0.19579994072E+03  0.28123216957E+03  0.17220733550E+03 0.  0.
         24    2    3    3    0    0  0.39574242304E+02  0.12431889952E+03  0.11276423473E+03  0.19014948075E+03  0.80123298509E+02 0.  0.
         -6    2    1    2    0  502 -0.78239108404E+01 -0.10505872852E+03 -0.29588304393E+02  0.20403908907E+03  0.17221478476E+03 0.  0.
        -24    2    5    5    0    0  0.30372484134E+02 -0.20122374337E+01  0.10456596258E+02  0.86978301511E+02  0.80804378820E+02 0.  0.
          5    1    3    3  501    0 -0.31750331464E+02 -0.19260170993E+02  0.83035705990E+02  0.91082688828E+02  0.47000000000E+01 0. -1.
        -11    1    4    4    0    0  0.19763492488E+02  0.32752167924E+02  0.83752638607E+02  0.92074994503E+02  0.00000000000E+00 0.  1.
         12    1    4    4    0    0  0.19810749816E+02  0.91566731592E+02  0.29011596121E+02  0.98074486244E+02  0.00000000000E+00 0. -1.
         -5    1    5    5    0  502 -0.38196394974E+02 -0.10304649109E+03 -0.40044900651E+02  0.11706078756E+03  0.47000000000E+01 0.  1.
         13    1    6    6    0    0  0.36368826160E+02 -0.23187862262E+02  0.33872884176E+02  0.54842873329E+02  0.00000000000E+00 0. -1.
        -14    1    6    6    0    0 -0.59963420262E+01  0.21175624828E+02 -0.23416287919E+02  0.32135428182E+02  0.00000000000E+00 0.  1.
</event>
<event>
12    1  0.1035051E+000  0.3046143E+03  0.7818608E-02  0.1083030E+00
         21   -1    0    0  503  502  0.00000000000E+00  0.00000000000E+00  0.23729941242E+03  0.23729941242E+03  0.00000000000E+00 0.  1.
         21   -1    0    0  501  503 -0.00000000000E+00 -0.00000000000E+00 -0.42944262364E+03  0.42944262364E+03  0.00000000000E+00 0.  1.
          6    2    1    2  501    0 -0.14310554314E+03 -0.20639287769E+03 -0.19685895473E+03  0.36268899147E+03  0.17237354797E+03 0.  0.
         24    2    3    3    0    0 -0.96205884818E+02 -0.82338665983E+02 -0.17046641299E+03  0.22738310966E+03  0.81296078710E+02 0.  0.
         -6    2    1    2    0  502  0.14310554314E+03  0.20639287769E+03  0.47157435116E+01  0.30405304458E+03  0.17131491251E+03 0.  0.
        -24    2    5    5    0    0  0.36073237745E+02  0.16157271982E+03  0.27809764991E+02  0.18564618339E+03  0.79272316156E+02 0.  0.
          5    1    3    3  501    0 -0.46899658321E+02 -0.12405421170E+03 -0.26392541741E+02  0.13530588181E+03  0.47000000000E+01 0. -1.
        -11    1    4    4    0    0 -0.10483150625E+03 -0.56812276310E+02 -0.11470218197E+03  0.16545050617E+03  0.00000000000E+00 0.  1.
         12    1    4    4    0    0  0.86256214325E+01 -0.25526389673E+02 -0.55764231015E+02  0.61932603494E+02  0.00000000000E+00 0. -1.
         -5    1    5    5    0  502  0.10703230539E+03  0.44820157871E+02 -0.23094021479E+02  0.11840686119E+03  0.47000000000E+01 0.  1.
         13    1    6    6    0    0  0.12279367078E+02  0.13965025913E+03 -0.40386489209E+01  0.14024724031E+03  0.00000000000E+00 0. -1.
        -14    1    6    6    0    0  0.23793870666E+02  0.21922460688E+02  0.31848413912E+02  0.45398943078E+02  0.00000000000E+00 0.  1.
</event>
<event>
12    1  0.1035051E+000  0.1943101E+03  0.7818608E-02  0.1154910E+00
         21   -1    0    0  503  502  0.00000000000E+00  0.00000000000E+00  0.20618753895E+03  0.20618753895E+03  0.00000000000E+00 0. -1.
         21   -1    0    0  501  503 -0.00000000000E+00 -0.00000000000E+00 -0.26179118938E+03  0.26179118938E+03  0.00000000000E+00 0. -1.
          6    2    1    2  501    0  0.82861808473E+01  0.91872975676E+02  0.10150778828E+03  0.21809789459E+03  0.16956873559E+03 0.  0.
         24    2    3    3    0    0  0.66786261396E+02  0.81570601394E+02  0.81885593363E+02  0.15536418058E+03  0.79489687909E+02 0.  0.
         -6    2    1    2    0  502 -0.82861808473E+01 -0.91872975676E+02 -0.15711143871E+03  0.24988083374E+03  0.17101790095E+03 0.  0.
        -24    2    5    5    0    0 -0.64749796358E+00 -0.12593251438E+03 -0.90905961591E+02  0.17488978858E+03  0.80393574780E+02 0.  0.
          5    1    3    3  501    0 -0.58500080549E+02  0.10302374282E+02  0.19622194917E+02  0.62733714010E+02  0.47000000000E+01 0. -1.
        -13    1    4    4    0    0 -0.91371248491E+01 -0.95385174237E+01  0.55723721477E+01  0.14336027919E+02  0.00000000000E+00 0.  1.
         14    1    4    4    0    0  0.75923386245E+02  0.91109118818E+02  0.76313221215E+02  0.14102815266E+03  0.00000000000E+00 0. -1.
         -5    1    5    5    0  502 -0.76386828837E+01  0.34059538705E+02 -0.66205477117E+02  0.74991045154E+02  0.47000000000E+01 0.  1.
         11    1    6    6    0    0 -0.11302069092E+01 -0.75927138979E+01  0.14503995299E+02  0.16410135637E+02  0.00000000000E+00 0. -1.
        -12    1    6    6    0    0  0.48270894563E+00 -0.11833980048E+03 -0.10540995689E+03  0.15847965295E+03  0.00000000000E+00 0.  1.
</event>
<event>
12    1  0.1035051E+000  0.8184918E+03  0.7818608E-02  0.9534814E-01
         21   -1    0    0  503  502  0.00000000000E+00  0.00000000000E+00  0.18811518055E+04  0.18811518055E+04  0.00000000000E+00 0.  1.
         21   -1    0    0  501  503 -0.00000000000E+00 -0.00000000000E+00 -0.35976750854E+03  0.35976750854E+03  0.00000000000E+00 0.  1.
          6    2    1    2  501    0  0.20093280251E+03 -0.77109317078E+03  0.89564990764E+03  0.12133085169E+04  0.18700302412E+03 0.  0.
         24    2    3    3    0    0  0.13778182101E+03 -0.52024164473E+03  0.49053072861E+03  0.73262340814E+03  0.80507535883E+02 0.  0.
         -6    2    1    2    0  502 -0.20093280251E+03  0.77109317078E+03  0.62573438929E+03  0.10276107971E+04  0.17170251949E+03 0.  0.
        -24    2    5    5    0    0 -0.24461825307E+02  0.34414681890E+03  0.28613070453E+03  0.45421918058E+03  0.73545020733E+02 0.  0.
          5    1    3    3  501    0  0.63150981495E+02 -0.25085152605E+03  0.40511917902E+03  0.48068510878E+03  0.47000000000E+01 0. -1.
        -11    1    4    4    0    0  0.49133002703E+02 -0.10007696154E+03  0.70317246037E+02  0.13181033827E+03  0.00000000000E+00 0.  1.
         12    1    4    4    0    0  0.88648818307E+02 -0.42016468319E+03  0.42021348258E+03  0.60081306987E+03  0.00000000000E+00 0. -1.
         -5    1    5    5    0  502 -0.17647097720E+03  0.42694635188E+03  0.33960368476E+03  0.57339161650E+03  0.47000000000E+01 0.  1.
         13    1    6    6    0    0 -0.37829450225E+02  0.16668995781E+03  0.10666803762E+03  0.20148121398E+03  0.00000000000E+00 0. -1.
        -14    1    6    6    0    0  0.13367624918E+02  0.17745686109E+03  0.17946266691E+03  0.25273796660E+03  0.00000000000E+00 0.  1.
</event>
<event>
12    1  0.1035051E+000  0.4329003E+03  0.7818608E-02  0.1032991E+00
         21   -1    0    0  501  502  0.00000000000E+00  0.00000000000E+00  0.68619831861E+03  0.68619831861E+03  0.00000000000E+00 0.  1.
         21   -1    0    0  502  503 -0.00000000000E+00 -0.00000000000E+00 -0.29016887116E+03  0.29016887116E+03  0.00000000000E+00 0. -1.
         -6    2    1    2    0  503 -0.12339028293E+03  0.37738664768E+03  0.31772723851E+03  0.53698532989E+03  0.17250160191E+03 0.  0.
        -24    2    3    3    0    0 -0.45264507080E+02  0.23027558537E+03  0.26287967377E+03  0.36155543830E+03  0.80875776747E+02 0.  0.
          6    2    1    2  501    0  0.12339028293E+03 -0.37738664768E+03  0.78302208947E+02  0.43938185988E+03  0.17111206590E+03 0.  0.
         24    2    5    5    0    0  0.11371820814E+03 -0.22321714587E+03 -0.70863393236E+01  0.26281720176E+03  0.79151375640E+02 0.  0.
          5    1    5    5  501    0  0.96720747891E+01 -0.15416950181E+03  0.85388548271E+02  0.17656465811E+03  0.47000000000E+01 0. -1.
        -11    1    6    6    0    0  0.10742473001E+03 -0.21545069587E+03  0.12240878209E+02  0.24105790605E+03  0.00000000000E+00 0.  1.
         12    1    6    6    0    0  0.62934781316E+01 -0.77664499982E+01 -0.19327217532E+02  0.21759295717E+02  0.00000000000E+00 0. -1.
         -5    1    3    3    0  503 -0.78125775848E+02  0.14711106231E+03  0.54847564735E+02  0.17542989159E+03  0.47000000000E+01 0.  1.
         11    1    4    4    0    0 -0.34423373073E+02  0.25824748411E+02  0.54275590997E+02  0.69265619338E+02  0.00000000000E+00 0. -1.
        -12    1    4    4    0    0 -0.10841134008E+02  0.20445083695E+03  0.20860408278E+03  0.29228981896E+03  0.00000000000E+00 0.  1.
</event>
<event>
12    1  0.1035051E+000  0.1827297E+03  0.7818608E-02  0.1165286E+00
         21   -1    0    0  503  502  0.00000000000E+00  0.00000000000E+00  0.45439747082E+03  0.45439747082E+03  0.00000000000E+00 0. -1.
         21   -1    0    0  501  503 -0.00000000000E+00 -0.00000000000E+00 -0.76276922893E+02  0.76276922893E+02  0.00000000000E+00 0. -1.
          6    2    1    2  501    0  0.59468543340E+02  0.53599558553E+01  0.24114264104E+03  0.30230384582E+03  0.17225738037E+03 0.  0.
         24    2    3    3    0    0  0.72735958348E+02 -0.39772968900E+02  0.22462507606E+03  0.25222465702E+03  0.79299710720E+02 0.  0.
         -6    2    1    2    0  502 -0.59468543340E+02 -0.53599558553E+01  0.13697790689E+03  0.22837054790E+03  0.17269893862E+03 0.  0.
        -24    2    5    5    0    0 -0.90937525094E+02 -0.39757505539E+02  0.66269644093E+02  0.14354580703E+03  0.79771174432E+02 0.  0.
          5    1    3    3  501    0 -0.13267415008E+02  0.45132924755E+02  0.16517564986E+02  0.50079188802E+02  0.47000000000E+01 0. -1.
        -13    1    4    4    0    0  0.65729799748E+01 -0.13468757558E+01 -0.61468866208E+01  0.90995799452E+01  0.00000000000E+00 0.  1.
         14    1    4    4    0    0  0.66162978373E+02 -0.38426093144E+02  0.23077196268E+03  0.24312507707E+03  0.00000000000E+00 0. -1.
         -5    1    5    5    0  502  0.31468981754E+02  0.34397549683E+02  0.70708262793E+02  0.84824740873E+02  0.47000000000E+01 0.  1.
         13    1    6    6    0    0  0.11820375641E+02 -0.91973811086E+01 -0.38258343100E+01  0.15458011118E+02  0.00000000000E+00 0. -1.
        -14    1    6    6    0    0 -0.10275790073E+03 -0.30560124430E+02  0.70095478403E+02  0.12808779591E+03  0.00000000000E+00 0.  1.
</event>
<event>
12    1  0.1035051E+000  0.2109352E+03  0.7818608E-02  0.1140974E+00
         21   -1    0    0  501  502  0.00000000000E+00  0.00000000000E+00  0.32682528797E+03  0.32682528797E+03  0.00000000000E+00 0.  1.
         21   -1    0    0  502  503 -0.00000000000E+00 -0.00000000000E+00 -0.29228612758E+03  0.29228612758E+03  0.00000000000E+00 0.  1.
         -6    2    1    2    0  503  0.12921654078E+02 -0.11857544729E+03 -0.20931859110E+03  0.29716648322E+03  0.17397281490E+03 0.  0.
        -24    2    3    3    0    0  0.67330834939E+02 -0.10911226365E+03 -0.16311333193E+03  0.22500744511E+03  0.87083086121E+02 0.  0.
          6    2    1    2  501    0 -0.12921654078E+02  0.11857544729E+03  0.24385775148E+03  0.32194493233E+03  0.17307463895E+03 0.  0.
         24    2    5    5    0    0 -0.19516101584E+02  0.48661707800E+02  0.23149791472E+03  0.25048673984E+03  0.80021761360E+02 0.  0.
          5    1    5    5  501    0  0.65944475062E+01  0.69913739495E+02  0.12359836762E+02  0.71458192482E+02  0.47000000000E+01 0. -1.
        -13    1    6    6    0    0 -0.35915385965E+02  0.96754698352E+00  0.46649873180E+02  0.58881760876E+02  0.00000000000E+00 0.  1.
         14    1    6    6    0    0  0.16399284381E+02  0.47694160817E+02  0.18484804154E+03  0.19160497897E+03  0.00000000000E+00 0. -1.
         -5    1    3    3    0  503 -0.54409180861E+02 -0.94631836424E+01 -0.46205259174E+02  0.72159038117E+02  0.47000000000E+01 0.  1.
         11    1    4    4    0    0  0.23497173578E+02 -0.25462658333E+02  0.20958481210E+01  0.34711046007E+02  0.00000000000E+00 0. -1.
        -12    1    4    4    0    0  0.43833661361E+02 -0.83649605319E+02 -0.16520918005E+03  0.19029639910E+03  0.00000000000E+00 0.  1.
</event>
<event>
12    1  0.1035051E+000  0.1964686E+03  0.7818608E-02  0.1153434E+00
         21   -1    0    0  503  502  0.00000000000E+00  0.00000000000E+00  0.43091334777E+02  0.43091334777E+02  0.00000000000E+00 0. -1.
         21   -1    0    0  501  503 -0.00000000000E+00 -0.00000000000E+00 -0.11137501628E+04  0.11137501628E+04  0.00000000000E+00 0. -1.
          6    2    1    2  501    0  0.89593072750E+02  0.19532086800E+02 -0.26784769646E+03  0.33033945280E+03  0.17021558234E+03 0.  0.
         24    2    3    3    0    0  0.11527247546E+02  0.63990369539E+02 -0.14840939869E+03  0.18081216785E+03  0.80249894657E+02 0.  0.
         -6    2    1    2    0  502 -0.89593072750E+02 -0.19532086800E+02 -0.80281113151E+03  0.82650204474E+03  0.17375700265E+03 0.  0.
        -24    2    5    5    0    0  0.18828942621E+02 -0.29432555665E+02 -0.31951037649E+03  0.33106782861E+03  0.79361338467E+02 0.  0.
          5    1    3    3  501    0  0.78065825204E+02 -0.44458282739E+02 -0.11943829778E+03  0.14952728495E+03  0.47000000000E+01 0. -1.
        -13    1    4    4    0    0 -0.29620246659E+02  0.51038942721E+02 -0.98694151753E+02  0.11499073126E+03  0.00000000000E+00 0.  1.
         14    1    4    4    0    0  0.41147494205E+02  0.12951426818E+02 -0.49715246936E+02  0.65821436583E+02  0.00000000000E+00 0. -1.
         -5    1    5    5    0  502 -0.10842201537E+03  0.99004688650E+01 -0.48330075502E+03  0.49543421612E+03  0.47000000000E+01 0.  1.
         11    1    6    6    0    0  0.80084284544E+01  0.27544860997E+02 -0.10160152880E+03  0.10557331551E+03  0.00000000000E+00 0. -1.
        -12    1    6    6    0    0  0.10820514166E+02 -0.56977416662E+02 -0.21790884769E+03  0.22549451310E+03  0.00000000000E+00 0.  1.
</event>
<event>
12    1  0.1035051E+000  0.1921427E+03  0.7818608E-02  0.1158517E+00
         21   -1    0    0  503  502  0.00000000000E+00  0.00000000000E+00  0.16906185407E+03  0.16906185407E+03  0.00000000000E+00 0. -1.
         21   -1    0    0  501  503 -0.00000000000E+00 -0.00000000000E+00 -0.27662862582E+03  0.27662862582E+03  0.00000000000E+00 0. -1.
          6    2    1    2  501    0 -0.39972138095E+02  0.76695643292E+02  0.57613132006E+02  0.19230694905E+03  0.16181067997E+03 0.  0.
         24    2    3    3    0    0 -0.80645734081E+02  0.79075830717E+02  0.25937412769E+02  0.14048564174E+03  0.79415015737E+02 0.  0.
         -6    2    1    2    0  502  0.39972138095E+02 -0.76695643292E+02 -0.16517990375E+03  0.25338353083E+03  0.17157744481E+03 0.  0.
        -24    2    5    5    0    0  0.81178231378E+02 -0.13473843295E+02 -0.10202041147E+03  0.15486373798E+03  0.82481290492E+02 0.  0.
          5    1    3    3  501    0  0.40673595986E+02 -0.23801874247E+01  0.31675719237E+02  0.51821307315E+02  0.47000000000E+01 0. -1.
        -13    1    4    4    0    0 -0.63936438919E+02  0.95264504031E+02  0.19829757325E+02  0.11643201117E+03  0.00000000000E+00 0.  1.
         14    1    4    4    0    0 -0.16709295163E+02 -0.16188673313E+02  0.61076554438E+01  0.24053630568E+02  0.00000000000E+00 0. -1.
         -5    1    5    5    0  502 -0.41206093283E+02 -0.63221799997E+02 -0.63159492288E+02  0.98519792857E+02  0.47000000000E+01 0.  1.
         13    1    6    6    0    0  0.77151650657E+01 -0.10239933754E-01  0.14521452736E+02  0.16443736389E+02  0.00000000000E+00 0. -1.
        -14    1    6    6    0    0  0.73463066313E+02 -0.13463603361E+02 -0.11654186420E+03  0.13842000159E+03  0.00000000000E+00 0.  1.
</event>
<event>
12    1  0.1035051E+000  0.1892536E+03  0.7818608E-02  0.1159257E+00
         21   -1    0    0  501  502  0.00000000000E+00  0.00000000000E+00  0.15253329345E+03  0.15253329345E+03  0.00000000000E+00 0.  1.
         21   -1    0    0  502  503 -0.00000000000E+00 -0.00000000000E+00 -0.28133066902E+03  0.28133066902E+03  0.00000000000E+00 0.  1.
         -6    2    1    2    0  503  0.58986537951E+02  0.52500886528E+02 -0.15330823924E+03  0.24355766743E+03  0.17199176259E+03 0.  0.
        -24    2    3    3    0    0  0.77637741253E+02 -0.18544625012E+02 -0.72239696301E+02  0.13406095173E+03  0.79888942119E+02 0.  0.
          6    2    1    2  501    0 -0.58986537951E+02 -0.52500886528E+02  0.24510863677E+02  0.19030629504E+03  0.17140580139E+03 0.  0.
         24    2    5    5    0    0 -0.41965454995E+02 -0.45373938782E+02  0.81945755994E+02  0.12979706017E+03  0.79449834300E+02 0.  0.
          5    1    5    5  501    0 -0.17021082957E+02 -0.71269477457E+01 -0.57434892317E+02  0.60509234870E+02  0.47000000000E+01 0. -1.
        -11    1    6    6    0    0 -0.41276289883E+02 -0.28291416312E+01  0.47419448095E+01  0.41643993438E+02  0.00000000000E+00 0.  1.
         12    1    6    6    0    0 -0.68916511133E+00 -0.42544797151E+02  0.77203811184E+02  0.88153066734E+02  0.00000000000E+00 0. -1.
         -5    1    3    3    0  503 -0.18651203302E+02  0.71045511540E+02 -0.81068542942E+02  0.10949671570E+03  0.47000000000E+01 0.  1.
         11    1    4    4    0    0  0.36179899240E+02 -0.23226513485E+02 -0.80748266142E+02  0.91480809586E+02  0.00000000000E+00 0. -1.
        -12    1    4    4    0    0  0.41457842013E+02  0.46818884736E+01  0.85085698406E+01  0.42580142142E+02  0.00000000000E+00 0.  1.
</event>
<event>
12    1  0.1035051E+000  0.1998978E+03  0.7818608E-02  0.1149899E+00
         21   -1    0    0  501  502  0.00000000000E+00  0.00000000000E+00  0.51143654908E+03  0.51143654908E+03  0.00000000000E+00 0.  1.
         21   -1    0    0  502  503 -0.00000000000E+00 -0.00000000000E+00 -0.12107300106E+03  0.12107300106E+03  0.00000000000E+00 0.  1.
         -6    2    1    2    0  503  0.99539041265E+02  0.10526249094E+02  0.66467891876E+01  0.20000827620E+03  0.17303267924E+03 0.  0.
        -24    2    3    3    0    0  0.26132934572E+02  0.30901692404E+02  0.60050162298E+02  0.10685450306E+03  0.78574919473E+02 0.  0.
          6    2    1    2  501    0 -0.99539041265E+02 -0.10526249094E+02  0.38371675883E+03  0.43250127394E+03  0.17262670216E+03 0.  0.
         24    2    5    5    0    0 -0.69805677823E+02 -0.42517273020E+02  0.36932881659E+03  0.38627788814E+03  0.78270562394E+02 0.  0.
          5    1    5    5  501    0 -0.29733363443E+02  0.31991023926E+02  0.14387942237E+02  0.46223385805E+02  0.47000000000E+01 0. -1.
        -11    1    6    6    0    0 -0.38730323440E+02  0.16354337910E+02  0.19921015995E+03  0.20359810940E+03  0.00000000000E+00 0.  1.
         12    1    6    6    0    0 -0.31075354383E+02 -0.58871610930E+02  0.17011865664E+03  0.18267977874E+03  0.00000000000E+00 0. -1.
         -5    1    3    3    0  503  0.73406106693E+02 -0.20375443310E+02 -0.53403373111E+02  0.93153773136E+02  0.47000000000E+01 0.  1.
         13    1    4    4    0    0  0.44187971425E+02  0.30782670194E+02  0.11515839236E+02  0.55070538006E+02  0.00000000000E+00 0. -1.
        -14    1    4    4    0    0 -0.18055036853E+02  0.11902220982E+00  0.48534323063E+02  0.51783965059E+02  0.00000000000E+00 0.  1.
</event>
<event>
12    1  0.1035051E+000  0.1895545E+03  0.7818608E-02  0.1158968E+00
         21   -1    0    0  501  502  0.00000000000E+00  0.00000000000E+00  0.19341371880E+03  0.19341371880E+03  0.00000000000E+00 0.  1.
         21   -1    0    0  502  503 -0.00000000000E+00 -0.00000000000E+00 -0.29588154612E+03  0.29588154612E+03  0.00000000000E+00 0.  1.
         -6    2    1    2    0  503 -0.16066094951E+02  0.77185649692E+02  0.98276294257E+02  0.21351609182E+03  0.17238082122E+03 0.  0.
        -24    2    3    3    0    0 -0.50914327915E+02  0.51965840252E+02  0.56076975351E+01  0.11124196534E+03  0.83967917921E+02 0.  0.
          6    2    1    2  501    0  0.16066094951E+02 -0.77185649692E+02 -0.20074412157E+03  0.27577917311E+03  0.17187264485E+03 0.  0.
         24    2    5    5    0    0 -0.27103347936E+02  0.15673754517E+02 -0.12169884050E+03  0.14633143767E+03  0.74980156193E+02 0.  0.
          5    1    5    5  501    0  0.43169442886E+02 -0.92859404209E+02 -0.79045281070E+02  0.12944773543E+03  0.47000000000E+01 0. -1.
        -13    1    6    6    0    0 -0.36999687378E+02 -0.16744166145E+02 -0.36370182172E+02  0.54517282739E+02  0.00000000000E+00 0.  1.
         14    1    6    6    0    0  0.98963394429E+01  0.32417920662E+02 -0.85328658327E+02  0.91814154934E+02  0.00000000000E+00 0. -1.
         -5    1    3    3    0  503  0.34848232964E+02  0.25219809440E+02  0.92668596722E+02  0.10227412648E+03  0.47000000000E+01 0.  1.
         11    1    4    4    0    0 -0.23951034960E+02  0.65165003411E+02  0.26879553770E+02  0.74448909704E+02  0.00000000000E+00 0. -1.
        -12    1    4    4    0    0 -0.26963292955E+02 -0.13199163159E+02 -0.21271856235E+02  0.36793055632E+02  0.00000000000E+00 0.  1.
</event>
<event>
12    1  0.1035051E+000  0.3226533E+03  0.7818608E-02  0.1074617E+00
         21   -1    0    0  503  502  0.00000000000E+00  0.00000000000E+00  0.11519764769E+04  0.11519764769E+04  0.00000000000E+00 0.  1.
         21   -1    0    0  501  503 -0.00000000000E+00 -0.00000000000E+00 -0.92323786550E+02  0.92323786550E+02  0.00000000000E+00 0. -1.
          6    2    1    2  501    0  0.21339854215E+03  0.16743448377E+03  0.43079225395E+03  0.53822588482E+03  0.17473377715E+03 0.  0.
         24    2    3    3    0    0  0.10640122240E+03  0.16405076381E+03  0.32695174774E+03  0.38901188841E+03  0.78733288618E+02 0.  0.
         -6    2    1    2    0  502 -0.21339854215E+03 -0.16743448377E+03  0.62886043643E+03  0.70607437866E+03  0.17176243930E+03 0.  0.
        -24    2    5    5    0    0 -0.53275261477E+02 -0.87557359650E+02  0.36146349601E+03  0.38429334486E+03  0.80752530868E+02 0.  0.
          5    1    3    3  501    0  0.10699731975E+03  0.33837199578E+01  0.10384050621E+03  0.14921399641E+03  0.47000000000E+01 0. -1.
        -13    1    4    4    0    0  0.11506503723E+03  0.12832249069E+03  0.24908396376E+03  0.30290170916E+03  0.00000000000E+00 0.  1.
         14    1    4    4    0    0 -0.86638148353E+01  0.35728273125E+02  0.77867783983E+02  0.86110179249E+02  0.00000000000E+00 0. -1.
         -5    1    5    5    0  502 -0.16012328067E+03 -0.79877124119E+02  0.26739694042E+03  0.32178103380E+03  0.47000000000E+01 0.  1.
         11    1    6    6    0    0 -0.51021763724E+02 -0.35598162693E+02  0.10049852799E+03  0.11819646226E+03  0.00000000000E+00 0. -1.
        -12    1    6    6    0    0 -0.22534977527E+01 -0.51959196957E+02  0.26096496801E+03  0.26609688260E+03  0.00000000000E+00 0.  1.
</event>
<event>
12    1  0.1035051E+000  0.3643095E+03  0.7818608E-02  0.1056999E+00
         21   -1    0    0  503  502  0.00000000000E+00  0.00000000000E+00  0.83883711323E+03  0.83883711323E+03  0.00000000000E+00 0. -1.
         21   -1    0    0  501  503 -0.00000000000E+00 -0.00000000000E+00 -0.15832274230E+03  0.15832274230E+03  0.00000000000E+00 0.  1.
          6    2    1    2  501    0  0.73092758936E+02  0.31197689743E+03  0.31050486612E+03  0.47868014173E+03  0.17334725338E+03 0.  0.
         24    2    3    3    0    0  0.63341033322E+02  0.18303076172E+03  0.10131823734E+03  0.23270587939E+03  0.79839181162E+02 0.  0.
         -6    2    1    2    0  502 -0.73092758936E+02 -0.31197689743E+03  0.37000950481E+03  0.51847971380E+03  0.17100305272E+03 0.  0.
        -24    2    5    5    0    0 -0.69164872628E+02 -0.14777843118E+03  0.27246502946E+03  0.32739444677E+03  0.79546760858E+02 0.  0.
          5    1    3    3  501    0  0.97517256143E+01  0.12894613571E+03  0.20918662878E+03  0.24597426233E+03  0.47000000000E+01 0. -1.
        -13    1    4    4    0    0  0.53568317592E+02  0.17894461834E+03  0.11189147008E+03  0.21773939046E+03  0.00000000000E+00 0.  1.
         14    1    4    4    0    0  0.97727157296E+01  0.40861433816E+01 -0.10573232738E+02  0.14966488933E+02  0.00000000000E+00 0. -1.
         -5    1    5    5    0  502 -0.39278863077E+01 -0.16419846625E+03  0.97544475342E+02  0.19108526704E+03  0.47000000000E+01 0.  1.
         13    1    6    6    0    0 -0.18464289210E+02 -0.60285058010E+01  0.83829855458E+02  0.86050668355E+02  0.00000000000E+00 0. -1.
        -14    1    6    6    0    0 -0.50700583418E+02 -0.14174992538E+03  0.18863517401E+03  0.24134377841E+03  0.00000000000E+00 0.  1.
</event>
<event>
12    1  0.1035051E+000  0.6944063E+03  0.7818608E-02  0.9727030E-01
         21   -1    0    0  503  502  0.00000000000E+00  0.00000000000E+00  0.14586579836E+04  0.14586579836E+04  0.00000000000E+00 0.  1.
         21   -1    0    0  501  503 -0.00000000000E+00 -0.00000000000E+00 -0.39150214822E+03  0.39150214822E+03  0.00000000000E+00 0.  1.
          6    2    1    2  501    0 -0.32317510969E+03  0.58997264434E+03  0.89925049668E+03  0.11361564621E+04  0.17230838037E+03 0.  0.
         24    2    3    3    0    0 -0.16611917751E+03  0.31114220260E+03  0.58466281968E+03  0.68737981652E+03  0.79090758434E+02 0.  0.
         -6    2    1    2    0  502  0.32317510969E+03 -0.58997264434E+03  0.16790533865E+03  0.71400366971E+03  0.17058477371E+03 0.  0.
        -24    2    5    5    0    0  0.26151813525E+03 -0.48956966818E+03  0.19406376690E+03  0.59322000572E+03  0.78606834951E+02 0.  0.
          5    1    3    3  501    0 -0.15705593218E+03  0.27883044174E+03  0.31458767700E+03  0.44877664555E+03  0.47000000000E+01 0. -1.
        -13    1    4    4    0    0 -0.55505562436E+02  0.55407862686E+02  0.17696362303E+03  0.19356400127E+03  0.00000000000E+00 0.  1.
         14    1    4    4    0    0 -0.11061361507E+03  0.25573433991E+03  0.40769919665E+03  0.49381581526E+03  0.00000000000E+00 0. -1.
         -5    1    5    5    0  502  0.61656974432E+02 -0.10040297616E+03 -0.26158428243E+02  0.12078366399E+03  0.47000000000E+01 0.  1.
         13    1    6    6    0    0  0.56204727013E+02 -0.10687065392E+03  0.77763049545E+02  0.14362242124E+03  0.00000000000E+00 0. -1.
        -14    1    6    6    0    0  0.20531340824E+03 -0.38269901426E+03  0.11630071735E+03  0.44959758448E+03  0.00000000000E+00 0.  1.
</event>
<event>
12    1  0.1035051E+000  0.1926066E+03  0.7818608E-02  0.1156373E+00
         21   -1    0    0  501  502  0.00000000000E+00  0.00000000000E+00  0.22223804610E+03  0.22223804610E+03  0.00000000000E+00 0. -1.
         21   -1    0    0  502  503 -0.00000000000E+00 -0.00000000000E+00 -0.17642076897E+03  0.17642076897E+03  0.00000000000E+00 0. -1.
         -6    2    1    2    0  503 -0.30194566487E+02  0.78464511392E+02 -0.25637193113E+02  0.19322500453E+03  0.17207627759E+03 0.  0.
        -24    2    3    3    0    0 -0.10160092180E+01 -0.24125610820E+02 -0.19914505833E+02  0.86309334349E+02  0.80434049265E+02 0.  0.
          6    2    1    2  501    0  0.30194566487E+02 -0.78464511392E+02  0.71454470244E+02  0.20543381055E+03  0.17328853916E+03 0.  0.
         24    2    5    5    0    0  0.67980533275E+02 -0.32339520592E+00  0.47840681613E+02  0.11535876218E+03  0.79984096577E+02 0.  0.
          5    1    5    5  501    0 -0.37785966788E+02 -0.78141116186E+02  0.23613788630E+02  0.90075048368E+02  0.47000000000E+01 0. -1.
        -13    1    6    6    0    0  0.63682169775E+02  0.12237018561E+02 -0.88877183931E+00  0.64853321317E+02  0.00000000000E+00 0.  1.
         14    1    6    6    0    0  0.42983635003E+01 -0.12560413767E+02  0.48729453453E+02  0.50505440861E+02  0.00000000000E+00 0. -1.
         -5    1    3    3    0  503 -0.29178557269E+02  0.10259012221E+03 -0.57226872806E+01  0.10691567018E+03  0.47000000000E+01 0.  1.
         11    1    4    4    0    0  0.79245496770E+01 -0.36570436673E+02 -0.44001714741E+02  0.57761113444E+02  0.00000000000E+00 0. -1.
        -12    1    4    4    0    0 -0.89405588950E+01  0.12444825854E+02  0.24087208909E+02  0.28548220906E+02  0.00000000000E+00 0.  1.
</event>
<event>
12    1  0.1035051E+000  0.9398561E+03  0.7818608E-02  0.9377099E-01
         21   -1    0    0  501  502  0.00000000000E+00  0.00000000000E+00  0.10912695746E+04  0.10912695746E+04  0.00000000000E+00 0.  1.
         21   -1    0    0  502  503 -0.00000000000E+00 -0.00000000000E+00 -0.10019600936E+04  0.10019600936E+04  0.00000000000E+00 0. -1.
         -6    2    1    2    0  503  0.25696849455E+03 -0.88729299261E+03 -0.41415292222E+03  0.10270196054E+04  0.17298833788E+03 0.  0.
        -24    2    3    3    0    0  0.18431981695E+03 -0.80783709417E+03 -0.35930450354E+03  0.90610017282E+03  0.73097409515E+02 0.  0.
          6    2    1    2  501    0 -0.25696849455E+03  0.88729299261E+03  0.50346240326E+03  0.10662100628E+04  0.17322772475E+03 0.  0.
         24    2    5    5    0    0 -0.65941167320E+02  0.27585672802E+03  0.10772831271E+03  0.31323376450E+03  0.77877017916E+02 0.  0.
          5    1    5    5  501    0 -0.19102732723E+03  0.61143626459E+03  0.39573409055E+03  0.75297629832E+03  0.47000000000E+01 0. -1.
        -11    1    6    6    0    0 -0.64537724250E+02  0.24397972945E+03  0.11948702328E+03  0.27922817725E+03  0.00000000000E+00 0.  1.
         12    1    6    6    0    0 -0.14034430696E+01  0.31876998563E+02 -0.11758710568E+02  0.34005587248E+02  0.00000000000E+00 0. -1.
         -5    1    3    3    0  503  0.72648677592E+02 -0.79455898439E+02 -0.54848418677E+02  0.12091943261E+03  0.47000000000E+01 0.  1.
         11    1    4    4    0    0  0.21309498499E+02 -0.19002912280E+03 -0.59148661847E+02  0.20015925269E+03  0.00000000000E+00 0. -1.
        -12    1    4    4    0    0  0.16301031845E+03 -0.61780797137E+03 -0.30015584170E+03  0.70594092013E+03  0.00000000000E+00 0.  1.
</event>
<event>
12    1  0.1035051E+000  0.2067088E+03  0.7818608E-02  0.1145000E+00
         21   -1    0    0  501  502  0.00000000000E+00  0.00000000000E+00  0.47094761751E+03  0.47094761751E+03  0.00000000000E+00 0. -1.
         21   -1    0    0  502  503 -0.00000000000E+00 -0.00000000000E+00 -0.10653348624E+03  0.10653348624E+03  0.00000000000E+00 0.  1.
         -6    2    1    2    0  503 -0.68494691053E+02 -0.86713877781E+02  0.63668459347E+02  0.21254758255E+03  0.17003523997E+03 0.  0.
        -24    2    3    3    0    0 -0.28272740160E+02 -0.11712549178E+02  0.88200784545E+02  0.12385186898E+03  0.81384122602E+02 0.  0.
          6    2    1    2  501    0  0.68494691053E+02  0.86713877781E+02  0.30074567192E+03  0.36493352120E+03  0.17469314930E+03 0.  0.
         24    2    5    5    0    0  0.71449776790E+02  0.84971220498E+02  0.11067607503E+03  0.17477487415E+03  0.77277966674E+02 0.  0.
          5    1    5    5  501    0 -0.29550857368E+01  0.17426572832E+01  0.19006959689E+03  0.19015864705E+03  0.47000000000E+01 0. -1.
        -13    1    6    6    0    0  0.83398113857E+02  0.89217875935E+02  0.95735319454E+02  0.15517836889E+03  0.00000000000E+00 0.  1.
         14    1    6    6    0    0 -0.11948337067E+02 -0.42466554369E+01  0.14940755577E+02  0.19596505256E+02  0.00000000000E+00 0. -1.
         -5    1    3    3    0  503 -0.40221950893E+02 -0.75001328603E+02 -0.24532325198E+02  0.88695713569E+02  0.47000000000E+01 0.  1.
         13    1    4    4    0    0  0.20136184144E+02  0.11965905454E+02  0.56897361788E+02  0.61530143699E+02  0.00000000000E+00 0. -1.
        -14    1    4    4    0    0 -0.48408924304E+02 -0.23678454632E+02  0.31303422757E+02  0.62321725284E+02  0.00000000000E+00 0.  1.
</event>
<event>
12    1  0.1035051E+000  0.2734214E+03  0.7818608E-02  0.1099449E+00
         21   -1    0    0  501  502  0.00000000000E+00  0.00000000000E+00  0.11664224240E+04  0.11664224240E+04  0.00000000000E+00 0. -1.
         21   -1    0    0  502  503 -0.00000000000E+00 -0.00000000000E+00 -0.67691233074E+02  0.67691233074E+02  0.00000000000E+00 0. -1.
         -6    2    1    2    0  503  0.15964748100E+03  0.13893111931E+03  0.69451502234E+03  0.74610753917E+03  0.17186090205E+03 0.  0.
        -24    2    3    3    0    0  0.41409353771E+02  0.12354284645E+03  0.34588617390E+03  0.37762250876E+03  0.77355958661E+02 0.  0.
          6    2    1    2  501    0 -0.15964748100E+03 -0.13893111931E+03  0.40421616864E+03  0.48800611795E+03  0.17311870514E+03 0.  0.
         24    2    5    5    0    0 -0.10366956502E+03 -0.60530100100E+02  0.11852932878E+03  0.18647783179E+03  0.79457587660E+02 0.  0.
          5    1    5    5  501    0 -0.55977915980E+02 -0.78401019209E+02  0.28568683986E+03  0.30152828617E+03  0.47000000000E+01 0. -1.
        -11    1    6    6    0    0 -0.81831227421E+02 -0.19185123610E+02  0.11082059444E+03  0.13908854338E+03  0.00000000000E+00 0.  1.
         12    1    6    6    0    0 -0.21838337599E+02 -0.41344976490E+02  0.77087343428E+01  0.47389288401E+02  0.00000000000E+00 0. -1.
         -5    1    3    3    0  503  0.11823812723E+03  0.15388272858E+02  0.34862884844E+03  0.36848503041E+03  0.47000000000E+01 0.  1.
         13    1    4    4    0    0 -0.17919888366E+02  0.50565489359E+02  0.16866274678E+03  0.17698902018E+03  0.00000000000E+00 0. -1.
        -14    1    4    4    0    0  0.59329242137E+02  0.72977357092E+02  0.17722342713E+03  0.20063348859E+03  0.00000000000E+00 0.  1.
</event>
<event>
12    1  0.1035051E+000  0.1925126E+03  0.7818608E-02  0.1156438E+00
         21   -1    0    0  501  502  0.00000000000E+00  0.00000000000E+00  0.33245489068E+03  0.33245489068E+03  0.00000000000E+00 0.  1.
         21   -1    0    0  502  503 -0.00000000000E+00 -0.00000000000E+00 -0.11186877186E+03  0.11186877186E+03  0.00000000000E+00 0.  1.
         -6    2    1    2    0  503 -0.79064558965E+02  0.27659745350E+02  0.89295066786E+02  0.21130341925E+03  0.17221864022E+03 0.  0.
        -24    2    3    3    0    0  0.13772572134E+02  0.16624460600E+02  0.80526920365E+00  0.82489426628E+02  0.79610304695E+02 0.  0.
          6    2    1    2  501    0  0.79064558965E+02 -0.27659745350E+02  0.13129105203E+03  0.23302024329E+03  0.17333443813E+03 0.  0.
         24    2    5    5    0    0  0.51763721722E+02  0.16667557410E+02  0.14801127414E+03  0.17813945147E+03  0.82879650943E+02 0.  0.
          5    1    5    5  501    0  0.27300837243E+02 -0.44327302760E+02 -0.16720222106E+02  0.54880791825E+02  0.47000000000E+01 0. -1.
        -13    1    6    6    0    0  0.23891901771E+02  0.49407558464E+02  0.96763132708E+02  0.11124312857E+03  0.00000000000E+00 0.  1.
         14    1    6    6    0    0  0.27871819951E+02 -0.32740001055E+02  0.51248141432E+02  0.66896322894E+02  0.00000000000E+00 0. -1.
         -5    1    3    3    0  503 -0.92837131098E+02  0.11035284750E+02  0.88489797583E+02  0.12881399263E+03  0.47000000000E+01 0.  1.
         11    1    4    4    0    0 -0.21723927554E+02 -0.21050271979E+01  0.26882459893E+02  0.34626966626E+02  0.00000000000E+00 0. -1.
        -12    1    4    4    0    0  0.35496499687E+02  0.18729487798E+02 -0.26077190689E+02  0.47862460002E+02  0.00000000000E+00 0.  1.
</event>
<event>
12    1  0.1035051E+000  0.2911851E+03  0.7818608E-02  0.1090065E+00
         21   -1    0    0  501  502  0.00000000000E+00  0.00000000000E+00  0.18572614465E+03  0.18572614465E+03  0.00000000000E+00 0.  1.
         21   -1    0    0  502  503 -0.00000000000E+00 -0.00000000000E+00 -0.45536264350E+03  0.45536264350E+03  0.00000000000E+00 0. -1.
         -6    2    1    2    0  503  0.23195565150E+03  0.47856647627E+01 -0.16065769267E+03  0.33256526489E+03  0.17596145699E+03 0.  0.
        -24    2    3    3    0    0  0.61673304167E+02  0.29237546945E+02 -0.10380113470E+03  0.15132307736E+03  0.86403516004E+02 0.  0.
          6    2    1    2  501    0 -0.23195565150E+03 -0.47856647627E+01 -0.10897880617E+03  0.30852352326E+03  0.17170922328E+03 0.  0.
         24    2    5    5    0    0 -0.23626881336E+03  0.30555395104E+02 -0.10205666282E+03  0.27195030975E+03  0.82370044383E+02 0.  0.
          5    1    5    5  501    0  0.43131618561E+01 -0.35341059867E+02 -0.69221433549E+01  0.36573213509E+02  0.47000000000E+01 0. -1.
        -11    1    6    6    0    0 -0.31488573067E+02  0.23229839678E+02  0.71146617813E+01  0.39771523702E+02  0.00000000000E+00 0.  1.
         12    1    6    6    0    0 -0.20478024029E+03  0.73255554261E+01 -0.10917132460E+03  0.23217878605E+03  0.00000000000E+00 0. -1.
         -5    1    3    3    0  503  0.17028234733E+03 -0.24451882182E+02 -0.56856557969E+02  0.18124218753E+03  0.47000000000E+01 0.  1.
         13    1    4    4    0    0  0.71895607249E+02  0.56743128818E+00 -0.95932043263E+02  0.11988434946E+03  0.00000000000E+00 0. -1.
        -14    1    4    4    0    0 -0.10222303083E+02  0.28670115657E+02 -0.78690914405E+01  0.31438727904E+02  0.00000000000E+00 0.  1.
</event>
<event>
12    1  0.1035051E+000  0.1795748E+03  0.7818608E-02  0.1168676E+00
         21   -1    0    0  503  502  0.00000000000E+00  0.00000000000E+00  0.20807625511E+04  0.20807625511E+04  0.00000000000E+00 0.  1.
         21   -1    0    0  501  503 -0.00000000000E+00 -0.00000000000E+00 -0.15584741141E+02  0.15584741141E+02  0.00000000000E+00 0.  1.
          6    2    1    2  501    0  0.92169717669E+01  0.44346689142E+02  0.11706059114E+04  0.11842995078E+04  0.17376864785E+03 0.  0.
         24    2    3    3    0    0  0.58899888836E+02  0.12481617367E+02  0.97168525592E+03  0.97675362800E+03  0.79059632925E+02 0.  0.
         -6    2    1    2    0  502 -0.92169717669E+01 -0.44346689142E+02  0.89457189859E+03  0.91204778447E+03  0.17181588401E+03 0.  0.
        -24    2    5    5    0    0 -0.99514741063E+01 -0.35043283546E+02  0.21320296432E+03  0.23059873469E+03  0.79957544289E+02 0.  0.
          5    1    3    3  501    0 -0.49682917070E+02  0.31865071774E+02  0.19892065546E+03  0.20754587979E+03  0.47000000000E+01 0. -1.
        -11    1    4    4    0    0  0.23838388535E+02  0.19951285515E+02  0.10959449613E+03  0.11391784822E+03  0.00000000000E+00 0.  1.
         12    1    4    4    0    0  0.35061500301E+02 -0.74696681472E+01  0.86209075979E+03  0.86283577978E+03  0.00000000000E+00 0. -1.
         -5    1    5    5    0  502  0.73450233942E+00 -0.93034055955E+01  0.68136893428E+03  0.68144904978E+03  0.47000000000E+01 0.  1.
         11    1    6    6    0    0 -0.33817635017E+02  0.50505140979E+01  0.13736456956E+03  0.14155622593E+03  0.00000000000E+00 0. -1.
        -12    1    6    6    0    0  0.23866160911E+02 -0.40093797644E+02  0.75838394761E+02  0.89042508759E+02  0.00000000000E+00 0.  1.
</event>
<event>
12    1  0.1035051E+000  0.1960133E+03  0.7818608E-02  0.1153326E+00
         21   -1    0    0  501  502  0.00000000000E+00  0.00000000000E+00  0.10878490587E+03  0.10878490587E+03  0.00000000000E+00 0. -1.
         21   -1    0    0  502  503 -0.00000000000E+00 -0.00000000000E+00 -0.36207812155E+03  0.36207812155E+03  0.00000000000E+00 0. -1.
         -6    2    1    2    0  503 -0.31902075920E+01  0.93338403092E+02 -0.86527183107E+02  0.21350697566E+03  0.17139439992E+03 0.  0.
        -24    2    3    3    0    0 -0.21124815122E+02  0.12769890596E+03 -0.46719965685E+02  0.15774857842E+03  0.77127105502E+02 0.  0.
          6    2    1    2  501    0  0.31902075920E+01 -0.93338403092E+02 -0.16676603257E+03  0.25735605175E+03  0.17233395730E+03 0.  0.
         24    2    5    5    0    0 -0.27337493351E+02  0.19438081688E+01 -0.12058468112E+03  0.14705896417E+03  0.79589928310E+02 0.  0.
          5    1    5    5  501    0  0.30527700943E+02 -0.95282211261E+02 -0.46181351451E+02  0.11029708758E+03  0.47000000000E+01 0. -1.
        -13    1    6    6    0    0 -0.16441514886E+02  0.26659152453E+02 -0.94895596850E+01  0.32727443595E+02  0.00000000000E+00 0.  1.
         14    1    6    6    0    0 -0.10895978465E+02 -0.24715344284E+02 -0.11109512144E+03  0.11433152057E+03  0.00000000000E+00 0. -1.
         -5    1    3    3    0  503  0.17934607530E+02 -0.34360502863E+02 -0.39807217423E+02  0.55758397244E+02  0.47000000000E+01 0.  1.
         11    1    4    4    0    0 -0.35573711869E+02  0.27511077682E+02 -0.32600889391E+02  0.55544273876E+02  0.00000000000E+00 0. -1.
        -12    1    4    4    0    0  0.14448896747E+02  0.10018782827E+03 -0.14119076293E+02  0.10220430454E+03  0.00000000000E+00 0.  1.
</event>
<event>
12    1  0.1035051E+000  0.2807447E+03  0.7818608E-02  0.1096652E+00
         21   -1    0    0  501  502  0.00000000000E+00  0.00000000000E+00  0.27054102781E+03  0.27054102781E+03  0.00000000000E+00 0. -1.
         21   -1    0    0  502  503 -0.00000000000E+00 -0.00000000000E+00 -0.28816218477E+03  0.28816218477E+03  0.00000000000E+00 0. -1.
         -6    2    1    2    0  503 -0.10457185745E+03  0.18089548542E+03 -0.52125690324E+02  0.27584608879E+03  0.17238192218E+03 0.  0.
        -24    2    3    3    0    0 -0.50480416305E+02  0.83651980796E+02 -0.93038889431E+02  0.15719465367E+03  0.80672162938E+02 0.  0.
          6    2    1    2  501    0  0.10457185745E+03 -0.18089548542E+03  0.34504533366E+02  0.28285712379E+03  0.18750770556E+03 0.  0.
         24    2    5    5    0    0  0.58169378929E+02 -0.20526479168E+03  0.23161757837E+02  0.22902589069E+03  0.79994251236E+02 0.  0.
          5    1    5    5  501    0  0.46402478526E+02  0.24369306263E+02  0.11342775529E+02  0.53831233107E+02  0.47000000000E+01 0. -1.
        -11    1    6    6    0    0  0.51191220544E+02 -0.15655420226E+03  0.51080135861E+02  0.17244981759E+03  0.00000000000E+00 0.  1.
         12    1    6    6    0    0  0.69781583846E+01 -0.48710589418E+02 -0.27918378024E+02  0.56576073100E+02  0.00000000000E+00 0. -1.
         -5    1    3    3    0  503 -0.54091441150E+02  0.97243504620E+02  0.40913199107E+02  0.11865143513E+03  0.47000000000E+01 0.  1.
         11    1    4    4    0    0 -0.30068293507E+02  0.68270296595E+01  0.47240480711E+01  0.31193384532E+02  0.00000000000E+00 0. -1.
        -12    1    4    4    0    0 -0.20412122798E+02  0.76824951137E+02 -0.97762937502E+02  0.12600126913E+03  0.00000000000E+00 0.  1.
</event>
<event>
12    1  0.1035051E+000  0.2787264E+03  0.7818608E-02  0.1096500E+00
         21   -1    0    0  501  502  0.00000000000E+00  0.00000000000E+00  0.23394446089E+03  0.23394446089E+03  0.00000000000E+00 0. -1.
         21   -1    0    0  502  503 -0.00000000000E+00 -0.00000000000E+00 -0.33172553119E+03  0.33172553119E+03  0.00000000000E+00 0. -1.
         -6    2    1    2    0  503 -0.12009040192E+03  0.18253515215E+03 -0.36489572408E+02  0.28028416880E+03  0.17171761698E+03 0.  0.
        -24    2    3    3    0    0 -0.74300968674E+02  0.19945588795E+03 -0.41857953932E+02  0.23094966751E+03  0.79261437229E+02 0.  0.
          6    2    1    2  501    0  0.12009040192E+03 -0.18253515215E+03 -0.61291497887E+02  0.28538582328E+03  0.17305384715E+03 0.  0.
         24    2    5    5    0    0  0.11853100997E+03 -0.20338037514E+03 -0.75438771218E+02  0.25971112042E+03  0.79659779991E+02 0.  0.
          5    1    5    5  501    0  0.15593919465E+01  0.20845222988E+02  0.14147273331E+02  0.25674702868E+02  0.47000000000E+01 0. -1.
        -11    1    6    6    0    0  0.49019700929E+02 -0.15645765831E+03 -0.58994857274E+02  0.17424787834E+03  0.00000000000E+00 0.  1.
         12    1    6    6    0    0  0.69511309045E+02 -0.46922716831E+02 -0.16443913944E+02  0.85463242074E+02  0.00000000000E+00 0. -1.
         -5    1    3    3    0  503 -0.45789433245E+02 -0.16920735801E+02  0.53683815235E+01  0.49334501286E+02  0.47000000000E+01 0.  1.
         13    1    4    4    0    0 -0.59391273938E+01 -0.19245648846E+01 -0.15431589792E+02  0.16646655751E+02  0.00000000000E+00 0. -1.
        -14    1    4    4    0    0 -0.68361841280E+02  0.20138045284E+03 -0.26426364140E+02  0.21430301176E+03  0.00000000000E+00 0.  1.
</event>
<event>
12    1  0.1035051E+000  0.2392504E+03  0.7818608E-02  0.1120336E+00
         21   -1    0    0  503  502  0.00000000000E+00  0.00000000000E+00  0.11090012582E+04  0.11090012582E+04  0.00000000000E+00 0.  1.
         21   -1    0    0  501  503 -0.00000000000E+00 -0.00000000000E+00 -0.80824100957E+02  0.80824100957E+02  0.00000000000E+00 0.  1.
          6    2    1    2  501    0 -0.89835714097E+02  0.13963790234E+03  0.87188835571E+03  0.90405107326E+03  0.17190066592E+03 0.  0.
         24    2    3    3    0    0 -0.45070177875E+02  0.13761854668E+03  0.81440969590E+03  0.83101740045E+03  0.79728174135E+02 0.  0.
         -6    2    1    2    0  502  0.89835714097E+02 -0.13963790234E+03  0.15628880151E+03  0.28577428587E+03  0.17225432851E+03 0.  0.
        -24    2    5    5    0    0  0.10316832534E+03 -0.68457804760E+02  0.46150576077E+02  0.15387703982E+03  0.78854887773E+02 0.  0.
          5    1    3    3  501    0 -0.44765536223E+02  0.20193556624E+01  0.57478659804E+02  0.73033672805E+02  0.47000000000E+01 0. -1.
        -13    1    4    4    0    0  0.21173492313E+02  0.57486124546E+02  0.28970947544E+03  0.29611577373E+03  0.00000000000E+00 0.  1.
         14    1    4    4    0    0 -0.66243670187E+02  0.80132422133E+02  0.52470022046E+03  0.53490162672E+03  0.00000000000E+00 0. -1.
         -5    1    5    5    0  502 -0.13332611245E+02 -0.71180097581E+02  0.11013822543E+03  0.13189724605E+03  0.47000000000E+01 0.  1.
         11    1    6    6    0    0  0.58223525514E+02 -0.79719931132E+02  0.20175738942E+02  0.10075865613E+03  0.00000000000E+00 0. -1.
        -12    1    6    6    0    0  0.44944799828E+02  0.11262126372E+02  0.25974837135E+02  0.53118383693E+02  0.00000000000E+00 0.  1.
</event>
<event>
12    1  0.1035051E+000  0.2351004E+03  0.7818608E-02  0.1123172E+00
         21   -1    0    0  503  502  0.00000000000E+00  0.00000000000E+00  0.29774743833E+03  0.29774743833E+03  0.00000000000E+00 0. -1.
         21   -1    0    0  501  503 -0.00000000000E+00 -0.00000000000E+00 -0.19817426426E+03  0.19817426426E+03  0.00000000000E+00 0. -1.
          6    2    1    2  501    0 -0.11668595676E+03 -0.11020701201E+03  0.11302181730E+03  0.26085653769E+03  0.17178767147E+03 0.  0.
         24    2    3    3    0    0 -0.11960509602E+03 -0.14162345682E+03  0.10671932280E+03  0.22833999089E+03  0.79922181314E+02 0.  0.
         -6    2    1    2    0  502  0.11668595676E+03  0.11020701201E+03 -0.13448643222E+02  0.23506516490E+03  0.17121205490E+03 0.  0.
        -24    2    5    5    0    0  0.70552337361E+02  0.25961717639E+02 -0.62686238322E+02  0.12702808222E+03  0.80962498153E+02 0.  0.
          5    1    3    3  501    0  0.29191392614E+01  0.31416444812E+02  0.63024944947E+01  0.32516546796E+02  0.47000000000E+01 0. -1.
        -13    1    4    4    0    0 -0.16068499496E+01 -0.55953378482E+02  0.32350255425E+02  0.64652158172E+02  0.00000000000E+00 0.  1.
         14    1    4    4    0    0 -0.11799824607E+03 -0.85670078341E+02  0.74369067376E+02  0.16368783272E+03  0.00000000000E+00 0. -1.
         -5    1    5    5    0  502  0.46133619398E+02  0.84245294371E+02  0.49237595100E+02  0.10803708268E+03  0.47000000000E+01 0.  1.
         13    1    6    6    0    0 -0.15107090442E+02 -0.51293512519E+01  0.78749687565E+00  0.15973558689E+02  0.00000000000E+00 0. -1.
        -14    1    6    6    0    0  0.85659427803E+02  0.31091068891E+02 -0.63473735198E+02  0.11105452353E+03  0.00000000000E+00 0.  1.
</event>
<event>
12    1  0.1035051E+000  0.2401415E+03  0.7818608E-02  0.1120036E+00
         21   -1    0    0  503  502  0.00000000000E+00  0.00000000000E+00  0.86819454322E+02  0.86819454322E+02  0.00000000000E+00 0.  1.
         21   -1    0    0  501  503 -0.00000000000E+00 -0.00000000000E+00 -0.68113635094E+03  0.68113635094E+03  0.00000000000E+00 0. -1.
          6    2    1    2  501    0  0.16677241616E+03  0.13196994926E+02 -0.22861636935E+03  0.33156206253E+03  0.17228104221E+03 0.  0.
         24    2    3    3    0    0  0.22827338912E+02  0.42122499273E+02 -0.96556169729E+02  0.13403015019E+03  0.79659242410E+02 0.  0.
         -6    2    1    2    0  502 -0.16677241616E+03 -0.13196994926E+02 -0.36570052726E+03  0.43639374273E+03  0.16945625862E+03 0.  0.
        -24    2    5    5    0    0 -0.44427430110E+02 -0.57089449790E+02 -0.15895751534E+03  0.19214058270E+03  0.80109362835E+02 0.  0.
          5    1    3    3  501    0  0.14394507725E+03 -0.28925504347E+02 -0.13206019963E+03  0.19753191234E+03  0.47000000000E+01 0. -1.
        -11    1    4    4    0    0  0.72583336799E+01  0.21466465913E+02 -0.10453368534E+03  0.10696160030E+03  0.00000000000E+00 0.  1.
         12    1    4    4    0    0  0.15569005232E+02  0.20656033359E+02  0.79775156151E+01  0.27068549896E+02  0.00000000000E+00 0. -1.
         -5    1    5    5    0  502 -0.12234498605E+03  0.43892454864E+02 -0.20674301192E+03  0.24425316003E+03  0.47000000000E+01 0.  1.
         13    1    6    6    0    0 -0.22104954261E+02 -0.15674998036E+01 -0.11693983998E+03  0.11902105794E+03  0.00000000000E+00 0. -1.
        -14    1    6    6    0    0 -0.22322475849E+02 -0.55521949986E+02 -0.42017675356E+02  0.73119524757E+02  0.00000000000E+00 0.  1.
</event>
<event>
12    1  0.1035051E+000  0.3420991E+03  0.7818608E-02  0.1065924E+00
         21   -1    0    0  503  502  0.00000000000E+00  0.00000000000E+00  0.19507502706E+04  0.19507502706E+04  0.00000000000E+00 0.  1.
         21   -1    0    0  501  503 -0.00000000000E+00 -0.00000000000E+00 -0.69094583948E+02  0.69094583948E+02  0.00000000000E+00 0.  1.
          6    2    1    2  501    0 -0.14947660519E+02 -0.29572098998E+03  0.13082188832E+04  0.13522087374E+04  0.17134026508E+03 0.  0.
         24    2    3    3    0    0  0.50880274341E+02 -0.10987458916E+03  0.58027325107E+03  0.59802100535E+03  0.79062312608E+02 0.  0.
         -6    2    1    2    0  502  0.14947660519E+02  0.29572098998E+03  0.57343680342E+03  0.66763611721E+03  0.17097918298E+03 0.  0.
        -24    2    5    5    0    0  0.20927351469E+02  0.23196268691E+03  0.30850495454E+03  0.39503411343E+03  0.81437102325E+02 0.  0.
          5    1    3    3  501    0 -0.65827934860E+02 -0.18584640081E+03  0.72794563217E+03  0.75418773200E+03  0.47000000000E+01 0. -1.
        -13    1    4    4    0    0  0.24903294995E+02 -0.14108637534E+02  0.42954782907E+02  0.51617256119E+02  0.00000000000E+00 0.  1.
         14    1    4    4    0    0  0.25976979346E+02 -0.95765951628E+02  0.53731846816E+03  0.54640374923E+03  0.00000000000E+00 0. -1.
         -5    1    5    5    0  502 -0.59796909503E+01  0.63758303064E+02  0.26493184888E+03  0.27260200378E+03  0.47000000000E+01 0.  1.
         11    1    6    6    0    0 -0.44545904278E+01  0.21682413526E+03  0.27763844964E+03  0.35230052189E+03  0.00000000000E+00 0. -1.
        -12    1    6    6    0    0  0.25381941897E+02  0.15138551652E+02  0.30866504901E+02  0.42733591534E+02  0.00000000000E+00 0.  1.
</event>
<event>
12    1  0.1035051E+000  0.3858139E+03  0.7818608E-02  0.1048910E+00
         21   -1    0    0  503  502  0.00000000000E+00  0.00000000000E+00  0.11915776115E+04  0.11915776115E+04  0.00000000000E+00 0. -1.
         21   -1    0    0  501  503 -0.00000000000E+00 -0.00000000000E+00 -0.14974220321E+03  0.14974220321E+03  0.00000000000E+00 0.  1.
          6    2    1    2  501    0 -0.29337986476E+02 -0.34408993179E+03  0.79536025931E+03  0.88349634334E+03  0.16943803583E+03 0.  0.
         24    2    3    3    0    0 -0.68893909316E+02 -0.31808350647E+03  0.65741244280E+03  0.73757617588E+03  0.76837539328E+02 0.  0.
         -6    2    1    2    0  502  0.29337986476E+02  0.34408993179E+03  0.24647514897E+03  0.45782347136E+03  0.17202829203E+03 0.  0.
        -24    2    5    5    0    0  0.37610677671E+02  0.12922507257E+03  0.16722671203E+03  0.22861232437E+03  0.78645655841E+02 0.  0.
          5    1    3    3  501    0  0.39555922839E+02 -0.26006425322E+02  0.13794781651E+03  0.14592016746E+03  0.47000000000E+01 0. -1.
        -13    1    4    4    0    0 -0.75443645395E+02 -0.24013059615E+03  0.54835229792E+03  0.60336116006E+03  0.00000000000E+00 0.  1.
         14    1    4    4    0    0  0.65497360789E+01 -0.77952910318E+02  0.10906014488E+03  0.13421501582E+03  0.00000000000E+00 0. -1.
         -5    1    5    5    0  502 -0.82726911946E+01  0.21486485922E+03  0.79248436937E+02  0.22921114699E+03  0.47000000000E+01 0.  1.
         11    1    6    6    0    0  0.43348285248E+02  0.23970450974E+02  0.42148122875E+02  0.65039377424E+02  0.00000000000E+00 0. -1.
        -12    1    6    6    0    0 -0.57376075770E+01  0.10525462160E+03  0.12507858915E+03  0.16357294695E+03  0.00000000000E+00 0.  1.
</event>
<event>
12    1  0.1035051E+000  0.1759059E+03  0.7818608E-02  0.1171961E+00
         21   -1    0    0  503  502  0.00000000000E+00  0.00000000000E+00  0.63445137822E+02  0.63445137822E+02  0.00000000000E+00 0.  1.
         21   -1    0    0  501  503 -0.00000000000E+00 -0.00000000000E+00 -0.50836289285E+03  0.50836289285E+03  0.00000000000E+00 0.  1.
          6    2    1    2  501    0  0.53672321538E+01 -0.36570180156E+02 -0.16309872282E+03  0.23988346566E+03  0.17197877327E+03 0.  0.
         24    2    3    3    0    0  0.38310204312E+02  0.21766750247E+02 -0.44899662460E+02  0.10393662041E+03  0.82736800776E+02 0.  0.
         -6    2    1    2    0  502 -0.53672321538E+01  0.36570180156E+02 -0.28181903221E+03  0.33192456502E+03  0.17142276595E+03 0.  0.
        -24    2    5    5    0    0  0.43483115541E+00  0.13264802265E+02 -0.29370873780E+03  0.30471685147E+03  0.80071173660E+02 0.  0.
          5    1    3    3  501    0 -0.32942972158E+02 -0.58336930403E+02 -0.11819906036E+03  0.13594684525E+03  0.47000000000E+01 0. -1.
        -11    1    4    4    0    0 -0.70082840302E+01 -0.22676895205E+02  0.36625662608E+01  0.24016078214E+02  0.00000000000E+00 0.  1.
         12    1    4    4    0    0  0.45318488342E+02  0.44443645452E+02 -0.48562228721E+02  0.79920542196E+02  0.00000000000E+00 0. -1.
         -5    1    5    5    0  502 -0.58020633092E+01  0.23305377890E+02  0.11889705592E+02  0.27207713544E+02  0.47000000000E+01 0.  1.
         11    1    6    6    0    0  0.36568066295E+02  0.23587200069E+02 -0.16387844094E+03  0.16955743241E+03  0.00000000000E+00 0. -1.
        -12    1    6    6    0    0 -0.36133235140E+02 -0.10322397803E+02 -0.12983029686E+03  0.13515941906E+03  0.00000000000E+00 0.  1.
</event>
<event>
12    1  0.1035051E+000  0.2035633E+03  0.7818608E-02  0.1147401E+00
         21   -1    0    0  501  502  0.00000000000E+00  0.00000000000E+00  0.39075133845E+02  0.39075133845E+02  0.00000000000E+00 0.  1.
         21   -1    0    0  502  503 -0.00000000000E+00 -0.00000000000E+00 -0.12003324118E+04  0.12003324118E+04  0.00000000000E+00 0.  1.
         -6    2    1    2    0  503 -0.99998960556E+02  0.20143096853E+02 -0.36126006823E+03  0.41466475070E+03  0.17616038748E+03 0.  0.
        -24    2    3    3    0    0 -0.47835407532E+02  0.61580874560E+02 -0.11878256813E+03  0.16315818272E+03  0.80192666568E+02 0.  0.
          6    2    1    2  501    0  0.99998960556E+02 -0.20143096853E+02 -0.79999720976E+03  0.82474279498E+03  0.17262562317E+03 0.  0.
         24    2    5    5    0    0  0.11964914744E+03 -0.63407575326E+01 -0.42410931629E+03  0.44805932989E+03  0.80822813876E+02 0.  0.
          5    1    5    5  501    0 -0.19650186884E+02 -0.13802339321E+02 -0.37588789347E+03  0.37668346509E+03  0.47000000000E+01 0. -1.
        -11    1    6    6    0    0  0.78360214249E+02  0.18077380239E+02 -0.15409409287E+03  0.17381629472E+03  0.00000000000E+00 0.  1.
         12    1    6    6    0    0  0.41288933190E+02 -0.24418137772E+02 -0.27001522342E+03  0.27424303516E+03  0.00000000000E+00 0. -1.
         -5    1    3    3    0  503 -0.52163553023E+02 -0.41437777706E+02 -0.24247750010E+03  0.25150656799E+03  0.47000000000E+01 0.  1.
         13    1    4    4    0    0 -0.25919067998E+02 -0.31994960933E+01 -0.80832757952E+02  0.84946863505E+02  0.00000000000E+00 0. -1.
        -14    1    4    4    0    0 -0.21916339535E+02  0.64780370653E+02 -0.37949810174E+02  0.78211319211E+02  0.00000000000E+00 0.  1.
</event>
<event>
12    1  0.1035051E+000  0.2648080E+03  0.7818608E-02  0.1104373E+00
         21   -1    0    0  501  502  0.00000000000E+00  0.00000000000E+00  0.15033551425E+03  0.15033551425E+03  0.00000000000E+00 0.  1.
         21   -1    0    0  502  503 -0.00000000000E+00 -0.00000000000E+00 -0.53859501498E+03  0.53859501498E+03  0.00000000000E+00 0.  1.
         -6    2    1    2    0  503  0.16130541697E+03  0.11963653062E+03 -0.66987568110E+02  0.27259057446E+03  0.17171473437E+03 0.  0.
        -24    2    3    3    0    0  0.99417650171E+02  0.13094568815E+03 -0.92329478261E+02  0.20460311139E+03  0.79416989521E+02 0.  0.
          6    2    1    2  501    0 -0.16130541697E+03 -0.11963653062E+03 -0.32127193262E+03  0.41633995478E+03  0.17260059750E+03 0.  0.
         24    2    5    5    0    0 -0.82903310008E+02 -0.79521024787E+02 -0.29148862500E+03  0.32325247122E+03  0.79561230808E+02 0.  0.
          5    1    5    5  501    0 -0.78402106960E+02 -0.40115505830E+02 -0.29783307616E+02  0.93087483564E+02  0.47000000000E+01 0. -1.
        -13    1    6    6    0    0 -0.70046789524E+01  0.11598809829E+02 -0.74755631033E+01  0.15475204696E+02  0.00000000000E+00 0.  1.
         14    1    6    6    0    0 -0.75898631056E+02 -0.91119834616E+02 -0.28401306190E+03  0.30777726652E+03  0.00000000000E+00 0. -1.
         -5    1    3    3    0  503  0.61887766798E+02 -0.11309157537E+02  0.25341910151E+02  0.67987463062E+02  0.47000000000E+01 0.  1.
         11    1    4    4    0    0  0.64228054777E+02  0.90525405363E+02 -0.10129181281E+03  0.15026684058E+03  0.00000000000E+00 0. -1.
        -12    1    4    4    0    0  0.35189595394E+02  0.40420282791E+02  0.89623345508E+01  0.54336270810E+02  0.00000000000E+00 0.  1.
</event>
<event>
12    1  0.1035051E+000  0.1941671E+03  0.7818608E-02  0.1155044E+00
         21   -1    0    0  503  502  0.00000000000E+00  0.00000000000E+00  0.22707493305E+03  0.22707493305E+03  0.00000000000E+00 0.  1.
         21   -1    0    0  501  503 -0.00000000000E+00 -0.00000000000E+00 -0.16936878214E+03  0.16936878214E+03  0.00000000000E+00 0.  1.
          6    2    1    2  501    0 -0.59130029556E+02 -0.63780688092E+02 -0.34002739996E+01  0.19288819876E+03  0.17213354928E+03 0.  0.
         24    2    3    3    0    0 -0.93463755102E+02 -0.75440150182E+02  0.25424869729E+02  0.14632934700E+03  0.79618867203E+02 0.  0.
         -6    2    1    2    0  502  0.59130029556E+02  0.63780688092E+02  0.61106424911E+02  0.20355551644E+03  0.17359872275E+03 0.  0.
        -24    2    5    5    0    0  0.23637935960E+02  0.60304905327E+02 -0.29315784132E+02  0.10624140821E+03  0.78945474824E+02 0.  0.
          5    1    3    3  501    0  0.34333725546E+02  0.11659462090E+02 -0.28825143729E+02  0.46558851759E+02  0.47000000000E+01 0. -1.
        -13    1    4    4    0    0  0.89176915410E+01 -0.31383211123E+02  0.47487956964E+01  0.32969413452E+02  0.00000000000E+00 0.  1.
         14    1    4    4    0    0 -0.10238144664E+03 -0.44056939059E+02  0.20676074033E+02  0.11335993355E+03  0.00000000000E+00 0. -1.
         -5    1    5    5    0  502  0.35492093596E+02  0.34757827644E+01  0.90422209043E+02  0.97314108237E+02  0.47000000000E+01 0.  1.
         11    1    6    6    0    0 -0.16911289090E+02  0.32049609669E+02 -0.41745368427E+02  0.55279697572E+02  0.00000000000E+00 0. -1.
        -12    1    6    6    0    0  0.40549225050E+02  0.28255295659E+02  0.12429584295E+02  0.50961710633E+02  0.00000000000E+00 0.  1.
</event>
<event>
12    1  0.1035051E+000  0.1948734E+03  0.7818608E-02  0.1154250E+00
         21   -1    0    0  503  502  0.00000000000E+00  0.00000000000E+00  0.54082708179E+03  0.54082708179E+03  0.00000000000E+00 0. -1.
         21   -1    0    0  501  503 -0.00000000000E+00 -0.00000000000E+00 -0.84582512205E+02  0.84582512205E+02  0.00000000000E+00 0. -1.
          6    2    1    2  501    0  0.89607145592E+02 -0.30589657866E+01  0.98176689821E+02  0.21774764813E+03  0.17244297037E+03 0.  0.
         24    2    3    3    0    0  0.54089568356E+02  0.43110299364E+02  0.15050517617E+01  0.10478484478E+03  0.78698279509E+02 0.  0.
         -6    2    1    2    0  502 -0.89607145592E+02  0.30589657866E+01  0.35806787976E+03  0.40766194586E+03  0.17302270883E+03 0.  0.
        -24    2    5    5    0    0 -0.28406815205E+01  0.73593089319E+01  0.26136290002E+03  0.27758175772E+03  0.93160280243E+02 0.  0.
          5    1    3    3  501    0  0.35517577236E+02 -0.46169265151E+02  0.96671638059E+02  0.11296280336E+03  0.47000000000E+01 0. -1.
        -13    1    4    4    0    0  0.34528519896E+01  0.28565969504E+02  0.32700577686E+02  0.43557600732E+02  0.00000000000E+00 0.  1.
         14    1    4    4    0    0  0.50636716366E+02  0.14544329860E+02 -0.31195525924E+02  0.61227244043E+02  0.00000000000E+00 0. -1.
         -5    1    5    5    0  502 -0.86766464071E+02 -0.43003431453E+01  0.96704979742E+02  0.13008018814E+03  0.47000000000E+01 0.  1.
         13    1    6    6    0    0  0.48247554748E+01  0.43657806427E+02  0.69878387376E+02  0.82536484961E+02  0.00000000000E+00 0. -1.
        -14    1    6    6    0    0 -0.76654369952E+01 -0.36298497495E+02  0.19148451264E+03  0.19504527276E+03  0.00000000000E+00 0.  1.
</event>
<event>
12    1  0.1035051E+000  0.1893724E+03  0.7818608E-02  0.1159500E+00
         21   -1    0    0  501  502  0.00000000000E+00  0.00000000000E+00  0.19483557573E+03  0.19483557573E+03  0.00000000000E+00 0.  1.
         21   -1    0    0  502  503 -0.00000000000E+00 -0.00000000000E+00 -0.26283169565E+03  0.26283169565E+03  0.00000000000E+00 0.  1.
         -6    2    1    2    0  503 -0.78186419818E+02 -0.64965307530E+01  0.92730156839E+02  0.21085728868E+03  0.17235600670E+03 0.  0.
        -24    2    3    3    0    0 -0.46764731347E+02 -0.24232925880E+02 -0.16926827006E+02  0.95320946674E+02  0.77623389566E+02 0.  0.
          6    2    1    2  501    0  0.78186419818E+02  0.64965307530E+01 -0.16072627676E+03  0.24680998269E+03  0.17007912970E+03 0.  0.
         24    2    5    5    0    0  0.76993520362E+02 -0.35787363308E+02 -0.16710765870E+03  0.20377322234E+03  0.79936343397E+02 0.  0.
          5    1    5    5  501    0  0.11928994564E+01  0.42283894061E+02  0.63813819445E+01  0.43036760352E+02  0.47000000000E+01 0. -1.
        -13    1    6    6    0    0  0.31174459129E+02  0.22945283770E+02 -0.81956679933E+02  0.90637907825E+02  0.00000000000E+00 0.  1.
         14    1    6    6    0    0  0.45819061232E+02 -0.58732647078E+02 -0.85150978772E+02  0.11313531452E+03  0.00000000000E+00 0. -1.
         -5    1    3    3    0  503 -0.31421688471E+02  0.17736395127E+02  0.10965698384E+03  0.11553634201E+03  0.47000000000E+01 0.  1.
         11    1    4    4    0    0  0.43242734779E+01 -0.34355396381E+02  0.10860505740E+02  0.36289711856E+02  0.00000000000E+00 0. -1.
        -12    1    4    4    0    0 -0.51089004825E+02  0.10122470501E+02 -0.27787332746E+02  0.59031234819E+02  0.00000000000E+00 0.  1.
</event>
<event>
12    1  0.1035051E+000  0.1754423E+03  0.7818608E-02  0.1172424E+00
         21   -1    0    0  501  502  0.00000000000E+00  0.00000000000E+00  0.95646348574E+02  0.95646348574E+02  0.00000000000E+00 0.  1.
         21   -1    0    0  502  503 -0.00000000000E+00 -0.00000000000E+00 -0.34737971130E+03  0.34737971130E+03  0.00000000000E+00 0.  1.
         -6    2    1    2    0  503 -0.31001030963E+02 -0.61262085574E+01 -0.64796502075E+02  0.18702560502E+03  0.17257287127E+03 0.  0.
        -24    2    3    3    0    0 -0.40433722392E+02 -0.26027713828E+02 -0.10600398880E+03  0.14006612737E+03  0.77906011327E+02 0.  0.
          6    2    1    2  501    0  0.31001030963E+02  0.61262085574E+01 -0.18693686066E+03  0.25600045486E+03  0.17202397700E+03 0.  0.
         24    2    5    5    0    0  0.11006099735E+02  0.47966993020E+02 -0.40011727860E+02  0.10185917821E+03  0.79701864275E+02 0.  0.
          5    1    5    5  501    0  0.19994931228E+02 -0.41840784463E+02 -0.14692513280E+03  0.15414127665E+03  0.47000000000E+01 0. -1.
        -11    1    6    6    0    0  0.43943531776E+02  0.18671204348E+02 -0.30824047323E+02  0.56831063250E+02  0.00000000000E+00 0.  1.
         12    1    6    6    0    0 -0.32937432041E+02  0.29295788673E+02 -0.91876805371E+01  0.45028114962E+02  0.00000000000E+00 0. -1.
         -5    1    3    3    0  503  0.94326914297E+01  0.19901505270E+02  0.41207486721E+02  0.46959477654E+02  0.47000000000E+01 0.  1.
         11    1    4    4    0    0 -0.62900890037E+02 -0.28288958125E+02 -0.80184860200E+02  0.10576577388E+03  0.00000000000E+00 0. -1.
        -12    1    4    4    0    0  0.22467167644E+02  0.22612442976E+01 -0.25819128597E+02  0.34300353486E+02  0.00000000000E+00 0.  1.
</event>
<event>
12    1  0.1035051E+000  0.2119474E+03  0.7818608E-02  0.1140791E+00
         21   -1    0    0  503  502  0.00000000000E+00  0.00000000000E+00  0.25064944433E+03  0.25064944433E+03  0.00000000000E+00 0.  1.
         21   -1    0    0  501  503 -0.00000000000E+00 -0.00000000000E+00 -0.47296642726E+03  0.47296642726E+03  0.00000000000E+00 0.  1.
          6    2    1    2  501    0  0.10836455492E+03  0.59774539407E+02  0.17515607051E+03  0.27495696383E+03  0.17206339123E+03 0.  0.
         24    2    3    3    0    0 -0.14120939871E+02  0.30343691151E+02  0.98441838081E+02  0.12738991223E+03  0.73601995332E+02 0.  0.
         -6    2    1    2    0  502 -0.10836455492E+03 -0.59774539407E+02 -0.39747305344E+03  0.44865890775E+03  0.16731441950E+03 0.  0.
        -24    2    5    5    0    0 -0.91462963868E+02 -0.10625634059E+03 -0.31281127804E+03  0.35049614579E+03  0.73080564253E+02 0.  0.
          5    1    3    3  501    0  0.12248549479E+03  0.29430848255E+02  0.76714232427E+02  0.14756705161E+03  0.47000000000E+01 0. -1.
        -13    1    4    4    0    0  0.47206302671E+01 -0.20703529913E+02  0.98181259441E+01  0.23394787839E+02  0.00000000000E+00 0.  1.
         14    1    4    4    0    0 -0.18841570138E+02  0.51047221064E+02  0.88623712137E+02  0.10399512439E+03  0.00000000000E+00 0. -1.
         -5    1    5    5    0  502 -0.16901591052E+02  0.46481801188E+02 -0.84661775404E+02  0.98162761964E+02  0.47000000000E+01 0.  1.
         11    1    6    6    0    0 -0.96621444130E+02 -0.68716383987E+02 -0.21369176501E+03  0.24438047248E+03  0.00000000000E+00 0. -1.
        -12    1    6    6    0    0  0.51584802625E+01 -0.37539956607E+02 -0.99119513024E+02  0.10611567331E+03  0.00000000000E+00 0.  1.
</event>
<event>
12    1  0.1035051E+000  0.2015998E+03  0.7818608E-02  0.1149305E+00
         21   -1    0    0  503  502  0.00000000000E+00  0.00000000000E+00  0.88026024506E+02  0.88026024506E+02  0.00000000000E+00 0.  1.
         21   -1    0    0  501  503 -0.00000000000E+00 -0.00000000000E+00 -0.46935366500E+03  0.46935366500E+03  0.00000000000E+00 0.  1.
          6    2    1    2  501    0  0.27172420123E+02 -0.94139385422E+02 -0.13494949220E+03  0.23903290612E+03  0.17124485529E+03 0.  0.
         24    2    3    3    0    0  0.71575742680E+01 -0.23736124219E+02  0.22579380858E+01  0.83452759034E+02  0.79653187279E+02 0.  0.
         -6    2    1    2    0  502 -0.27172420123E+02  0.94139385422E+02 -0.24637814829E+03  0.31834678338E+03  0.17618716818E+03 0.  0.
        -24    2    5    5    0    0 -0.14861617808E+02  0.91182351114E+01 -0.32238015352E+02  0.87569318300E+02  0.79530409142E+02 0.  0.
          5    1    3    3  501    0  0.20014845855E+02 -0.70403261202E+02 -0.13720743029E+03  0.15558014709E+03  0.47000000000E+01 0. -1.
        -13    1    4    4    0    0 -0.11695588648E+02 -0.42276243119E+02 -0.20636941211E+02  0.48476291820E+02  0.00000000000E+00 0.  1.
         14    1    4    4    0    0  0.18853162917E+02  0.18540118900E+02  0.22894879297E+02  0.34976467214E+02  0.00000000000E+00 0. -1.
         -5    1    5    5    0  502 -0.12310802316E+02  0.85021150310E+02 -0.21414013294E+03  0.23077746508E+03  0.47000000000E+01 0.  1.
         11    1    6    6    0    0 -0.13879776993E+02  0.44195262461E+02 -0.17863830089E+02  0.49648623936E+02  0.00000000000E+00 0. -1.
        -12    1    6    6    0    0 -0.98184081441E+00 -0.35077027349E+02 -0.14374185263E+02  0.37920694364E+02  0.00000000000E+00 0.  1.
</event>
<event>
12    1  0.1035051E+000  0.1980951E+03  0.7818608E-02  0.1151399E+00
         21   -1    0    0  503  502  0.00000000000E+00  0.00000000000E+00  0.60472472565E+03  0.60472472565E+03  0.00000000000E+00 0.  1.
         21   -1    0    0  501  503 -0.00000000000E+00 -0.00000000000E+00 -0.83009213309E+02  0.83009213309E+02  0.00000000000E+00 0.  1.
          6    2    1    2  501    0 -0.54789278057E+02  0.82849741612E+02  0.10002057243E+03  0.22191392490E+03  0.17139349603E+03 0.  0.
         24    2    3    3    0    0  0.22542091269E+02  0.15808035300E+02  0.13594125613E+02  0.87875304439E+02  0.82336073626E+02 0.  0.
         -6    2    1    2    0  502  0.54789278057E+02 -0.82849741612E+02  0.42169493991E+03  0.46582001405E+03  0.17115992075E+03 0.  0.
        -24    2    5    5    0    0  0.52300901018E+02 -0.84072664325E+02  0.43411052866E+03  0.45225814087E+03  0.79258297745E+02 0.  0.
          5    1    3    3  501    0 -0.77331369326E+02  0.67041706312E+02  0.86426446813E+02  0.13403862046E+03  0.47000000000E+01 0. -1.
        -13    1    4    4    0    0  0.43396046738E+02  0.27828535539E+02  0.29143052889E+02  0.59219606504E+02  0.00000000000E+00 0.  1.
         14    1    4    4    0    0 -0.20853955469E+02 -0.12020500239E+02 -0.15548927276E+02  0.28655697935E+02  0.00000000000E+00 0. -1.
         -5    1    5    5    0  502  0.24883770390E+01  0.12229227135E+01 -0.12415588746E+02  0.13561873180E+02  0.47000000000E+01 0.  1.
         11    1    6    6    0    0 -0.18215716975E+02 -0.26258301824E+02  0.16647392646E+03  0.16951365418E+03  0.00000000000E+00 0. -1.
        -12    1    6    6    0    0  0.70516617993E+02 -0.57814362501E+02  0.26763660219E+03  0.28274448670E+03  0.00000000000E+00 0.  1.
</event>
<event>
12    1  0.1035051E+000  0.2579807E+03  0.7818608E-02  0.1109176E+00
         21   -1    0    0  503  502  0.00000000000E+00  0.00000000000E+00  0.20721074289E+03  0.20721074289E+03  0.00000000000E+00 0.  1.
         21   -1    0    0  501  503 -0.00000000000E+00 -0.00000000000E+00 -0.35747532399E+03  0.35747532399E+03  0.00000000000E+00 0.  1.
          6    2    1    2  501    0 -0.15925030920E+03  0.10182914757E+03  0.23307624714E+02  0.25374984779E+03  0.16767797592E+03 0.  0.
         24    2    3    3    0    0 -0.39101083973E+02  0.19589343524E+02  0.53362045760E+02  0.10500651208E+03  0.79159475143E+02 0.  0.
         -6    2    1    2    0  502  0.15925030920E+03 -0.10182914757E+03 -0.17357220581E+03  0.31093621908E+03  0.17556817887E+03 0.  0.
        -24    2    5    5    0    0  0.35632797568E+02 -0.80744297729E+02 -0.39269423440E+02  0.12712874527E+03  0.82645582940E+02 0.  0.
          5    1    3    3  501    0 -0.12014922523E+03  0.82239804046E+02 -0.30054421046E+02  0.14874333570E+03  0.47000000000E+01 0. -1.
        -13    1    4    4    0    0 -0.51330636862E+01 -0.14776721311E+02 -0.14746754517E+02  0.21498060478E+02  0.00000000000E+00 0.  1.
         14    1    4    4    0    0 -0.33968020287E+02  0.34366064835E+02  0.68108800277E+02  0.83508451606E+02  0.00000000000E+00 0. -1.
         -5    1    5    5    0  502  0.12361751163E+03 -0.21084849842E+02 -0.13430278237E+03  0.18380747381E+03  0.47000000000E+01 0.  1.
         11    1    6    6    0    0  0.36241823337E+02  0.13890079808E+01 -0.42494523057E+00  0.36270920589E+02  0.00000000000E+00 0. -1.
        -12    1    6    6    0    0 -0.60902576846E+00 -0.82133305709E+02 -0.38844478210E+02  0.90857824685E+02  0.00000000000E+00 0.  1.
</event>
<event>
12    1  0.1035051E+000  0.1897389E+03  0.7818608E-02  0.1159123E+00
         21   -1    0    0  501  502  0.00000000000E+00  0.00000000000E+00  0.12995039669E+03  0.12995039669E+03  0.00000000000E+00 0. -1.
         21   -1    0    0  502  503 -0.00000000000E+00 -0.00000000000E+00 -0.30364079776E+03  0.30364079776E+03  0.00000000000E+00 0. -1.
         -6    2    1    2    0  503  0.60299246545E+02  0.46012250714E+02 -0.15384035487E+03  0.24281676179E+03  0.17187204156E+03 0.  0.
        -24    2    3    3    0    0  0.10402136901E+03  0.29584593669E+02 -0.84357982499E+02  0.15896342566E+03  0.80357999562E+02 0.  0.
          6    2    1    2  501    0 -0.60299246545E+02 -0.46012250714E+02 -0.19850046203E+02  0.19077443266E+03  0.17391875538E+03 0.  0.
         24    2    5    5    0    0 -0.81704815298E+02 -0.37178049662E+02  0.39938315435E+02  0.12648617814E+03  0.79660529759E+02 0.  0.
          5    1    5    5  501    0  0.21405568753E+02 -0.88342010515E+01 -0.59788361638E+02  0.64288254520E+02  0.47000000000E+01 0. -1.
        -11    1    6    6    0    0  0.91692346237E+01 -0.27015632424E+02  0.10989388849E+02  0.30572633614E+02  0.00000000000E+00 0.  1.
         12    1    6    6    0    0 -0.90874049922E+02 -0.10162417239E+02  0.28948926586E+02  0.95913544527E+02  0.00000000000E+00 0. -1.
         -5    1    3    3    0  503 -0.43722122468E+02  0.16427657045E+02 -0.69482372371E+02  0.83853336126E+02  0.47000000000E+01 0.  1.
         13    1    4    4    0    0  0.73083727768E+02 -0.20385839652E+02 -0.44688508430E+02  0.88056098645E+02  0.00000000000E+00 0. -1.
        -14    1    4    4    0    0  0.30937641245E+02  0.49970433321E+02 -0.39669474069E+02  0.70907327019E+02  0.00000000000E+00 0.  1.
</event>
<event>
12    1  0.1035051E+000  0.2391711E+03  0.7818608E-02  0.1120508E+00
         21   -1    0    0  501  502  0.00000000000E+00  0.00000000000E+00  0.82928519635E+03  0.82928519635E+03  0.00000000000E+00 0. -1.
         21   -1    0    0  502  503 -0.00000000000E+00 -0.00000000000E+00 -0.75482070590E+02  0.75482070590E+02  0.00000000000E+00 0.  1.
         -6    2    1    2    0  503  0.16094440894E+03  0.50106760322E+02  0.51318197956E+03  0.56617891520E+03  0.16967330276E+03 0.  0.
        -24    2    3    3    0    0  0.18407632359E+02  0.48604127817E+02  0.13906239515E+03  0.16579591853E+03  0.73815545018E+02 0.  0.
          6    2    1    2  501    0 -0.16094440894E+03 -0.50106760322E+02  0.24062114620E+03  0.33858835174E+03  0.16831442523E+03 0.  0.
         24    2    5    5    0    0 -0.59678176389E+02 -0.83499366505E+02  0.11313400480E+03  0.17232056405E+03  0.79758666041E+02 0.  0.
          5    1    5    5  501    0 -0.10126623255E+03  0.33392606183E+02  0.12748714139E+03  0.16626778769E+03  0.47000000000E+01 0. -1.
        -13    1    6    6    0    0  0.19425079185E+02 -0.93575032927E+01  0.18399473994E+02  0.28344968027E+02  0.00000000000E+00 0.  1.
         14    1    6    6    0    0 -0.79103255574E+02 -0.74141863212E+02  0.94734530811E+02  0.14397559603E+03  0.00000000000E+00 0. -1.
         -5    1    3    3    0  503  0.14253677658E+03  0.15026325046E+01  0.37411958441E+03  0.40038299666E+03  0.47000000000E+01 0.  1.
         11    1    4    4    0    0 -0.17753570125E+02  0.47820308724E+02  0.10180543283E+03  0.11386973844E+03  0.00000000000E+00 0. -1.
        -12    1    4    4    0    0  0.36161202484E+02  0.78381909369E+00  0.37256962321E+02  0.51926180091E+02  0.00000000000E+00 0.  1.
</event>
<event>
12    1  0.1035051E+000  0.2462816E+03  0.7818608E-02  0.1116283E+00
         21   -1    0    0  501  502  0.00000000000E+00  0.00000000000E+00  0.31996912644E+04  0.31996912644E+04  0.00000000000E+00 0. -1.
         21   -1    0    0  502  503 -0.00000000000E+00 -0.00000000000E+00 -0.18741152035E+02  0.18741152035E+02  0.00000000000E+00 0. -1.
         -6    2    1    2    0  503  0.12203864223E+03 -0.12547334891E+03  0.16773092150E+04  0.16947557603E+04  0.16791037098E+03 0.  0.
        -24    2    3    3    0    0  0.96504753065E+01 -0.26830792912E+02  0.78606646971E+03  0.79104276657E+03  0.83875745063E+02 0.  0.
          6    2    1    2  501    0 -0.12203864223E+03  0.12547334891E+03  0.15036408974E+04  0.15236766562E+04  0.17325591737E+03 0.  0.
         24    2    5    5    0    0 -0.52707843080E+02  0.10009035800E+03  0.56864430866E+03  0.58575780745E+03  0.83424593048E+02 0.  0.
          5    1    5    5  501    0 -0.69330799149E+02  0.25382990910E+02  0.93499658872E+03  0.93791884875E+03  0.47000000000E+01 0. -1.
        -11    1    6    6    0    0 -0.68117217909E+02  0.70913899679E+02  0.50022564019E+03  0.50979841864E+03  0.00000000000E+00 0.  1.
         12    1    6    6    0    0  0.15409374829E+02  0.29176458320E+02  0.68418668478E+02  0.75959388814E+02  0.00000000000E+00 0. -1.
         -5    1    3    3    0  503  0.11238816692E+03 -0.98642555998E+02  0.89124274531E+03  0.90371299370E+03  0.47000000000E+01 0.  1.
         13    1    4    4    0    0  0.32828599971E+02  0.94499041163E+01  0.16573453408E+03  0.16921865574E+03  0.00000000000E+00 0. -1.
        -14    1    4    4    0    0 -0.23178124665E+02 -0.36280697028E+02  0.62033193563E+03  0.62182411082E+03  0.00000000000E+00 0.  1.
</event>
<event>
12    1  0.1035051E+000  0.2365856E+03  0.7818608E-02  0.1122308E+00
         21   -1    0    0  503  502  0.00000000000E+00  0.00000000000E+00  0.40862352142E+02  0.40862352142E+02  0.00000000000E+00 0.  1.
         21   -1    0    0  501  503 -0.00000000000E+00 -0.00000000000E+00 -0.13635935730E+04  0.13635935730E+04  0.00000000000E+00 0.  1.
          6    2    1    2  501    0 -0.11564610105E+03 -0.11318942863E+03 -0.64191016694E+03  0.68412089297E+03  0.17258872017E+03 0.  0.
         24    2    3    3    0    0 -0.79696869682E+02 -0.83281969489E+02 -0.61337651625E+03  0.62913850879E+03  0.79353859859E+02 0.  0.
         -6    2    1    2    0  502  0.11564610105E+03  0.11318942863E+03 -0.68082105388E+03  0.72033503213E+03  0.17081974030E+03 0.  0.
        -24    2    5    5    0    0  0.43508260647E+01  0.49575124473E+02 -0.18230582914E+03  0.20557981145E+03  0.80938377074E+02 0.  0.
          5    1    3    3  501    0 -0.35949231369E+02 -0.29907459139E+02 -0.28533650689E+02  0.54982384177E+02  0.47000000000E+01 0. -1.
        -13    1    4    4    0    0 -0.44224222902E+02 -0.10225854212E+02 -0.10609275880E+03  0.11539507553E+03  0.00000000000E+00 0.  1.
         14    1    4    4    0    0 -0.35472646780E+02 -0.73056115276E+02 -0.50728375745E+03  0.51374343326E+03  0.00000000000E+00 0. -1.
         -5    1    5    5    0  502  0.11129527499E+03  0.63614304155E+02 -0.49851522474E+03  0.51475522069E+03  0.47000000000E+01 0.  1.
         11    1    6    6    0    0 -0.16599676469E+02  0.27808232354E+02 -0.16983593056E+03  0.17289618375E+03  0.00000000000E+00 0. -1.
        -12    1    6    6    0    0  0.20950502533E+02  0.21766892119E+02 -0.12469898574E+02  0.32683627696E+02  0.00000000000E+00 0.  1.
</event>
<event>
12    1  0.1035051E+000  0.4026638E+03  0.7818608E-02  0.1042941E+00
         21   -1    0    0  501  502  0.00000000000E+00  0.00000000000E+00  0.94134394156E+03  0.94134394156E+03  0.00000000000E+00 0.  1.
         21   -1    0    0  502  503 -0.00000000000E+00 -0.00000000000E+00 -0.20376049602E+03  0.20376049602E+03  0.00000000000E+00 0.  1.
         -6    2    1    2    0  503 -0.27141954191E+03 -0.24282525958E+03  0.59503882750E+03  0.71795448704E+03  0.16957229964E+03 0.  0.
        -24    2    3    3    0    0 -0.69780498218E+02 -0.11600931029E+03  0.18291452123E+03  0.24191969550E+03  0.82097131433E+02 0.  0.
          6    2    1    2  501    0  0.27141954191E+03  0.24282525958E+03  0.14254461804E+03  0.42714995054E+03  0.17177146938E+03 0.  0.
         24    2    5    5    0    0  0.24875349113E+03  0.16462902322E+03  0.67237630362E+02  0.31614709637E+03  0.80293667092E+02 0.  0.
          5    1    5    5  501    0  0.22666050780E+02  0.78196236367E+02  0.75306987676E+02  0.11100285416E+03  0.47000000000E+01 0. -1.
        -11    1    6    6    0    0  0.24550274451E+02  0.80268023119E+01 -0.15873739770E+02  0.30317010823E+02  0.00000000000E+00 0.  1.
         12    1    6    6    0    0  0.22420321668E+03  0.15660222090E+03  0.83111370132E+02  0.28583008555E+03  0.00000000000E+00 0. -1.
         -5    1    3    3    0  503 -0.20163904369E+03 -0.12681594929E+03  0.41212430627E+03  0.47603479154E+03  0.47000000000E+01 0.  1.
         11    1    4    4    0    0 -0.13393041494E+02  0.65330647092E+01  0.32347148375E+00  0.14905003480E+02  0.00000000000E+00 0. -1.
        -12    1    4    4    0    0 -0.56387456724E+02 -0.12254237500E+03  0.18259104975E+03  0.22701469202E+03  0.00000000000E+00 0.  1.
</event>
<event>
12    1  0.1035051E+000  0.2903398E+03  0.7818608E-02  0.1090242E+00
         21   -1    0    0  503  502  0.00000000000E+00  0.00000000000E+00  0.16579848391E+03  0.16579848391E+03  0.00000000000E+00 0.  1.
         21   -1    0    0  501  503 -0.00000000000E+00 -0.00000000000E+00 -0.50836600011E+03  0.50836600011E+03  0.00000000000E+00 0.  1.
          6    2    1    2  501    0  0.14746899020E+03 -0.18078215111E+03 -0.15713873404E+03  0.32966333488E+03  0.17191871159E+03 0.  0.
         24    2    3    3    0    0  0.17654594616E+03 -0.16145411399E+03 -0.12192402375E+03  0.27985160727E+03  0.78838775334E+02 0.  0.
         -6    2    1    2    0  502 -0.14746899020E+03  0.18078215111E+03 -0.18542878216E+03  0.34450114914E+03  0.17282337594E+03 0.  0.
        -24    2    5    5    0    0 -0.11009686391E+03  0.14300840745E+03 -0.20782627012E+03  0.28664556168E+03  0.80007471089E+02 0.  0.
          5    1    3    3  501    0 -0.29076955956E+02 -0.19328037126E+02 -0.35214710283E+02  0.49811727606E+02  0.47000000000E+01 0. -1.
        -13    1    4    4    0    0  0.34492281201E+01 -0.18023194705E+02  0.82089250177E+01  0.20102715537E+02  0.00000000000E+00 0.  1.
         14    1    4    4    0    0  0.17309671804E+03 -0.14343091928E+03 -0.13013294877E+03  0.25974889173E+03  0.00000000000E+00 0. -1.
         -5    1    5    5    0  502 -0.37372126294E+02  0.37773743657E+02  0.22397487959E+02  0.57855587461E+02  0.47000000000E+01 0.  1.
         13    1    6    6    0    0 -0.10840689681E+03  0.12627454846E+03 -0.14221196516E+03  0.21890993559E+03  0.00000000000E+00 0. -1.
        -14    1    6    6    0    0 -0.16899670966E+01  0.16733858994E+02 -0.65614304959E+02  0.67735626083E+02  0.00000000000E+00 0.  1.
</event>
<event>
12    1  0.1035051E+000  0.1783214E+03  0.7818608E-02  0.1169490E+00
         21   -1    0    0  503  502  0.00000000000E+00  0.00000000000E+00  0.35366663920E+02  0.35366663920E+02  0.00000000000E+00 0. -1.
         21   -1    0    0  501  503 -0.00000000000E+00 -0.00000000000E+00 -0.96693829223E+03  0.96693829223E+03  0.00000000000E+00 0. -1.
          6    2    1    2  501    0  0.19374489860E+02 -0.23976501115E+02 -0.33174985647E+03  0.37653767567E+03  0.17542066716E+03 0.  0.
         24    2    3    3    0    0  0.50490729836E+02 -0.40969728949E+02 -0.10126891612E+03  0.14329843359E+03  0.77789557183E+02 0.  0.
         -6    2    1    2    0  502 -0.19374489860E+02  0.23976501115E+02 -0.59982177185E+03  0.62576728049E+03  0.17563680675E+03 0.  0.
        -24    2    5    5    0    0  0.72434436856E+00 -0.28158006494E+01 -0.11375418387E+03  0.13852444509E+03  0.78997177989E+02 0.  0.
          5    1    3    3  501    0 -0.31116239977E+02  0.16993227835E+02 -0.23048094035E+03  0.23323924208E+03  0.47000000000E+01 0. -1.
        -11    1    4    4    0    0  0.58366893304E+01 -0.20373130597E+02  0.86429541596E+01  0.22887377510E+02  0.00000000000E+00 0.  1.
         12    1    4    4    0    0  0.44654040506E+02 -0.20596598352E+02 -0.10991187028E+03  0.12041105608E+03  0.00000000000E+00 0. -1.
         -5    1    5    5    0  502 -0.20098834228E+02  0.26792301764E+02 -0.48606758797E+03  0.48724283540E+03  0.47000000000E+01 0.  1.
         13    1    6    6    0    0 -0.29458815155E+02 -0.12735885065E+02 -0.16247896166E+02  0.35972471260E+02  0.00000000000E+00 0. -1.
        -14    1    6    6    0    0  0.30183159523E+02  0.99200844153E+01 -0.97506287708E+02  0.10255197383E+03  0.00000000000E+00 0.  1.
</event>
<event>
12    1  0.1035051E+000  0.2063349E+03  0.7818608E-02  0.1144624E+00
         21   -1    0    0  503  502  0.00000000000E+00  0.00000000000E+00  0.66132963433E+02  0.66132963433E+02  0.00000000000E+00 0.  1.
         21   -1    0    0  501  503 -0.00000000000E+00 -0.00000000000E+00 -0.11230491490E+04  0.11230491490E+04  0.00000000000E+00 0. -1.
          6    2    1    2  501    0 -0.11459390307E+03 -0.78581291557E+01 -0.13970579099E+03  0.24918226994E+03  0.17140765095E+03 0.  0.
         24    2    3    3    0    0 -0.71566633147E+02  0.57031998541E+02 -0.11417187795E+03  0.16710824637E+03  0.80718749081E+02 0.  0.
         -6    2    1    2    0  502  0.11459390307E+03  0.78581291557E+01 -0.91721039460E+03  0.93999984251E+03  0.17067888900E+03 0.  0.
        -24    2    5    5    0    0  0.37216211544E+01  0.33940924092E+02 -0.25505385265E+03  0.26810226763E+03  0.75236436412E+02 0.  0.
          5    1    3    3  501    0 -0.43027269920E+02 -0.64890127697E+02 -0.25533913034E+02  0.82074023565E+02  0.47000000000E+01 0. -1.
        -11    1    4    4    0    0  0.81324637415E+01  0.39996625974E+01  0.78678850846E+01  0.12001578359E+02  0.00000000000E+00 0.  1.
         12    1    4    4    0    0 -0.79699096889E+02  0.53032335944E+02 -0.12203976304E+03  0.15510666801E+03  0.00000000000E+00 0. -1.
         -5    1    5    5    0  502  0.11087228191E+03 -0.26082794936E+02 -0.66215654195E+03  0.67189757488E+03  0.47000000000E+01 0.  1.
         11    1    6    6    0    0  0.12873933869E+02 -0.26547221668E+01 -0.20502189998E+03  0.20544285141E+03  0.00000000000E+00 0. -1.
        -12    1    6    6    0    0 -0.91523127143E+01  0.36595646259E+02 -0.50031952663E+02  0.62659416215E+02  0.00000000000E+00 0.  1.
</event>
<event>
12    1  0.1035051E+000  0.3057634E+03  0.7818608E-02  0.1082402E+00
         21   -1    0    0  503  502  0.00000000000E+00  0.00000000000E+00  0.41488138876E+03  0.41488138876E+03  0.00000000000E+00 0. -1.
         21   -1    0    0  501  503 -0.00000000000E+00 -0.00000000000E+00 -0.28077165752E+03  0.28077165752E+03  0.00000000000E+00 0.  1.
          6    2    1    2  501    0 -0.25064911820E+03  0.36640717373E+02 -0.87556375284E+02  0.31799299505E+03  0.17113124620E+03 0.  0.
         24    2    3    3    0    0 -0.10555598257E+03  0.66512722894E+02 -0.84800762673E+02  0.16975656862E+03  0.77846743523E+02 0.  0.
         -6    2    1    2    0  502  0.25064911820E+03 -0.36640717373E+02  0.22166610652E+03  0.37766005123E+03  0.17124172648E+03 0.  0.
        -24    2    5    5    0    0  0.20646179020E+03 -0.70305996850E+02  0.22289529073E+03  0.32189741237E+03  0.79788654947E+02 0.  0.
          5    1    3    3  501    0 -0.14509313563E+03 -0.29872005521E+02 -0.27556126111E+01  0.14823642643E+03  0.47000000000E+01 0. -1.
        -11    1    4    4    0    0 -0.41837361651E+02  0.59636562292E+02 -0.13862844059E+02  0.74155666252E+02  0.00000000000E+00 0.  1.
         12    1    4    4    0    0 -0.63718620917E+02  0.68761606015E+01 -0.70937918614E+02  0.95600902368E+02  0.00000000000E+00 0. -1.
         -5    1    5    5    0  502  0.44187327999E+02  0.33665279478E+02 -0.12291842048E+01  0.55762638853E+02  0.47000000000E+01 0.  1.
         11    1    6    6    0    0  0.11459696909E+03 -0.19566060974E+02  0.67643295048E+02  0.13450245883E+03  0.00000000000E+00 0. -1.
        -12    1    6    6    0    0  0.91864821108E+02 -0.50739935877E+02  0.15525199568E+03  0.18739495354E+03  0.00000000000E+00 0.  1.
</event>
<event>
12    1  0.1035051E+000  0.2719020E+03  0.7818608E-02  0.1100350E+00
         21   -1    0    0  503  502  0.00000000000E+00  0.00000000000E+00  0.49902525534E+03  0.49902525534E+03  0.00000000000E+00 0. -1.
         21   -1    0    0  501  503 -0.00000000000E+00 -0.00000000000E+00 -0.28274167154E+03  0.28274167154E+03  0.00000000000E+00 0.  1.
          6    2    1    2  501    0  0.80662258238E+02 -0.19456562226E+03  0.37830637659E+03  0.46525140895E+03  0.17023800309E+03 0.  0.
         24    2    3    3    0    0  0.39915750693E+02 -0.38132058909E+02  0.82486954191E+02  0.12811203379E+03  0.81001694543E+02 0.  0.
         -6    2    1    2    0  502 -0.80662258238E+02  0.19456562226E+03 -0.16202279279E+03  0.31651551793E+03  0.17195495467E+03 0.  0.
        -24    2    5    5    0    0 -0.77490735119E+02  0.48297608643E+02 -0.94928504063E+02  0.15549339539E+03  0.82639591584E+02 0.  0.
          5    1    3    3  501    0  0.40746507545E+02 -0.15643356335E+03  0.29581942240E+03  0.33713937517E+03  0.47000000000E+01 0. -1.
        -13    1    4    4    0    0  0.60762122969E+02 -0.39241216276E+02  0.78708745937E+02  0.10689703143E+03  0.00000000000E+00 0.  1.
         14    1    4    4    0    0 -0.20846372276E+02  0.11091573661E+01  0.37782082537E+01  0.21215002351E+02  0.00000000000E+00 0. -1.
         -5    1    5    5    0  502 -0.31715231195E+01  0.14626801362E+03 -0.67094288730E+02  0.16102212254E+03  0.47000000000E+01 0.  1.
         11    1    6    6    0    0 -0.84872409686E+02  0.21905581356E+02 -0.44980493302E+02  0.98521191619E+02  0.00000000000E+00 0. -1.
        -12    1    6    6    0    0  0.73816745670E+01  0.26392027287E+02 -0.49948010762E+02  0.56972203774E+02  0.00000000000E+00 0.  1.
</event>
<event>
12    1  0.1035051E+000  0.1829365E+03  0.7818608E-02  0.1165631E+00
         21   -1    0    0  503  502  0.00000000000E+00  0.00000000000E+00  0.58075739779E+03  0.58075739779E+03  0.00000000000E+00 0. -1.
         21   -1    0    0  501  503 -0.00000000000E+00 -0.00000000000E+00 -0.89989051724E+02  0.89989051724E+02  0.00000000000E+00 0.  1.
          6    2    1    2  501    0 -0.56383613266E+02  0.14513510918E+02  0.45024614074E+03  0.48599111241E+03  0.17342439348E+03 0.  0.
         24    2    3    3    0    0 -0.53952893321E+01  0.57263680255E+02  0.15989657980E+03  0.18807779668E+03  0.80610812851E+02 0.  0.
         -6    2    1    2    0  502  0.56383613266E+02 -0.14513510918E+02  0.40522205325E+02  0.18475533710E+03  0.17059522742E+03 0.  0.
        -24    2    5    5    0    0  0.20996245493E+02 -0.42648656998E+02  0.81629855649E+02  0.12347090875E+03  0.79510261635E+02 0.  0.
          5    1    3    3  501    0 -0.50988323934E+02 -0.42750169337E+02  0.29034956093E+03  0.29791331573E+03  0.47000000000E+01 0. -1.
        -11    1    4    4    0    0  0.32081102609E+02  0.22831829394E+02  0.10987740758E+03  0.11671989665E+03  0.00000000000E+00 0.  1.
         12    1    4    4    0    0 -0.37476391941E+02  0.34431850860E+02  0.50019172222E+02  0.71357900028E+02  0.00000000000E+00 0. -1.
         -5    1    5    5    0  502  0.35387367773E+02  0.28135146080E+02 -0.41107650324E+02  0.61284428349E+02  0.47000000000E+01 0.  1.
         11    1    6    6    0    0 -0.25482636082E+02 -0.31514684231E+02  0.56327684712E+02  0.69392709479E+02  0.00000000000E+00 0. -1.
        -12    1    6    6    0    0  0.46478881575E+02 -0.11133972768E+02  0.25302170937E+02  0.54078199269E+02  0.00000000000E+00 0.  1.
</event>
<event>
12    1  0.1035051E+000  0.2145476E+03  0.7818608E-02  0.1138180E+00
         21   -1    0    0  501  502  0.00000000000E+00  0.00000000000E+00  0.35206644102E+02  0.35206644102E+02  0.00000000000E+00 0. -1.
         21   -1    0    0  502  503 -0.00000000000E+00 -0.00000000000E+00 -0.13194393152E+04  0.13194393152E+04  0.00000000000E+00 0. -1.
         -6    2    1    2    0  503 -0.10184694248E+03 -0.78794678178E+02 -0.71823305615E+03  0.74934750118E+03  0.17053314511E+03 0.  0.
        -24    2    3    3    0    0 -0.58296129033E+02 -0.58567120916E+02 -0.23093343355E+03  0.25966511472E+03  0.85247725833E+02 0.  0.
          6    2    1    2  501    0  0.10184694248E+03  0.78794678178E+02 -0.56599961500E+03  0.60529845817E+03  0.17160786194E+03 0.  0.
         24    2    5    5    0    0  0.51334139539E+02  0.15494089799E+02 -0.13119598390E+03  0.16299223464E+03  0.80491127849E+02 0.  0.
          5    1    5    5  501    0  0.50512802942E+02  0.63300588379E+02 -0.43480363110E+03  0.44230622352E+03  0.47000000000E+01 0. -1.
        -11    1    6    6    0    0  0.29921759395E+02 -0.32322598964E+02 -0.53798415308E+02  0.69529357675E+02  0.00000000000E+00 0.  1.
         12    1    6    6    0    0  0.21412380144E+02  0.47816688763E+02 -0.77397568589E+02  0.93462876968E+02  0.00000000000E+00 0. -1.
         -5    1    3    3    0  503 -0.43550813448E+02 -0.20227557262E+02 -0.48729962260E+03  0.48968238646E+03  0.47000000000E+01 0.  1.
         13    1    4    4    0    0 -0.38644973956E+02 -0.22993569506E+02 -0.28604572700E+02  0.53295026316E+02  0.00000000000E+00 0. -1.
        -14    1    4    4    0    0 -0.19651155077E+02 -0.35573551410E+02 -0.20232886085E+03  0.20637008840E+03  0.00000000000E+00 0.  1.
</event>
<event>
12    1  0.1035051E+000  0.2047318E+03  0.7818608E-02  0.1146617E+00
         21   -1    0    0  501  502  0.00000000000E+00  0.00000000000E+00  0.10110986971E+03  0.10110986971E+03  0.00000000000E+00 0. -1.
         21   -1    0    0  502  503 -0.00000000000E+00 -0.00000000000E+00 -0.55276733137E+03  0.55276733137E+03  0.00000000000E+00 0. -1.
         -6    2    1    2    0  503  0.80758455544E+02 -0.76877946523E+02 -0.59352391398E+02  0.21316143509E+03  0.17170598196E+03 0.  0.
        -24    2    3    3    0    0 -0.10330788969E+02  0.69636219420E+01 -0.22688826491E+02  0.83960173256E+02  0.79870586665E+02 0.  0.
          6    2    1    2  501    0 -0.80758455544E+02  0.76877946523E+02 -0.39230507027E+03  0.44071576599E+03  0.16701787757E+03 0.  0.
         24    2    5    5    0    0 -0.11559831895E+03  0.60019955155E+02 -0.35832629176E+03  0.38899869585E+03  0.77180876161E+02 0.  0.
          5    1    5    5  501    0  0.34839863401E+02  0.16857991367E+02 -0.33978778511E+02  0.51717070140E+02  0.47000000000E+01 0. -1.
        -11    1    6    6    0    0 -0.79438583752E+02  0.13379734110E+02 -0.12806516910E+03  0.15129505415E+03  0.00000000000E+00 0.  1.
         12    1    6    6    0    0 -0.36159735194E+02  0.46640221046E+02 -0.23026112265E+03  0.23770364169E+03  0.00000000000E+00 0. -1.
         -5    1    3    3    0  503  0.91089244513E+02 -0.83841568465E+02 -0.36663564907E+02  0.12920126184E+03  0.47000000000E+01 0.  1.
         13    1    4    4    0    0 -0.10511875495E+02  0.31504138588E+02 -0.41417609406E+02  0.53088874950E+02  0.00000000000E+00 0. -1.
        -14    1    4    4    0    0  0.18108652652E+00 -0.24540516646E+02  0.18728782914E+02  0.30871298305E+02  0.00000000000E+00 0.  1.
</event>
<event>
12    1  0.1035051E+000  0.2681439E+03  0.7818608E-02  0.1102575E+00
         21   -1    0    0  503  502  0.00000000000E+00  0.00000000000E+00  0.17956456343E+03  0.17956456343E+03  0.00000000000E+00 0. -1.
         21   -1    0    0  501  503 -0.00000000000E+00 -0.00000000000E+00 -0.76981495030E+03  0.76981495030E+03  0.00000000000E+00 0.  1.
          6    2    1    2  501    0  0.10461887501E+03  0.17604239614E+03  0.35191628834E+02  0.26888053842E+03  0.17065245076E+03 0.  0.
         24    2    3    3    0    0  0.77193149458E+02  0.63610109820E+02 -0.37004719292E+02  0.13239760134E+03  0.78452196889E+02 0.  0.
         -6    2    1    2    0  502 -0.10461887501E+03 -0.17604239614E+03 -0.62544201570E+03  0.68049897531E+03  0.17310432155E+03 0.  0.
        -24    2    5    5    0    0 -0.98289803237E+02 -0.48898361811E+02 -0.36027945300E+03  0.38632396401E+03  0.85982473229E+02 0.  0.
          5    1    3    3  501    0  0.27425725557E+02  0.11243228632E+03  0.72196348126E+02  0.13648293708E+03  0.47000000000E+01 0. -1.
        -11    1    4    4    0    0  0.33383734561E+02 -0.15409527033E+02 -0.10444320844E+02  0.38223174835E+02  0.00000000000E+00 0.  1.
         12    1    4    4    0    0  0.43809414897E+02  0.79019636854E+02 -0.26560398448E+02  0.94174426507E+02  0.00000000000E+00 0. -1.
         -5    1    5    5    0  502 -0.63290717776E+01 -0.12714403433E+03 -0.26516256270E+03  0.29417501130E+03  0.47000000000E+01 0.  1.
         13    1    6    6    0    0 -0.37183856182E+02 -0.18425601204E+02 -0.36012976875E+02  0.54946123099E+02  0.00000000000E+00 0. -1.
        -14    1    6    6    0    0 -0.61105947055E+02 -0.30472760607E+02 -0.32426647613E+03  0.33137784091E+03  0.00000000000E+00 0.  1.
</event>
<event>
12    1  0.1035051E+000  0.3446029E+03  0.7818608E-02  0.1064875E+00
         21   -1    0    0  501  502  0.00000000000E+00  0.00000000000E+00  0.32934341914E+03  0.32934341914E+03  0.00000000000E+00 0.  1.
         21   -1    0    0  502  503 -0.00000000000E+00 -0.00000000000E+00 -0.37505751755E+03  0.37505751755E+03  0.00000000000E+00 0.  1.
         -6    2    1    2    0  503  0.15007821545E+03  0.25778341850E+03  0.46899751240E+02  0.34777973394E+03  0.17255548402E+03 0.  0.
        -24    2    3    3    0    0  0.23525707332E+02  0.55501887470E+02 -0.68028447212E+01  0.10315877425E+03  0.83435817187E+02 0.  0.
          6    2    1    2  501    0 -0.15007821545E+03 -0.25778341850E+03 -0.92613849652E+02  0.35662120275E+03  0.17212087466E+03 0.  0.
         24    2    5    5    0    0 -0.83830365530E+02 -0.59775211684E+02 -0.17807568617E+01  0.12887404397E+03  0.77490270336E+02 0.  0.
          5    1    5    5  501    0 -0.66247849924E+02 -0.19800820682E+03 -0.90833092790E+02  0.22774715878E+03  0.47000000000E+01 0. -1.
        -11    1    6    6    0    0 -0.16147936452E+02 -0.34345545437E+02  0.31460741379E+02  0.49296557599E+02  0.00000000000E+00 0.  1.
         12    1    6    6    0    0 -0.67682429079E+02 -0.25429666248E+02 -0.33241498241E+02  0.79577486369E+02  0.00000000000E+00 0. -1.
         -5    1    3    3    0  503  0.12655250812E+03  0.20228153103E+03  0.53702595962E+02  0.24462095969E+03  0.47000000000E+01 0.  1.
         11    1    4    4    0    0  0.29726977432E+02  0.63900083440E+02  0.20936166439E+02  0.73520316349E+02  0.00000000000E+00 0. -1.
        -12    1    4    4    0    0 -0.62012701002E+01 -0.83981959701E+01 -0.27739011161E+02  0.29638457898E+02  0.00000000000E+00 0.  1.
</event>
<event>
12    1  0.1035051E+000  0.2034343E+03  0.7818608E-02  0.1147023E+00
         21   -1    0    0  503  502  0.00000000000E+00  0.00000000000E+00  0.10257935893E+03  0.10257935893E+03  0.00000000000E+00 0. -1.
         21   -1    0    0  501  503 -0.00000000000E+00 -0.00000000000E+00 -0.40502083355E+03  0.40502083355E+03  0.00000000000E+00 0. -1.
          6    2    1    2  501    0 -0.49276615728E+02  0.95870381222E+02 -0.12909725354E+03  0.24032931976E+03  0.17167634144E+03 0.  0.
         24    2    3    3    0    0  0.68056833903E+01  0.33998481070E+01 -0.13851410477E+02  0.82216328162E+02  0.80683249505E+02 0.  0.
         -6    2    1    2    0  502  0.49276615728E+02 -0.95870381222E+02 -0.17334422108E+03  0.26727087272E+03  0.17252879634E+03 0.  0.
        -24    2    5    5    0    0  0.73022495742E+02 -0.11318068398E+03 -0.17825105491E+03  0.23710996395E+03  0.79407457575E+02 0.  0.
          5    1    3    3  501    0 -0.56082299119E+02  0.92470533115E+02 -0.11524584306E+03  0.15811299160E+03  0.47000000000E+01 0. -1.
        -11    1    4    4    0    0 -0.23963830362E+01 -0.16064103165E+02 -0.43007784535E+02  0.45972465594E+02  0.00000000000E+00 0.  1.
         12    1    4    4    0    0  0.92020664265E+01  0.19463951272E+02  0.29156374058E+02  0.36243862568E+02  0.00000000000E+00 0. -1.
         -5    1    5    5    0  502 -0.23745880014E+02  0.17310302760E+02  0.49068338269E+01  0.30160908764E+02  0.47000000000E+01 0.  1.
         13    1    6    6    0    0  0.14292078116E+02 -0.84774401656E+01 -0.80784022862E+02  0.82475383227E+02  0.00000000000E+00 0. -1.
        -14    1    6    6    0    0  0.58730417626E+02 -0.10470324382E+03 -0.97467032045E+02  0.15463458072E+03  0.00000000000E+00 0.  1.
</event>
<event>
12    1  0.1035051E+000  0.2726338E+03  0.7818608E-02  0.1099915E+00
         21   -1    0    0  503  502  0.00000000000E+00  0.00000000000E+00  0.13242472739E+03  0.13242472739E+03  0.00000000000E+00 0. -1.
         21   -1    0    0  501  503 -0.00000000000E+00 -0.00000000000E+00 -0.63639238065E+03  0.63639238065E+03  0.00000000000E+00 0. -1.
          6    2    1    2  501    0  0.19153185250E+03  0.89322086684E+02 -0.38611548617E+03  0.47266725310E+03  0.17223901359E+03 0.  0.
         24    2    3    3    0    0  0.16225297972E+03  0.48071658142E+01 -0.23264474268E+03  0.29497261799E+03  0.80846340631E+02 0.  0.
         -6    2    1    2    0  502 -0.19153185250E+03 -0.89322086684E+02 -0.11785216709E+03  0.29614985493E+03  0.17074166919E+03 0.  0.
        -24    2    5    5    0    0 -0.32304257385E+02 -0.66681010739E+02 -0.66440313057E+02  0.12723770587E+03  0.79279230308E+02 0.  0.
          5    1    3    3  501    0  0.29278872777E+02  0.84514920870E+02 -0.15347074349E+03  0.17769463512E+03  0.47000000000E+01 0. -1.
        -11    1    4    4    0    0  0.74172464347E+02  0.11315776535E+01 -0.42763097401E+02  0.85624280637E+02  0.00000000000E+00 0.  1.
         12    1    4    4    0    0  0.88080515375E+02  0.36755881607E+01 -0.18988164528E+03  0.20934833735E+03  0.00000000000E+00 0. -1.
         -5    1    5    5    0  502 -0.15922759511E+03 -0.22641075945E+02 -0.51411854030E+02  0.16891214906E+03  0.47000000000E+01 0.  1.
         13    1    6    6    0    0 -0.35780065467E+02  0.22558748144E+01 -0.78526679743E+01  0.36701041543E+02  0.00000000000E+00 0. -1.
        -14    1    6    6    0    0  0.34758080817E+01 -0.68936885554E+02 -0.58587645082E+02  0.90536664330E+02  0.00000000000E+00 0.  1.
</event>
<event>
12    1  0.1149320E+000  0.3094194E+03  0.7818608E-02  0.1080753E+00
         21   -1    0    0  501  502  0.00000000000E+00  0.00000000000E+00  0.24738952358E+03  0.24738952358E+03  0.00000000000E+00 0.  1.
         21   -1    0    0  502  503 -0.00000000000E+00 -0.00000000000E+00 -0.48510972002E+03  0.48510972002E+03  0.00000000000E+00 0.  1.
         -6    2    1    2    0  503 -0.78071048616E+02 -0.24500458122E+03  0.46799546496E+02  0.31293855238E+03  0.17209882790E+03 0.  0.
        -24    2    3    3    0    0  0.74469249907E+01 -0.19571164740E+03  0.24894938307E+02  0.21172087115E+03  0.76468710634E+02 0.  0.
          6    2    1    2  501    0  0.78071048616E+02  0.24500458122E+03 -0.28451974294E+03  0.41956069122E+03  0.17016861064E+03 0.  0.
         24    2    5    5    0    0  0.42746692227E+02  0.96931718154E+02 -0.21166823934E+03  0.25073292541E+03  0.82707428089E+02 0.  0.
          5    1    5    5  501    0  0.35324356389E+02  0.14807286306E+03 -0.72851503597E+02  0.16882776580E+03  0.47000000000E+01 0. -1.
        -13    1    6    6    0    0  0.20117860341E+02 -0.84424744845E+01 -0.15023186340E+02  0.26489616984E+02  0.00000000000E+00 0.  1.
         14    1    6    6    0    0  0.22628831885E+02  0.10537419264E+03 -0.19664505300E+03  0.22424330843E+03  0.00000000000E+00 0. -1.
         -5    1    3    3    0  503 -0.85517973607E+02 -0.49292933816E+02  0.21904608189E+02  0.10121768123E+03  0.47000000000E+01 0.  1.
         13    1    4    4    0    0 -0.26669581060E+02 -0.13525235661E+03  0.33219347909E+02  0.14180265018E+03  0.00000000000E+00 0. -1.
        -14    1    4    4    0    0  0.34116506051E+02 -0.60459290788E+02 -0.83244096019E+01  0.69918220965E+02  0.00000000000E+00 0.  1.
</event>
<event>
12    1  0.1035051E+000  0.3608419E+03  0.7818608E-02  0.1058538E+00
         21   -1    0    0  503  502  0.00000000000E+00  0.00000000000E+00  0.10492877308E+04  0.10492877308E+04  0.00000000000E+00 0.  1.
         21   -1    0    0  501  503 -0.00000000000E+00 -0.00000000000E+00 -0.12359166068E+03  0.12359166068E+03  0.00000000000E+00 0.  1.
          6    2    1    2  501    0 -0.19756315133E+03 -0.24764750348E+03  0.49803467965E+03  0.61332495279E+03  0.16663874351E+03 0.  0.
         24    2    3    3    0    0 -0.99120337736E+02 -0.82249016471E+02  0.30564035098E+03  0.34113877614E+03  0.79811643126E+02 0.  0.
         -6    2    1    2    0  502  0.19756315133E+03  0.24764750348E+03  0.42766139050E+03  0.55955443873E+03  0.17276116528E+03 0.  0.
        -24    2    5    5    0    0  0.14222987241E+03  0.25623934292E+03  0.33439397654E+03  0.45066691893E+03  0.73439790347E+02 0.  0.
          5    1    3    3  501    0 -0.98442813594E+02 -0.16539848701E+03  0.19239432867E+03  0.27218617665E+03  0.47000000000E+01 0. -1.
        -13    1    4    4    0    0 -0.55467483273E+01  0.63737115578E+01  0.86484017848E+02  0.86895776418E+02  0.00000000000E+00 0.  1.
         14    1    4    4    0    0 -0.93573589408E+02 -0.88622728028E+02  0.21915633313E+03  0.25424299972E+03  0.00000000000E+00 0. -1.
         -5    1    5    5    0  502  0.55333278919E+02 -0.85918394342E+01  0.93267413963E+02  0.10888751980E+03  0.47000000000E+01 0.  1.
         13    1    6    6    0    0  0.10302285212E+03  0.22888314053E+03  0.30306234980E+03  0.39350729084E+03  0.00000000000E+00 0. -1.
        -14    1    6    6    0    0  0.39207020289E+02  0.27356202385E+02  0.31331626738E+02  0.57159628086E+02  0.00000000000E+00 0.  1.
</event>
<event>
12    1  0.1035051E+000  0.1986345E+03  0.7818608E-02  0.1150898E+00
         21   -1    0    0  503  502  0.00000000000E+00  0.00000000000E+00  0.33324062077E+03  0.33324062077E+03  0.00000000000E+00 0.  1.
         21   -1    0    0  501  503 -0.00000000000E+00 -0.00000000000E+00 -0.24533213868E+03  0.24533213868E+03  0.00000000000E+00 0.  1.
          6    2    1    2  501    0 -0.42200344678E+02 -0.90533091302E+02 -0.16413214390E+03  0.25766758887E+03  0.17168609723E+03 0.  0.
         24    2    3    3    0    0 -0.81879919618E+02 -0.32168526730E+02 -0.63362576513E+02  0.13455184342E+03  0.79688437792E+02 0.  0.
         -6    2    1    2    0  502  0.42200344678E+02  0.90533091302E+02  0.25204062598E+03  0.32090517058E+03  0.17169316132E+03 0.  0.
        -24    2    5    5    0    0 -0.29005705588E+02  0.44526205911E+02  0.68687067982E+02  0.11884688114E+03  0.81134172084E+02 0.  0.
          5    1    3    3  501    0  0.39679574941E+02 -0.58364564572E+02 -0.10076956739E+03  0.12311574544E+03  0.47000000000E+01 0. -1.
        -11    1    4    4    0    0  0.35850022015E+01 -0.24058995763E+02 -0.37849970043E+02  0.44992307678E+02  0.00000000000E+00 0.  1.
         12    1    4    4    0    0 -0.85464921820E+02 -0.81095309674E+01 -0.25512606471E+02  0.89559535747E+02  0.00000000000E+00 0. -1.
         -5    1    5    5    0  502  0.71206050265E+02  0.46006885391E+02  0.18335355800E+03  0.20205828944E+03  0.47000000000E+01 0.  1.
         11    1    6    6    0    0  0.25541253523E+02  0.30790566010E+02  0.35823762160E+02  0.53700619382E+02  0.00000000000E+00 0. -1.
        -12    1    6    6    0    0 -0.54546959111E+02  0.13735639902E+02  0.32863305821E+02  0.65146261759E+02  0.00000000000E+00 0.  1.
</event>
<event>
12    1  0.1035051E+000  0.2734090E+03  0.7818608E-02  0.1099348E+00
         21   -1    0    0  501  502  0.00000000000E+00  0.00000000000E+00  0.73699402329E+03  0.73699402329E+03  0.00000000000E+00 0.  1.
         21   -1    0    0  502  503 -0.00000000000E+00 -0.00000000000E+00 -0.12881770996E+03  0.12881770996E+03  0.00000000000E+00 0.  1.
         -6    2    1    2    0  503 -0.20704092111E+03 -0.47500959147E+02  0.10442837754E+03  0.29264991962E+03  0.17209417562E+03 0.  0.
        -24    2    3    3    0    0 -0.12964475514E+03  0.13661962291E+02  0.39574915644E+01  0.15176855679E+03  0.77611992241E+02 0.  0.
          6    2    1    2  501    0  0.20704092111E+03  0.47500959147E+02  0.50374793580E+03  0.57316181363E+03  0.17213424310E+03 0.  0.
         24    2    5    5    0    0  0.21749542981E+03  0.53655659192E+02  0.50509759669E+03  0.56008172689E+03  0.91568372597E+02 0.  0.
          5    1    5    5  501    0 -0.10454508693E+02 -0.61547000451E+01 -0.13496608926E+01  0.13080086742E+02  0.47000000000E+01 0. -1.
        -11    1    6    6    0    0 -0.41703734741E+01 -0.78269301777E+00 -0.14492687018E+01  0.44838602836E+01  0.00000000000E+00 0.  1.
         12    1    6    6    0    0  0.22166580328E+03  0.54438352210E+02  0.50654686540E+03  0.55559786661E+03  0.00000000000E+00 0. -1.
         -5    1    3    3    0  503 -0.77396165970E+02 -0.61162921438E+02  0.10047088597E+03  0.14088136283E+03  0.47000000000E+01 0.  1.
         11    1    4    4    0    0 -0.26899818769E+01  0.20569449618E+02  0.12704025665E+02  0.24325511879E+02  0.00000000000E+00 0. -1.
        -12    1    4    4    0    0 -0.12695477327E+03 -0.69074873269E+01 -0.87465341001E+01  0.12744304491E+03  0.00000000000E+00 0.  1.
</event>
<event>
12    1  0.1035051E+000  0.2102740E+03  0.7818608E-02  0.1142022E+00
         21   -1    0    0  501  502  0.00000000000E+00  0.00000000000E+00  0.12050945920E+04  0.12050945920E+04  0.00000000000E+00 0.  1.
         21   -1    0    0  502  503 -0.00000000000E+00 -0.00000000000E+00 -0.18809411883E+03  0.18809411883E+03  0.00000000000E+00 0.  1.
         -6    2    1    2    0  503  0.82226788999E+02  0.88921351448E+02  0.11338884410E+04  0.11526103394E+04  0.16774786523E+03 0.  0.
        -24    2    3    3    0    0  0.10227546330E+02  0.44000987022E+02  0.88222191215E+03  0.88697927603E+03  0.79850136297E+02 0.  0.
          6    2    1    2  501    0 -0.82226788999E+02 -0.88921351448E+02 -0.11688796783E+03  0.24057837143E+03  0.17189212956E+03 0.  0.
         24    2    5    5    0    0 -0.12300540636E+03 -0.71577822294E+02 -0.10539313591E+03  0.19455756311E+03  0.80568093112E+02 0.  0.
          5    1    5    5  501    0  0.40778617365E+02 -0.17343529155E+02 -0.11494831917E+02  0.46020808321E+02  0.47000000000E+01 0. -1.
        -13    1    6    6    0    0 -0.11255860571E+03 -0.60245035801E+02 -0.50082005043E+02  0.13713902176E+03  0.00000000000E+00 0.  1.
         14    1    6    6    0    0 -0.10446800650E+02 -0.11332786493E+02 -0.55311130869E+02  0.57418541357E+02  0.00000000000E+00 0. -1.
         -5    1    3    3    0  503  0.71999242669E+02  0.44920364427E+02  0.25166652888E+03  0.26563106340E+03  0.47000000000E+01 0.  1.
         11    1    4    4    0    0  0.41026612517E+02  0.55497523002E+01  0.47124660587E+03  0.47306167276E+03  0.00000000000E+00 0. -1.
        -12    1    4    4    0    0 -0.30799066187E+02  0.38451234721E+02  0.41097530627E+03  0.41391760327E+03  0.00000000000E+00 0.  1.
</event>
<event>
12    1  0.1035051E+000  0.1905997E+03  0.7818608E-02  0.1157976E+00
         21   -1    0    0  501  502  0.00000000000E+00  0.00000000000E+00  0.16837421903E+03  0.16837421903E+03  0.00000000000E+00 0. -1.
         21   -1    0    0  502  503 -0.00000000000E+00 -0.00000000000E+00 -0.22948487414E+03  0.22948487414E+03  0.00000000000E+00 0. -1.
         -6    2    1    2    0  503 -0.79409732880E+02  0.18647635874E+02  0.18557957139E+02  0.19150101930E+03  0.17226317836E+03 0.  0.
        -24    2    3    3    0    0 -0.54818613016E+02  0.66292163750E+02  0.51935842993E+02  0.12816937257E+03  0.79563339366E+02 0.  0.
          6    2    1    2  501    0  0.79409732880E+02 -0.18647635874E+02 -0.79668612249E+02  0.20635807387E+03  0.17199688041E+03 0.  0.
         24    2    5    5    0    0  0.74064018935E+02 -0.76394989824E+02 -0.64740971418E+02  0.14628929656E+03  0.76729991124E+02 0.  0.
          5    1    5    5  501    0  0.53457139457E+01  0.57747353950E+02 -0.14927640831E+02  0.60068777302E+02  0.47000000000E+01 0. -1.
        -11    1    6    6    0    0  0.89554446826E+02 -0.59651903782E+02 -0.59213692769E+02  0.12281942022E+03  0.00000000000E+00 0.  1.
         12    1    6    6    0    0 -0.15490427891E+02 -0.16743086042E+02 -0.55272786490E+01  0.23469876346E+02  0.00000000000E+00 0. -1.
         -5    1    3    3    0  503 -0.24591119864E+02 -0.47644527876E+02 -0.33377885855E+02  0.63331646724E+02  0.47000000000E+01 0.  1.
         13    1    4    4    0    0  0.25130150784E+01  0.55044073394E+02  0.93918185270E+01  0.55896077822E+02  0.00000000000E+00 0. -1.
        -14    1    4    4    0    0 -0.57331628095E+02  0.11248090355E+02  0.42544024466E+02  0.72273294753E+02  0.00000000000E+00 0.  1.
</event>
<event>
12    1  0.1035051E+000  0.1820742E+03  0.7818608E-02  0.1166239E+00
         21   -1    0    0  503  502  0.00000000000E+00  0.00000000000E+00  0.86130021297E+02  0.86130021297E+02  0.00000000000E+00 0. -1.
         21   -1    0    0  501  503 -0.00000000000E+00 -0.00000000000E+00 -0.42055330371E+03  0.42055330371E+03  0.00000000000E+00 0. -1.
          6    2    1    2  501    0 -0.50970953885E+02 -0.22452153379E+02 -0.90389628619E+02  0.20327641767E+03  0.17334612684E+03 0.  0.
         24    2    3    3    0    0 -0.41387369139E+02  0.16812212229E+02  0.15426302492E+02  0.89906947445E+02  0.76483485708E+02 0.  0.
         -6    2    1    2    0  502  0.50970953885E+02  0.22452153379E+02 -0.24403365379E+03  0.30340690733E+03  0.17146775178E+03 0.  0.
        -24    2    5    5    0    0  0.42699706249E+02  0.79938324009E+02 -0.14209678785E+03  0.18599188279E+03  0.78664367953E+02 0.  0.
          5    1    3    3  501    0 -0.95835847456E+01 -0.39264365608E+02 -0.10581593111E+03  0.11336947023E+03  0.47000000000E+01 0. -1.
        -11    1    4    4    0    0  0.77329683352E+01  0.29567490531E+02 -0.11258177059E+02  0.32569646087E+02  0.00000000000E+00 0.  1.
         12    1    4    4    0    0 -0.49120337474E+02 -0.12755278302E+02  0.26684479551E+02  0.57337301358E+02  0.00000000000E+00 0. -1.
         -5    1    5    5    0  502  0.82712476352E+01 -0.57486170630E+02 -0.10193686594E+03  0.11741502454E+03  0.47000000000E+01 0.  1.
         11    1    6    6    0    0 -0.18570668055E+02  0.45500969870E+02 -0.67553552360E+02  0.83538556413E+02  0.00000000000E+00 0. -1.
        -12    1    6    6    0    0  0.61270374304E+02  0.34437354139E+02 -0.74543235494E+02  0.10245332638E+03  0.00000000000E+00 0.  1.
</event>
<event>
12    1  0.1035051E+000  0.1794622E+03  0.7818608E-02  0.1169070E+00
         21   -1    0    0  501  502  0.00000000000E+00  0.00000000000E+00  0.41309779855E+02  0.41309779855E+02  0.00000000000E+00 0.  1.
         21   -1    0    0  502  503 -0.00000000000E+00 -0.00000000000E+00 -0.98157335406E+03  0.98157335406E+03  0.00000000000E+00 0.  1.
         -6    2    1    2    0  503  0.84103277702E+01 -0.36522300898E+02 -0.22759098497E+03  0.28796211521E+03  0.17239463821E+03 0.  0.
        -24    2    3    3    0    0  0.35263190773E+02 -0.32433387269E+02 -0.24021172348E+03  0.25764432330E+03  0.79896858484E+02 0.  0.
          6    2    1    2  501    0 -0.84103277702E+01  0.36522300898E+02 -0.71267258924E+03  0.73492101871E+03  0.17550519139E+03 0.  0.
         24    2    5    5    0    0 -0.14818816604E+02  0.19231357696E+02 -0.15606749015E+03  0.17799070729E+03  0.82062098156E+02 0.  0.
          5    1    5    5  501    0  0.64084888336E+01  0.17290943202E+02 -0.55660509909E+03  0.55693031142E+03  0.47000000000E+01 0. -1.
        -13    1    6    6    0    0  0.42500249927E+01  0.13370477908E+01 -0.15135358187E+03  0.15141914395E+03  0.00000000000E+00 0.  1.
         14    1    6    6    0    0 -0.19068841597E+02  0.17894309905E+02 -0.47139082786E+01  0.26571563335E+02  0.00000000000E+00 0. -1.
         -5    1    3    3    0  503 -0.26852863003E+02 -0.40889136295E+01  0.12620738513E+02  0.30317791917E+02  0.47000000000E+01 0.  1.
         11    1    4    4    0    0  0.24343031546E+02  0.24369418372E+02 -0.73193666299E+02  0.80893538202E+02  0.00000000000E+00 0. -1.
        -12    1    4    4    0    0  0.10920159227E+02 -0.56802805641E+02 -0.16701805718E+03  0.17675078510E+03  0.00000000000E+00 0.  1.
</event>
<event>
12    1  0.1035051E+000  0.5580447E+03  0.7818608E-02  0.9996826E-01
         21   -1    0    0  501  502  0.00000000000E+00  0.00000000000E+00  0.25426098068E+03  0.25426098068E+03  0.00000000000E+00 0.  1.
         21   -1    0    0  502  503 -0.00000000000E+00 -0.00000000000E+00 -0.12441587245E+04  0.12441587245E+04  0.00000000000E+00 0. -1.
         -6    2    1    2    0  503 -0.34654863265E+03 -0.40118093208E+03 -0.59127935078E+03  0.81262777922E+03  0.17236746167E+03 0.  0.
        -24    2    3    3    0    0 -0.25109645612E+03 -0.19274125985E+03 -0.31948610491E+03  0.45702705725E+03  0.81263376165E+02 0.  0.
          6    2    1    2  501    0  0.34654863265E+03  0.40118093208E+03 -0.39861839305E+03  0.68579192597E+03  0.17427520589E+03 0.  0.
         24    2    5    5    0    0  0.28235799206E+03  0.39120921300E+03 -0.32402981102E+03  0.58676960480E+03  0.80824295023E+02 0.  0.
          5    1    5    5  501    0  0.64190640598E+02  0.99717190768E+01 -0.74588582026E+02  0.99022321172E+02  0.47000000000E+01 0. -1.
        -11    1    6    6    0    0  0.16545908646E+03  0.22940366196E+03 -0.23696855395E+03  0.36899436984E+03  0.00000000000E+00 0.  1.
         12    1    6    6    0    0  0.11689890560E+03  0.16180555104E+03 -0.87061257077E+02  0.21777523496E+03  0.00000000000E+00 0. -1.
         -5    1    3    3    0  503 -0.95452176535E+02 -0.20843967222E+03 -0.27179324587E+03  0.35560072196E+03  0.47000000000E+01 0.  1.
         11    1    4    4    0    0 -0.13722382199E+02  0.30013761383E+01 -0.81893682619E+00  0.14070632163E+02  0.00000000000E+00 0. -1.
        -12    1    4    4    0    0 -0.23737407392E+03 -0.19574263599E+03 -0.31866716808E+03  0.44295642509E+03  0.00000000000E+00 0.  1.
</event>
<event>
12    1  0.1035051E+000  0.1940715E+03  0.7818608E-02  0.1154877E+00
         21   -1    0    0  503  502  0.00000000000E+00  0.00000000000E+00  0.39873598740E+03  0.39873598740E+03  0.00000000000E+00 0.  1.
         21   -1    0    0  501  503 -0.00000000000E+00 -0.00000000000E+00 -0.15450185386E+03  0.15450185386E+03  0.00000000000E+00 0.  1.
          6    2    1    2  501    0 -0.82720575082E+02 -0.35123146745E+02  0.29471276138E+03  0.35287302514E+03  0.17200997405E+03 0.  0.
         24    2    3    3    0    0 -0.49662149028E+02 -0.24749275811E+02  0.60206074052E+02  0.11577398859E+03  0.81853462864E+02 0.  0.
         -6    2    1    2    0  502  0.82720575082E+02  0.35123146745E+02 -0.50478627845E+02  0.20036481612E+03  0.17181862149E+03 0.  0.
        -24    2    5    5    0    0  0.10082321433E+03 -0.21789924313E+02 -0.16328478579E+02  0.13140739520E+03  0.79756899077E+02 0.  0.
          5    1    3    3  501    0 -0.33058426054E+02 -0.10373870934E+02  0.23450668733E+03  0.23709903655E+03  0.47000000000E+01 0. -1.
        -11    1    4    4    0    0  0.83583604531E+01 -0.33618568542E+02  0.41740494897E+02  0.54243333733E+02  0.00000000000E+00 0.  1.
         12    1    4    4    0    0 -0.58020509481E+02  0.88692927313E+01  0.18465579156E+02  0.61530654860E+02  0.00000000000E+00 0. -1.
         -5    1    5    5    0  502 -0.18102639249E+02  0.56913071057E+02 -0.34150149265E+02  0.68957420919E+02  0.47000000000E+01 0.  1.
         13    1    6    6    0    0  0.32536353678E+02 -0.37007398645E+02  0.19269088221E+02  0.52909919920E+02  0.00000000000E+00 0. -1.
        -14    1    6    6    0    0  0.68286860652E+02  0.15217474332E+02 -0.35597566800E+02  0.78497475277E+02  0.00000000000E+00 0.  1.
</event>
<event>
12    1  0.1035051E+000  0.2386197E+03  0.7818608E-02  0.1120799E+00
         21   -1    0    0  503  502  0.00000000000E+00  0.00000000000E+00  0.13124633371E+04  0.13124633371E+04  0.00000000000E+00 0. -1.
         21   -1    0    0  501  503 -0.00000000000E+00 -0.00000000000E+00 -0.45301026150E+02  0.45301026150E+02  0.00000000000E+00 0. -1.
          6    2    1    2  501    0  0.20495891836E+02 -0.16351916759E+03  0.49002720471E+03  0.54482011671E+03  0.17188280447E+03 0.  0.
         24    2    3    3    0    0  0.47899859609E+02 -0.31594370712E+02  0.16583180763E+03  0.19370777719E+03  0.82036051285E+02 0.  0.
         -6    2    1    2    0  502 -0.20495891836E+02  0.16351916759E+03  0.77713510621E+03  0.81294424650E+03  0.17257107193E+03 0.  0.
        -24    2    5    5    0    0  0.35733891724E+02  0.13844832395E+03  0.42635043688E+03  0.45676688900E+03  0.80102724281E+02 0.  0.
          5    1    3    3  501    0 -0.27403967773E+02 -0.13192479688E+03  0.32419539708E+03  0.35111233953E+03  0.47000000000E+01 0. -1.
        -11    1    4    4    0    0 -0.21076593205E+02 -0.56462615286E-01  0.18694107169E+02  0.28172603927E+02  0.00000000000E+00 0.  1.
         12    1    4    4    0    0  0.68976452814E+02 -0.31537908097E+02  0.14713770046E+03  0.16553517326E+03  0.00000000000E+00 0. -1.
         -5    1    5    5    0  502 -0.56229783560E+02  0.25070843638E+02  0.35078466933E+03  0.35617735750E+03  0.47000000000E+01 0.  1.
         11    1    6    6    0    0 -0.81341217573E+01 -0.75412652561E+01  0.22035947334E+02  0.24670176191E+02  0.00000000000E+00 0. -1.
        -12    1    6    6    0    0  0.43868013481E+02  0.14598958921E+03  0.40431448954E+03  0.43209671281E+03  0.00000000000E+00 0.  1.
</event>
<event>
12    1  0.1035051E+000  0.4818885E+03  0.7818608E-02  0.1018659E+00
         21   -1    0    0  503  502  0.00000000000E+00  0.00000000000E+00  0.85491799859E+03  0.85491799859E+03  0.00000000000E+00 0.  1.
         21   -1    0    0  501  503 -0.00000000000E+00 -0.00000000000E+00 -0.51290248551E+03  0.51290248551E+03  0.00000000000E+00 0.  1.
          6    2    1    2  501    0 -0.37204204171E+03  0.25348133571E+03  0.64035403103E+03  0.80105564978E+03  0.17020223451E+03 0.  0.
         24    2    3    3    0    0 -0.18106172818E+03  0.18908586584E+03  0.42875482586E+03  0.50879451598E+03  0.80649517846E+02 0.  0.
         -6    2    1    2    0  502  0.37204204171E+03 -0.25348133571E+03 -0.29833851796E+03  0.56676483432E+03  0.17189659034E+03 0.  0.
        -24    2    5    5    0    0  0.19388001438E+03 -0.75077818524E+02 -0.93852067887E+02  0.24210143757E+03  0.81109534682E+02 0.  0.
          5    1    3    3  501    0 -0.19098031354E+03  0.64395469868E+02  0.21159920518E+03  0.29226113380E+03  0.47000000000E+01 0. -1.
        -13    1    4    4    0    0 -0.17692913496E+03  0.16065848518E+03  0.40974472714E+03  0.47434777229E+03  0.00000000000E+00 0.  1.
         14    1    4    4    0    0 -0.41325932151E+01  0.28427380658E+02  0.19010098717E+02  0.34446743692E+02  0.00000000000E+00 0. -1.
         -5    1    5    5    0  502  0.17816202733E+03 -0.17840351719E+03 -0.20448645007E+03  0.32466339675E+03  0.47000000000E+01 0.  1.
         11    1    6    6    0    0  0.14958804218E+03 -0.78030232352E+02 -0.10173595070E+03  0.19701650486E+03  0.00000000000E+00 0. -1.
        -12    1    6    6    0    0  0.44291972201E+02  0.29524138281E+01  0.78838828136E+01  0.45084932706E+02  0.00000000000E+00 0.  1.
</event>
<event>
12    1  0.1035051E+000  0.2161027E+03  0.7818608E-02  0.1136856E+00
         21   -1    0    0  503  502  0.00000000000E+00  0.00000000000E+00  0.55828921650E+02  0.55828921650E+02  0.00000000000E+00 0. -1.
         21   -1    0    0  501  503 -0.00000000000E+00 -0.00000000000E+00 -0.12804870911E+04  0.12804870911E+04  0.00000000000E+00 0.  1.
          6    2    1    2  501    0  0.65604863987E+02 -0.11342112997E+03 -0.10059103496E+04  0.10288246045E+04  0.17162775003E+03 0.  0.
         24    2    3    3    0    0 -0.27118405190E+02 -0.27498856792E+02 -0.46138192896E+03  0.46979550641E+03  0.79642566809E+02 0.  0.
         -6    2    1    2    0  502 -0.65604863987E+02  0.11342112997E+03 -0.21874781988E+03  0.30749140824E+03  0.17184878974E+03 0.  0.
        -24    2    5    5    0    0  0.17469897382E+02  0.18108776469E+02 -0.12422537182E+03  0.14955963850E+03  0.79391544666E+02 0.  0.
          5    1    3    3  501    0  0.92723269177E+02 -0.85922273173E+02 -0.54452842062E+03  0.55902909811E+03  0.47000000000E+01 0. -1.
        -11    1    4    4    0    0 -0.80488533904E+01  0.26684563894E+02 -0.21540197286E+03  0.21719774378E+03  0.00000000000E+00 0.  1.
         12    1    4    4    0    0 -0.19069551799E+02 -0.54183420686E+02 -0.24597995610E+03  0.25259776263E+03  0.00000000000E+00 0. -1.
         -5    1    5    5    0  502 -0.83074761369E+02  0.95312353496E+02 -0.94522448061E+02  0.15793176974E+03  0.47000000000E+01 0.  1.
         11    1    6    6    0    0  0.22391970869E+02  0.68536742787E+01  0.12820835148E+01  0.23452440143E+02  0.00000000000E+00 0. -1.
        -12    1    6    6    0    0 -0.49220734869E+01  0.11255102191E+02 -0.12550745534E+03  0.12610719836E+03  0.00000000000E+00 0.  1.
</event>
<event>
12    1  0.1035051E+000  0.1839217E+03  0.7818608E-02  0.1164382E+00
         21   -1    0    0  503  502  0.00000000000E+00  0.00000000000E+00  0.10016431295E+04  0.10016431295E+04  0.00000000000E+00 0. -1.
         21   -1    0    0  501  503 -0.00000000000E+00 -0.00000000000E+00 -0.34161371657E+02  0.34161371657E+02  0.00000000000E+00 0. -1.
          6    2    1    2  501    0 -0.57136453986E+02 -0.30678657216E+02  0.41465473763E+03  0.45361408088E+03  0.17210876954E+03 0.  0.
         24    2    3    3    0    0 -0.29093604369E+02  0.29857723392E+02  0.10884146347E+03  0.14057270432E+03  0.78589436733E+02 0.  0.
         -6    2    1    2    0  502  0.57136453986E+02  0.30678657216E+02  0.55282702019E+03  0.58219042025E+03  0.17065232726E+03 0.  0.
        -24    2    5    5    0    0  0.15112322350E+02  0.57439343796E+02  0.18123618061E+03  0.20724508551E+03  0.81094462224E+02 0.  0.
          5    1    3    3  501    0 -0.28042849618E+02 -0.60536380608E+02  0.30581327415E+03  0.31304137656E+03  0.47000000000E+01 0. -1.
        -11    1    4    4    0    0 -0.28963119552E+01 -0.26406738176E+02  0.27219620498E+02  0.38034355313E+02  0.00000000000E+00 0.  1.
         12    1    4    4    0    0 -0.26197292414E+02  0.56264461568E+02  0.81621842976E+02  0.10253834900E+03  0.00000000000E+00 0. -1.
         -5    1    5    5    0  502  0.42024131636E+02 -0.26760686580E+02  0.37159083958E+03  0.37494533475E+03  0.47000000000E+01 0.  1.
         13    1    6    6    0    0 -0.13024172502E+02  0.43557403195E+02  0.34177719459E+02  0.56876998426E+02  0.00000000000E+00 0. -1.
        -14    1    6    6    0    0  0.28136494852E+02  0.13881940601E+02  0.14705846115E+03  0.15036808708E+03  0.00000000000E+00 0.  1.
</event>
<event>
12    1  0.1035051E+000  0.1976932E+03  0.7818608E-02  0.1152862E+00
         21   -1    0    0  503  502  0.00000000000E+00  0.00000000000E+00  0.24413021333E+03  0.24413021333E+03  0.00000000000E+00 0.  1.
         21   -1    0    0  501  503 -0.00000000000E+00 -0.00000000000E+00 -0.15793149035E+03  0.15793149035E+03  0.00000000000E+00 0. -1.
          6    2    1    2  501    0  0.65319947971E+02 -0.53923340349E+02  0.65930725482E+02  0.20333223369E+03  0.17269254315E+03 0.  0.
         24    2    3    3    0    0 -0.20695236399E+02 -0.11326972777E+02 -0.51515469711E+01  0.83800472519E+02  0.80245795132E+02 0.  0.
         -6    2    1    2    0  502 -0.65319947971E+02  0.53923340349E+02  0.20267997498E+02  0.19872946999E+03  0.17862863232E+03 0.  0.
        -24    2    5    5    0    0 -0.78977724728E+02  0.53403255131E+02 -0.44863903631E+02  0.13201320586E+03  0.79531930770E+02 0.  0.
          5    1    3    3  501    0  0.86015184370E+02 -0.42596367572E+02  0.71082272453E+02  0.11953176118E+03  0.47000000000E+01 0. -1.
        -13    1    4    4    0    0 -0.44099375448E+02 -0.55170557856E+01  0.20194199362E+02  0.48815965701E+02  0.00000000000E+00 0.  1.
         14    1    4    4    0    0  0.23404139049E+02 -0.58099169909E+01 -0.25345746333E+02  0.34984506818E+02  0.00000000000E+00 0. -1.
         -5    1    5    5    0  502  0.13657776757E+02  0.52008521766E+00  0.65131901129E+02  0.66716264128E+02  0.47000000000E+01 0.  1.
         13    1    6    6    0    0 -0.31243361048E+02  0.31482005653E+02 -0.62469547615E+02  0.76614023969E+02  0.00000000000E+00 0. -1.
        -14    1    6    6    0    0 -0.47734363680E+02  0.21921249478E+02  0.17605643984E+02  0.55399181896E+02  0.00000000000E+00 0.  1.
</event>
<event>
12    1  0.1035051E+000  0.2249891E+03  0.7818608E-02  0.1130804E+00
         21   -1    0    0  501  502  0.00000000000E+00  0.00000000000E+00  0.11534071670E+03  0.11534071670E+03  0.00000000000E+00 0. -1.
         21   -1    0    0  502  503 -0.00000000000E+00 -0.00000000000E+00 -0.44156027778E+03  0.44156027778E+03  0.00000000000E+00 0. -1.
         -6    2    1    2    0  503 -0.89524153264E+02 -0.11518386833E+03 -0.12464432729E+03  0.25720865032E+03  0.17128392783E+03 0.  0.
        -24    2    3    3    0    0 -0.49047628316E+02 -0.99871615574E+02 -0.15296169194E+03  0.20527814583E+03  0.79761071408E+02 0.  0.
          6    2    1    2  501    0  0.89524153264E+02  0.11518386833E+03 -0.20157523378E+03  0.29969234416E+03  0.16703601029E+03 0.  0.
         24    2    5    5    0    0  0.11231904536E+02  0.74540035365E+02 -0.17608455391E+03  0.20774963303E+03  0.80447295467E+02 0.  0.
          5    1    5    5  501    0  0.78292248729E+02  0.40643832966E+02 -0.25490679872E+02  0.91942711127E+02  0.47000000000E+01 0. -1.
        -11    1    6    6    0    0  0.26382030736E+02  0.13908012589E+02 -0.12041913654E+03  0.12405729646E+03  0.00000000000E+00 0.  1.
         12    1    6    6    0    0 -0.15150126201E+02  0.60632022777E+02 -0.55665417367E+02  0.83692336570E+02  0.00000000000E+00 0. -1.
         -5    1    3    3    0  503 -0.40476524948E+02 -0.15312252757E+02  0.28317364648E+02  0.51930504494E+02  0.47000000000E+01 0.  1.
         11    1    4    4    0    0 -0.69273756636E+02 -0.75437564184E+02 -0.13274803424E+03  0.16766550046E+03  0.00000000000E+00 0. -1.
        -12    1    4    4    0    0  0.20226128321E+02 -0.24434051389E+02 -0.20213657700E+02  0.37612645371E+02  0.00000000000E+00 0.  1.
</event>
<event>
12    1  0.1035051E+000  0.3656782E+03  0.7818608E-02  0.1056400E+00
         21   -1    0    0  501  502  0.00000000000E+00  0.00000000000E+00  0.32776595997E+03  0.32776595997E+03  0.00000000000E+00 0. -1.
         21   -1    0    0  502  503 -0.00000000000E+00 -0.00000000000E+00 -0.87204324970E+03  0.87204324970E+03  0.00000000000E+00 0. -1.
         -6    2    1    2    0  503  0.76025731441E+02  0.31315179665E+03  0.16578910495E+03  0.40111350939E+03  0.17193621059E+03 0.  0.
        -24    2    3    3    0    0  0.89117780598E+02  0.11155565824E+03  0.73593221919E+02  0.17899962955E+03  0.78982664943E+02 0.  0.
          6    2    1    2  501    0 -0.76025731441E+02 -0.31315179665E+03 -0.71006639469E+03  0.79869570028E+03  0.17284842258E+03 0.  0.
         24    2    5    5    0    0  0.24146047775E+02 -0.13802783808E+03 -0.33209303595E+03  0.37022313857E+03  0.84526162226E+02 0.  0.
          5    1    5    5  501    0 -0.10017177922E+03 -0.17512395857E+03 -0.37797335874E+03  0.42847256170E+03  0.47000000000E+01 0. -1.
        -13    1    6    6    0    0  0.16585851791E+02 -0.14359008206E+03 -0.33046885202E+03  0.36069774646E+03  0.00000000000E+00 0.  1.
         14    1    6    6    0    0  0.75601959841E+01  0.55622439866E+01 -0.16241839330E+01  0.95253921144E+01  0.00000000000E+00 0. -1.
         -5    1    3    3    0  503 -0.13092049157E+02  0.20159613840E+03  0.92195883033E+02  0.22211387984E+03  0.47000000000E+01 0.  1.
         11    1    4    4    0    0  0.87412737255E+02  0.49030894319E+02  0.51355104069E+02  0.11261599330E+03  0.00000000000E+00 0. -1.
        -12    1    4    4    0    0  0.17050433427E+01  0.62524763925E+02  0.22238117849E+02  0.66383636253E+02  0.00000000000E+00 0.  1.
</event>
<event>
12    1  0.1035051E+000  0.1786368E+03  0.7818608E-02  0.1171729E+00
         21   -1    0    0  503  502  0.00000000000E+00  0.00000000000E+00  0.41164550776E+02  0.41164550776E+02  0.00000000000E+00 0.  1.
         21   -1    0    0  501  503 -0.00000000000E+00 -0.00000000000E+00 -0.73592764632E+03  0.73592764632E+03  0.00000000000E+00 0.  1.
          6    2    1    2  501    0  0.18779224764E+02 -0.37300032803E+02 -0.36850109169E+03  0.40512715771E+03  0.16306749402E+03 0.  0.
         24    2    3    3    0    0  0.38550639374E+02 -0.80443094509E+02 -0.28933609935E+03  0.31270736210E+03  0.78187420162E+02 0.  0.
         -6    2    1    2    0  502 -0.18779224764E+02  0.37300032803E+02 -0.32626200385E+03  0.37196503938E+03  0.17368691268E+03 0.  0.
        -24    2    5    5    0    0  0.43087569719E+02  0.95093758719E+01 -0.10430118151E+03  0.13982603464E+03  0.82009856745E+02 0.  0.
          5    1    3    3  501    0 -0.19771414610E+02  0.43143061706E+02 -0.79164992337E+02  0.92419795611E+02  0.47000000000E+01 0. -1.
        -11    1    4    4    0    0  0.44545409479E+02 -0.50059664750E+02 -0.26494142791E+03  0.27328414473E+03  0.00000000000E+00 0.  1.
         12    1    4    4    0    0 -0.59947701046E+01 -0.30383429759E+02 -0.24394671445E+02  0.39423217365E+02  0.00000000000E+00 0. -1.
         -5    1    5    5    0  502 -0.61866794483E+02  0.27790656931E+02 -0.22196082233E+03  0.23213900474E+03  0.47000000000E+01 0.  1.
         11    1    6    6    0    0  0.43926234082E+02  0.20939997703E+02 -0.11454564037E+03  0.12445361093E+03  0.00000000000E+00 0. -1.
        -12    1    6    6    0    0 -0.83866436288E+00 -0.11430621831E+02  0.10244458860E+02  0.15372423709E+02  0.00000000000E+00 0.  1.
</event>
<event>
12    1  0.1035051E+000  0.2229173E+03  0.7818608E-02  0.1131761E+00
         21   -1    0    0  503  502  0.00000000000E+00  0.00000000000E+00  0.86201910836E+03  0.86201910836E+03  0.00000000000E+00 0.  1.
         21   -1    0    0  501  503 -0.00000000000E+00 -0.00000000000E+00 -0.72595655596E+02  0.72595655596E+02  0.00000000000E+00 0.  1.
          6    2    1    2  501    0  0.50040660263E+02  0.13268348067E+03  0.60724315284E+03  0.64686656650E+03  0.17199748388E+03 0.  0.
         24    2    3    3    0    0  0.53733320958E+02  0.48511334638E+02  0.49388874424E+03  0.50555167748E+03  0.80098611357E+02 0.  0.
         -6    2    1    2    0  502 -0.50040660263E+02 -0.13268348067E+03  0.18218029993E+03  0.28774819746E+03  0.17175677494E+03 0.  0.
        -24    2    5    5    0    0 -0.59858072017E+02 -0.22492356742E+02  0.12891168564E+03  0.16487386884E+03  0.80475306981E+02 0.  0.
          5    1    3    3  501    0 -0.36926606944E+01  0.84172146034E+02  0.11335440859E+03  0.14131488902E+03  0.47000000000E+01 0. -1.
        -13    1    4    4    0    0  0.49865347418E+02  0.52663544569E+02  0.22084464295E+03  0.23244861393E+03  0.00000000000E+00 0.  1.
         14    1    4    4    0    0  0.38679735398E+01 -0.41522099310E+01  0.27304410130E+03  0.27310306355E+03  0.00000000000E+00 0. -1.
         -5    1    5    5    0  502  0.98174117532E+01 -0.11019112393E+03  0.53268614292E+02  0.12287432863E+03  0.47000000000E+01 0.  1.
         11    1    6    6    0    0 -0.64133972471E+02 -0.36781452194E+02  0.62508113373E+02  0.96815834902E+02  0.00000000000E+00 0. -1.
        -12    1    6    6    0    0  0.42759004542E+01  0.14289095451E+02  0.66403572263E+02  0.68058033933E+02  0.00000000000E+00 0.  1.
</event>
<event>
12    1  0.1035051E+000  0.1821602E+03  0.7818608E-02  0.1165916E+00
         21   -1    0    0  503  502  0.00000000000E+00  0.00000000000E+00  0.32261785823E+02  0.32261785823E+02  0.00000000000E+00 0. -1.
         21   -1    0    0  501  503 -0.00000000000E+00 -0.00000000000E+00 -0.13029226251E+04  0.13029226251E+04  0.00000000000E+00 0. -1.
          6    2    1    2  501    0  0.36338731185E+02  0.45305782685E+02 -0.94523506218E+03  0.96262748605E+03  0.17265351662E+03 0.  0.
         24    2    3    3    0    0 -0.77765534914E+01 -0.26566227830E+02 -0.65394146721E+03  0.65933588922E+03  0.79486684632E+02 0.  0.
         -6    2    1    2    0  502 -0.36338731185E+02 -0.45305782685E+02 -0.32542577709E+03  0.37255692487E+03  0.17182435375E+03 0.  0.
        -24    2    5    5    0    0  0.93602562606E+01 -0.24442185595E+02 -0.65495593857E+02  0.10777498195E+03  0.81490730062E+02 0.  0.
          5    1    3    3  501    0  0.44115284676E+02  0.71872010515E+02 -0.29129359497E+03  0.30329159683E+03  0.47000000000E+01 0. -1.
        -11    1    4    4    0    0 -0.22463000459E+02  0.12446730713E+02 -0.83178586373E+02  0.87052769778E+02  0.00000000000E+00 0.  1.
         12    1    4    4    0    0  0.14686446967E+02 -0.39012958543E+02 -0.57076288084E+03  0.57228311944E+03  0.00000000000E+00 0. -1.
         -5    1    5    5    0  502 -0.45698987445E+02 -0.20863597089E+02 -0.25993018324E+03  0.26478194292E+03  0.47000000000E+01 0.  1.
         13    1    6    6    0    0 -0.25496358748E+02  0.11467855824E+02 -0.46478098030E+02  0.54238267147E+02  0.00000000000E+00 0. -1.
        -14    1    6    6    0    0  0.34856615008E+02 -0.35910041419E+02 -0.19017495827E+02  0.53536714805E+02  0.00000000000E+00 0.  1.
</event>
<event>
12    1  0.1035051E+000  0.2097083E+03  0.7818608E-02  0.1141833E+00
         21   -1    0    0  503  502  0.00000000000E+00  0.00000000000E+00  0.29554262052E+02  0.29554262052E+02  0.00000000000E+00 0. -1.
         21   -1    0    0  501  503 -0.00000000000E+00 -0.00000000000E+00 -0.14972163055E+04  0.14972163055E+04  0.00000000000E+00 0. -1.
          6    2    1    2  501    0  0.67687588690E+02  0.98732353299E+02 -0.67028012588E+03  0.70231973287E+03  0.17218557656E+03 0.  0.
         24    2    3    3    0    0  0.10688303832E+03  0.49147052944E+02 -0.52583877654E+03  0.54458457927E+03  0.78908354212E+02 0.  0.
         -6    2    1    2    0  502 -0.67687588690E+02 -0.98732353299E+02 -0.79738191753E+03  0.82445083465E+03  0.17196385985E+03 0.  0.
        -24    2    5    5    0    0 -0.10244937786E+03 -0.31208552503E+02 -0.53861550869E+03  0.55472877399E+03  0.78405980110E+02 0.  0.
          5    1    3    3  501    0 -0.39195449635E+02  0.49585300356E+02 -0.14444134933E+03  0.15773515360E+03  0.47000000000E+01 0. -1.
        -13    1    4    4    0    0  0.71382859196E+02  0.14817905960E+02 -0.43612900075E+03  0.44218049281E+03  0.00000000000E+00 0.  1.
         14    1    4    4    0    0  0.35500179129E+02  0.34329146984E+02 -0.89709775794E+02  0.10240408646E+03  0.00000000000E+00 0. -1.
         -5    1    5    5    0  502  0.34761789172E+02 -0.67523800797E+02 -0.25876640884E+03  0.26972206066E+03  0.47000000000E+01 0.  1.
         11    1    6    6    0    0 -0.10066621396E+01  0.13509371081E+02 -0.14997350196E+03  0.15058408869E+03  0.00000000000E+00 0. -1.
        -12    1    6    6    0    0 -0.10144271572E+03 -0.44717923584E+02 -0.38864200673E+03  0.40414468530E+03  0.00000000000E+00 0.  1.
</event>
<event>
12    1  0.1035051E+000  0.2363651E+03  0.7818608E-02  0.1122377E+00
         21   -1    0    0  503  502  0.00000000000E+00  0.00000000000E+00  0.13311302695E+04  0.13311302695E+04  0.00000000000E+00 0. -1.
         21   -1    0    0  501  503 -0.00000000000E+00 -0.00000000000E+00 -0.41932615884E+02  0.41932615884E+02  0.00000000000E+00 0.  1.
          6    2    1    2  501    0  0.15841416190E+03  0.33384181599E+02  0.67810603086E+03  0.71785189259E+03  0.17109646500E+03 0.  0.
         24    2    3    3    0    0  0.16287591674E+03  0.51403056689E+02  0.47379741847E+03  0.51264788139E+03  0.95671406666E+02 0.  0.
         -6    2    1    2    0  502 -0.15841416190E+03 -0.33384181599E+02  0.61109162274E+03  0.65521099278E+03  0.17221766287E+03 0.  0.
        -24    2    5    5    0    0 -0.14206843968E+03 -0.80968007314E+02  0.53150635556E+03  0.56093847368E+03  0.73577887291E+02 0.  0.
          5    1    3    3  501    0 -0.44617548458E+01 -0.18018875090E+02  0.20430861239E+03  0.20520401120E+03  0.47000000000E+01 0. -1.
        -13    1    4    4    0    0  0.60531994624E+01  0.26300644496E+02  0.25817397138E+02  0.37348401835E+02  0.00000000000E+00 0.  1.
         14    1    4    4    0    0  0.15682271728E+03  0.25102412193E+02  0.44798002134E+03  0.47529947956E+03  0.00000000000E+00 0. -1.
         -5    1    5    5    0  502 -0.16345722221E+02  0.47583825715E+02  0.79585267186E+02  0.94272519101E+02  0.47000000000E+01 0.  1.
         11    1    6    6    0    0 -0.12726530614E+03 -0.74333429603E+02  0.52139036640E+03  0.54182084777E+03  0.00000000000E+00 0. -1.
        -12    1    6    6    0    0 -0.14803133537E+02 -0.66345777106E+01  0.10115989159E+02  0.19117625913E+02  0.00000000000E+00 0.  1.
</event>
<event>
12    1  0.1035051E+000  0.2151771E+03  0.7818608E-02  0.1137778E+00
         21   -1    0    0  501  502  0.00000000000E+00  0.00000000000E+00  0.70982829366E+03  0.70982829366E+03  0.00000000000E+00 0.  1.
         21   -1    0    0  502  503 -0.00000000000E+00 -0.00000000000E+00 -0.72391959786E+02  0.72391959786E+02  0.00000000000E+00 0.  1.
         -6    2    1    2    0  503 -0.10572199553E+03 -0.68524120944E+02  0.19153290267E+03  0.28711312192E+03  0.17284789985E+03 0.  0.
        -24    2    3    3    0    0 -0.13487242037E+03 -0.69529127079E+02  0.11904484769E+03  0.20883563204E+03  0.80098540303E+02 0.  0.
          6    2    1    2  501    0  0.10572199553E+03  0.68524120944E+02  0.44590343120E+03  0.49510713153E+03  0.17443768585E+03 0.  0.
         24    2    5    5    0    0  0.67178675197E+02  0.34583316791E+02  0.42554755376E+03  0.43966330883E+03  0.80648151987E+02 0.  0.
          5    1    5    5  501    0  0.38543320331E+02  0.33940804153E+02  0.20355877438E+02  0.55443822694E+02  0.47000000000E+01 0. -1.
        -13    1    6    6    0    0 -0.17394571920E+01  0.49916503665E+01  0.23246473298E+03  0.23252482526E+03  0.00000000000E+00 0.  1.
         14    1    6    6    0    0  0.68918132389E+02  0.29591666425E+02  0.19308282079E+03  0.20713848357E+03  0.00000000000E+00 0. -1.
         -5    1    3    3    0  503  0.29150424846E+02  0.10050061351E+01  0.72488054982E+02  0.78277489875E+02  0.47000000000E+01 0.  1.
         13    1    4    4    0    0 -0.36296016611E+02 -0.42661814987E+02  0.58009131068E+01  0.56312359857E+02  0.00000000000E+00 0. -1.
        -14    1    4    4    0    0 -0.98576403763E+02 -0.26867312092E+02  0.11324393458E+03  0.15252327218E+03  0.00000000000E+00 0.  1.
</event>
<event>
12    1  0.1035051E+000  0.2035105E+03  0.7818608E-02  0.1146900E+00
         21   -1    0    0  503  502  0.00000000000E+00  0.00000000000E+00  0.93262592277E+02  0.93262592277E+02  0.00000000000E+00 0.  1.
         21   -1    0    0  501  503 -0.00000000000E+00 -0.00000000000E+00 -0.57418761656E+03  0.57418761656E+03  0.00000000000E+00 0.  1.
          6    2    1    2  501    0  0.65454392804E+02  0.85802304059E+02 -0.81229229110E+02  0.21912260975E+03  0.17254048082E+03 0.  0.
         24    2    3    3    0    0  0.43254534037E+02  0.35342617004E+02 -0.11773904899E+03  0.15283482283E+03  0.79849509206E+02 0.  0.
         -6    2    1    2    0  502 -0.65454392804E+02 -0.85802304059E+02 -0.39969579517E+03  0.44832759908E+03  0.17203079522E+03 0.  0.
        -24    2    5    5    0    0 -0.82546192070E+02 -0.50918780109E+02 -0.38732624887E+03  0.40728998803E+03  0.80354933207E+02 0.  0.
          5    1    3    3  501    0  0.22199858767E+02  0.50459687055E+02  0.36509819882E+02  0.66287786920E+02  0.47000000000E+01 0. -1.
        -11    1    4    4    0    0 -0.22524815113E+02  0.24625274846E+01 -0.18124119000E+02  0.29015772039E+02  0.00000000000E+00 0.  1.
         12    1    4    4    0    0  0.65779349150E+02  0.32880089519E+02 -0.99614929992E+02  0.12381905079E+03  0.00000000000E+00 0. -1.
         -5    1    5    5    0  502  0.17091799266E+02 -0.34883523950E+02 -0.12369546295E+02  0.41037611052E+02  0.47000000000E+01 0.  1.
         13    1    6    6    0    0 -0.77094587028E+02 -0.26953619383E+02 -0.36519801429E+03  0.37421873629E+03  0.00000000000E+00 0. -1.
        -14    1    6    6    0    0 -0.54516050415E+01 -0.23965160726E+02 -0.22128234586E+02  0.33071251746E+02  0.00000000000E+00 0.  1.
</event>
<event>
12    1  0.1035051E+000  0.2297786E+03  0.7818608E-02  0.1126814E+00
         21   -1    0    0  503  502  0.00000000000E+00  0.00000000000E+00  0.57390495004E+03  0.57390495004E+03  0.00000000000E+00 0. -1.
         21   -1    0    0  501  503 -0.00000000000E+00 -0.00000000000E+00 -0.92044851428E+02  0.92044851428E+02  0.00000000000E+00 0. -1.
          6    2    1    2  501    0 -0.13234521830E+03  0.75221219465E+02  0.25116251632E+03  0.34034329803E+03  0.17198099384E+03 0.  0.
         24    2    3    3    0    0 -0.33274842893E+02  0.50647102819E+02  0.20496577975E+03  0.22820474550E+03  0.79963059019E+02 0.  0.
         -6    2    1    2    0  502  0.13234521830E+03 -0.75221219465E+02  0.23069758229E+03  0.32560650344E+03  0.17211836609E+03 0.  0.
        -24    2    5    5    0    0  0.64678650640E+02 -0.23584509928E+02  0.35685340102E+02  0.11277563455E+03  0.81886160568E+02 0.  0.
          5    1    3    3  501    0 -0.99070375409E+02  0.24574116645E+02  0.46196736577E+02  0.11213855253E+03  0.47000000000E+01 0. -1.
        -11    1    4    4    0    0 -0.50213528326E+02  0.45382225070E+02  0.19782567317E+03  0.20908357598E+03  0.00000000000E+00 0.  1.
         12    1    4    4    0    0  0.16938685433E+02  0.52648777498E+01  0.71401065786E+01  0.19121169522E+02  0.00000000000E+00 0. -1.
         -5    1    5    5    0  502  0.67666567662E+02 -0.51636709537E+02  0.19501224219E+03  0.21283086889E+03  0.47000000000E+01 0.  1.
         11    1    6    6    0    0  0.15572622170E+01 -0.14071843578E+02 -0.22380667252E+02  0.26482751253E+02  0.00000000000E+00 0. -1.
        -12    1    6    6    0    0  0.63121388423E+02 -0.95126663494E+01  0.58066007354E+02  0.86292883296E+02  0.00000000000E+00 0.  1.
</event>
<event>
12    1  0.1035051E+000  0.2215960E+03  0.7818608E-02  0.1133327E+00
         21   -1    0    0  503  502  0.00000000000E+00  0.00000000000E+00  0.42956247428E+02  0.42956247428E+02  0.00000000000E+00 0.  1.
         21   -1    0    0  501  503 -0.00000000000E+00 -0.00000000000E+00 -0.14548493088E+04  0.14548493088E+04  0.00000000000E+00 0.  1.
          6    2    1    2  501    0  0.18505400393E+02  0.13875478873E+03 -0.10663008196E+04  0.10890832033E+04  0.17178313250E+03 0.  0.
         24    2    3    3    0    0 -0.96379520334E+01  0.16092846710E+03 -0.78154835777E+03  0.80204701253E+03  0.80440743005E+02 0.  0.
         -6    2    1    2    0  502 -0.18505400393E+02 -0.13875478873E+03 -0.34559224177E+03  0.40872235292E+03  0.16740556431E+03 0.  0.
        -24    2    5    5    0    0  0.12543305620E+01 -0.16512556837E+03 -0.27742680749E+03  0.33286405464E+03  0.81023568712E+02 0.  0.
          5    1    3    3  501    0  0.28143352426E+02 -0.22173678370E+02 -0.28475246185E+03  0.28703619080E+03  0.47000000000E+01 0. -1.
        -11    1    4    4    0    0 -0.28240664422E+02  0.21178213632E+02 -0.99390142824E+02  0.10547251941E+03  0.00000000000E+00 0.  1.
         12    1    4    4    0    0  0.18602712388E+02  0.13975025347E+03 -0.68215821494E+03  0.69657449312E+03  0.00000000000E+00 0. -1.
         -5    1    5    5    0  502 -0.19759730955E+02  0.26370779638E+02 -0.68165434285E+02  0.75858298276E+02  0.47000000000E+01 0.  1.
         11    1    6    6    0    0 -0.39879354266E+02 -0.83281389698E+02 -0.13888069165E+03  0.16677529577E+03  0.00000000000E+00 0. -1.
        -12    1    6    6    0    0  0.41133684828E+02 -0.81844178670E+02 -0.13854611584E+03  0.16608875887E+03  0.00000000000E+00 0.  1.
</event>
<event>
12    1  0.1035051E+000  0.1841036E+03  0.7818608E-02  0.1164493E+00
         21   -1    0    0  501  502  0.00000000000E+00  0.00000000000E+00  0.70466420045E+03  0.70466420045E+03  0.00000000000E+00 0. -1.
         21   -1    0    0  502  503 -0.00000000000E+00 -0.00000000000E+00 -0.58721020244E+02  0.58721020244E+02  0.00000000000E+00 0. -1.
         -6    2    1    2    0  503 -0.22214491677E+02  0.60893326017E+02  0.15746366251E+03  0.24225800891E+03  0.17231557409E+03 0.  0.
        -24    2    3    3    0    0  0.17506672653E+02  0.45732251506E+02  0.18211260395E+02  0.96583884332E+02  0.81233455499E+02 0.  0.
          6    2    1    2  501    0  0.22214491677E+02 -0.60893326017E+02  0.48847951770E+03  0.52112721179E+03  0.16958729569E+03 0.  0.
         24    2    5    5    0    0 -0.91072667205E+00 -0.10143537689E+02  0.44335029754E+03  0.44923108358E+03  0.71731160209E+02 0.  0.
          5    1    5    5  501    0  0.23125218349E+02 -0.50749788329E+02  0.45129220155E+02  0.71896128205E+02  0.47000000000E+01 0. -1.
        -11    1    6    6    0    0  0.20722827475E+02  0.22836673960E+02  0.25031890855E+03  0.25221123138E+03  0.00000000000E+00 0.  1.
         12    1    6    6    0    0 -0.21633554147E+02 -0.32980211649E+02  0.19303138899E+03  0.19701985220E+03  0.00000000000E+00 0. -1.
         -5    1    3    3    0  503 -0.39721164330E+02  0.15161074511E+02  0.13925240212E+03  0.14567412458E+03  0.47000000000E+01 0.  1.
         13    1    4    4    0    0 -0.40550745521E+01  0.95344187491E+01  0.45316021499E+02  0.46485380229E+02  0.00000000000E+00 0. -1.
        -14    1    4    4    0    0  0.21561747206E+02  0.36197832757E+02 -0.27104761105E+02  0.50098504103E+02  0.00000000000E+00 0.  1.
</event>
<event>
12    1  0.1035051E+000  0.1938796E+03  0.7818608E-02  0.1155625E+00
         21   -1    0    0  501  502  0.00000000000E+00  0.00000000000E+00  0.29845535374E+03  0.29845535374E+03  0.00000000000E+00 0.  1.
         21   -1    0    0  502  503 -0.00000000000E+00 -0.00000000000E+00 -0.20692823495E+03  0.20692823495E+03  0.00000000000E+00 0.  1.
         -6    2    1    2    0  503  0.69363588339E+02 -0.57412692453E+02  0.20578926021E+03  0.28273400475E+03  0.17170257185E+03 0.  0.
        -24    2    3    3    0    0 -0.81410289678E+01 -0.48347628994E+02  0.17410466194E+03  0.19838268676E+03  0.81483050457E+02 0.  0.
          6    2    1    2  501    0 -0.69363588339E+02  0.57412692453E+02 -0.11426214141E+03  0.22264958395E+03  0.16855110688E+03 0.  0.
         24    2    5    5    0    0 -0.20943082684E+02 -0.11590163055E+02 -0.24460103975E+01  0.82539353801E+02  0.78954527210E+02 0.  0.
          5    1    5    5  501    0 -0.48420505655E+02  0.69002855508E+02 -0.11181613101E+03  0.14011023014E+03  0.47000000000E+01 0. -1.
        -11    1    6    6    0    0 -0.85543521870E+01 -0.18981515274E+01  0.38076168730E+02  0.39071403170E+02  0.00000000000E+00 0.  1.
         12    1    6    6    0    0 -0.12388730497E+02 -0.96920115273E+01 -0.40522179127E+02  0.43467950630E+02  0.00000000000E+00 0. -1.
         -5    1    3    3    0  503  0.77504617306E+02 -0.90650634594E+01  0.31684598267E+02  0.84351317990E+02  0.47000000000E+01 0.  1.
         11    1    4    4    0    0  0.15556813285E+02 -0.61362696682E+02  0.89958418915E+02  0.10999960053E+03  0.00000000000E+00 0. -1.
        -12    1    4    4    0    0 -0.23697842253E+02  0.13015067688E+02  0.84146243029E+02  0.88383086223E+02  0.00000000000E+00 0.  1.
</event>
<event>
12    1  0.1035051E+000  0.1765040E+03  0.7818608E-02  0.1171726E+00
         21   -1    0    0  501  502  0.00000000000E+00  0.00000000000E+00  0.66549983589E+02  0.66549983589E+02  0.00000000000E+00 0. -1.
         21   -1    0    0  502  503 -0.00000000000E+00 -0.00000000000E+00 -0.75240146160E+03  0.75240146160E+03  0.00000000000E+00 0. -1.
         -6    2    1    2    0  503 -0.25349034226E+02  0.42215168544E+01 -0.90112123158E+02  0.19817629491E+03  0.17462317825E+03 0.  0.
        -24    2    3    3    0    0 -0.17053634402E+01 -0.86556248306E+00 -0.12867019424E+03  0.15241914913E+03  0.81681825837E+02 0.  0.
          6    2    1    2  501    0  0.25349034226E+02 -0.42215168544E+01 -0.59573935486E+03  0.62077515028E+03  0.17261521817E+03 0.  0.
         24    2    5    5    0    0  0.31770920838E+02 -0.65835257851E+02 -0.43740925646E+03  0.45069280620E+03  0.80333525659E+02 0.  0.
          5    1    5    5  501    0 -0.64218866124E+01  0.61613740997E+02 -0.15833009840E+03  0.17008234408E+03  0.47000000000E+01 0. -1.
        -13    1    6    6    0    0  0.36834993428E+02 -0.10505176572E+01 -0.89886600432E+02  0.97146905588E+02  0.00000000000E+00 0.  1.
         14    1    6    6    0    0 -0.50640725897E+01 -0.64784740194E+02 -0.34752265602E+03  0.35354590062E+03  0.00000000000E+00 0. -1.
         -5    1    3    3    0  503 -0.23643670786E+02  0.50870793374E+01  0.38558071083E+02  0.45757145781E+02  0.47000000000E+01 0.  1.
         13    1    4    4    0    0  0.10151347122E+02 -0.39741680957E+02 -0.67087696428E+02  0.78633390272E+02  0.00000000000E+00 0. -1.
        -14    1    4    4    0    0 -0.11856710562E+02  0.38876118474E+02 -0.61582497813E+02  0.73785758856E+02  0.00000000000E+00 0.  1.
</event>
<event>
12    1  0.1035051E+000  0.3358918E+03  0.7818608E-02  0.1068603E+00
         21   -1    0    0  503  502  0.00000000000E+00  0.00000000000E+00  0.28020839221E+03  0.28020839221E+03  0.00000000000E+00 0.  1.
         21   -1    0    0  501  503 -0.00000000000E+00 -0.00000000000E+00 -0.92830721500E+03  0.92830721500E+03  0.00000000000E+00 0.  1.
          6    2    1    2  501    0 -0.17547560013E+03 -0.22927213752E+03 -0.77904691339E+03  0.84837338402E+03  0.17165636067E+03 0.  0.
         24    2    3    3    0    0 -0.90927005800E+02 -0.19964905222E+03 -0.65029447988E+03  0.69144897189E+03  0.84209890924E+02 0.  0.
         -6    2    1    2    0  502  0.17547560013E+03  0.22927213752E+03  0.13094809061E+03  0.36014222319E+03  0.17087310850E+03 0.  0.
        -24    2    5    5    0    0  0.42845153169E+02  0.14678412320E+03  0.10134439898E+03  0.20110267929E+03  0.82403364247E+02 0.  0.
          5    1    3    3  501    0 -0.84548594330E+02 -0.29623085296E+02 -0.12875243351E+03  0.15692441213E+03  0.47000000000E+01 0. -1.
        -13    1    4    4    0    0 -0.80592056159E+01 -0.24817093298E+02 -0.19517974114E+03  0.19691615034E+03  0.00000000000E+00 0.  1.
         14    1    4    4    0    0 -0.82867800185E+02 -0.17483195892E+03 -0.45511473874E+03  0.49453282155E+03  0.00000000000E+00 0. -1.
         -5    1    5    5    0  502  0.13263044696E+03  0.82488014314E+02  0.29603691632E+02  0.15903954390E+03  0.47000000000E+01 0.  1.
         13    1    6    6    0    0  0.43825133686E+02  0.52231098570E+02  0.87188661214E+01  0.68736806929E+02  0.00000000000E+00 0. -1.
        -14    1    6    6    0    0 -0.97998051701E+00  0.94553024634E+02  0.92625532856E+02  0.13236587236E+03  0.00000000000E+00 0.  1.
</event>
<event>
12    1  0.1035051E+000  0.2165106E+03  0.7818608E-02  0.1136589E+00
         21   -1    0    0  501  502  0.00000000000E+00  0.00000000000E+00  0.21446959640E+03  0.21446959640E+03  0.00000000000E+00 0.  1.
         21   -1    0    0  502  503 -0.00000000000E+00 -0.00000000000E+00 -0.25218880483E+03  0.25218880483E+03  0.00000000000E+00 0.  1.
         -6    2    1    2    0  503  0.45567581311E+02  0.12307356759E+03  0.66862835725E+02  0.22621244925E+03  0.17169136812E+03 0.  0.
        -24    2    3    3    0    0  0.55819948882E+02  0.45863267245E+02 -0.20509727809E+02  0.10906896296E+03  0.79095409295E+02 0.  0.
          6    2    1    2  501    0 -0.45567581311E+02 -0.12307356759E+03 -0.10458204416E+03  0.24044595198E+03  0.17220146444E+03 0.  0.
         24    2    5    5    0    0 -0.34214710410E+02 -0.82471977908E+02 -0.14095541994E+03  0.18456671407E+03  0.78893396325E+02 0.  0.
          5    1    5    5  501    0 -0.11352870901E+02 -0.40601589683E+02  0.36373375787E+02  0.55879237903E+02  0.47000000000E+01 0. -1.
        -11    1    6    6    0    0  0.21883218610E+02 -0.45694533452E+02 -0.74882490848E+02  0.90411576027E+02  0.00000000000E+00 0.  1.
         12    1    6    6    0    0 -0.56097929021E+02 -0.36777444456E+02 -0.66072929097E+02  0.94155138047E+02  0.00000000000E+00 0. -1.
         -5    1    3    3    0  503 -0.10252367571E+02  0.77210300346E+02  0.87372563533E+02  0.11714348628E+03  0.47000000000E+01 0.  1.
         13    1    4    4    0    0  0.37881204687E+02  0.34688351311E+02  0.26302480421E+02  0.57706913464E+02  0.00000000000E+00 0. -1.
        -14    1    4    4    0    0  0.17938744195E+02  0.11174915933E+02 -0.46812208230E+02  0.51362049499E+02  0.00000000000E+00 0.  1.
</event>
<event>
12    1  0.1035051E+000  0.2017756E+03  0.7818608E-02  0.1148551E+00
         21   -1    0    0  501  502  0.00000000000E+00  0.00000000000E+00  0.23524102829E+03  0.23524102829E+03  0.00000000000E+00 0. -1.
         21   -1    0    0  502  503 -0.00000000000E+00 -0.00000000000E+00 -0.18440737342E+03  0.18440737342E+03  0.00000000000E+00 0. -1.
         -6    2    1    2    0  503 -0.10531335598E+03 -0.85689656398E+01 -0.29444775411E+02  0.20248945027E+03  0.17020767477E+03 0.  0.
        -24    2    3    3    0    0  0.82827847780E+01  0.11515064597E+02 -0.34279966018E+02  0.86934612491E+02  0.78621304635E+02 0.  0.
          6    2    1    2  501    0  0.10531335598E+03  0.85689656398E+01  0.80278430291E+02  0.21715895144E+03  0.17189838190E+03 0.  0.
         24    2    5    5    0    0  0.77753537842E+02 -0.46895312157E+02  0.78393232394E+01  0.12173702567E+03  0.80707282697E+02 0.  0.
          5    1    5    5  501    0  0.27559818140E+02  0.55464277796E+02  0.72439107051E+02  0.95421925771E+02  0.47000000000E+01 0. -1.
        -11    1    6    6    0    0  0.84443517560E+02 -0.40167259207E+02 -0.17093893852E+02  0.95059547533E+02  0.00000000000E+00 0.  1.
         12    1    6    6    0    0 -0.66899797181E+01 -0.67280529495E+01  0.24933217091E+02  0.26677478135E+02  0.00000000000E+00 0. -1.
         -5    1    3    3    0  503 -0.11359614076E+03 -0.20084030236E+02  0.48351906064E+01  0.11555483778E+03  0.47000000000E+01 0.  1.
         11    1    4    4    0    0 -0.73823811165E+01 -0.31149201603E+02 -0.24830775153E+02  0.40513450928E+02  0.00000000000E+00 0. -1.
        -12    1    4    4    0    0  0.15665165894E+02  0.42664266199E+02 -0.94491908649E+01  0.46421161563E+02  0.00000000000E+00 0.  1.
</event>
<event>
12    1  0.1035051E+000  0.3051677E+03  0.7818608E-02  0.1082738E+00
         21   -1    0    0  501  502  0.00000000000E+00  0.00000000000E+00  0.96769155450E+03  0.96769155450E+03  0.00000000000E+00 0. -1.
         21   -1    0    0  502  503 -0.00000000000E+00 -0.00000000000E+00 -0.10102737985E+03  0.10102737985E+03  0.00000000000E+00 0.  1.
         -6    2    1    2    0  503 -0.24070409053E+03 -0.72514866467E+02  0.55160939041E+03  0.63039687584E+03  0.17300415148E+03 0.  0.
        -24    2    3    3    0    0 -0.11420651052E+03 -0.74546331570E+02  0.18734128106E+03  0.24475570832E+03  0.78792884007E+02 0.  0.
          6    2    1    2  501    0  0.24070409053E+03  0.72514866467E+02  0.31505478424E+03  0.43832205851E+03  0.17224936821E+03 0.  0.
         24    2    5    5    0    0  0.12042920556E+03  0.97155172771E+02  0.13511937894E+03  0.22044128211E+03  0.79967438008E+02 0.  0.
          5    1    5    5  501    0  0.12027488496E+03 -0.24640306304E+02  0.17993540530E+03  0.21788077641E+03  0.47000000000E+01 0. -1.
        -11    1    6    6    0    0  0.13222605267E+03  0.91816151950E+02  0.12799844088E+03  0.20566364684E+03  0.00000000000E+00 0.  1.
         12    1    6    6    0    0 -0.11796847110E+02  0.53390208213E+01  0.71209380590E+01  0.14777635261E+02  0.00000000000E+00 0. -1.
         -5    1    3    3    0  503 -0.12649758000E+03  0.20314651034E+01  0.36426810935E+03  0.38564116752E+03  0.47000000000E+01 0.  1.
         11    1    4    4    0    0 -0.59069607630E+02 -0.64977231090E+02  0.15990578858E+03  0.18243113859E+03  0.00000000000E+00 0. -1.
        -12    1    4    4    0    0 -0.55136902893E+02 -0.95691004806E+01  0.27435492480E+02  0.62324569732E+02  0.00000000000E+00 0.  1.
</event>
<event>
12    1  0.1035051E+000  0.2826069E+03  0.7818608E-02  0.1094357E+00
         21   -1    0    0  501  502  0.00000000000E+00  0.00000000000E+00  0.34549835945E+03  0.34549835945E+03  0.00000000000E+00 0.  1.
         21   -1    0    0  502  503 -0.00000000000E+00 -0.00000000000E+00 -0.39026852599E+03  0.39026852599E+03  0.00000000000E+00 0.  1.
         -6    2    1    2    0  503 -0.16379308256E+03  0.15074908610E+03  0.21286410584E+03  0.35380471231E+03  0.17410682366E+03 0.  0.
        -24    2    3    3    0    0 -0.32059677285E+02  0.10904442998E+03  0.14347827454E+03  0.19911323875E+03  0.78368080004E+02 0.  0.
          6    2    1    2  501    0  0.16379308256E+03 -0.15074908610E+03 -0.25763427239E+03  0.38196217313E+03  0.17310754616E+03 0.  0.
         24    2    5    5    0    0  0.49613234991E+02 -0.66945136822E+02 -0.19744734095E+03  0.22799887808E+03  0.77813312023E+02 0.  0.
          5    1    5    5  501    0  0.11417984757E+03 -0.83803949277E+02 -0.60186931434E+02  0.15396329504E+03  0.47000000000E+01 0. -1.
        -11    1    6    6    0    0  0.58826076228E+01 -0.54356238035E+02 -0.51455659797E+02  0.75079228891E+02  0.00000000000E+00 0.  1.
         12    1    6    6    0    0  0.43730627368E+02 -0.12588898787E+02 -0.14599168115E+03  0.15291964919E+03  0.00000000000E+00 0. -1.
         -5    1    3    3    0  503 -0.13173340527E+03  0.41704656124E+02  0.69385831298E+02  0.15469147356E+03  0.47000000000E+01 0.  1.
         13    1    4    4    0    0 -0.43658336298E+02  0.45851054928E+02  0.10936685141E+03  0.12637039904E+03  0.00000000000E+00 0. -1.
        -14    1    4    4    0    0  0.11598659013E+02  0.63193375047E+02  0.34111423131E+02  0.72742839707E+02  0.00000000000E+00 0.  1.
</event>
<event>
12    1  0.1035051E+000  0.1860563E+03  0.7818608E-02  0.1162445E+00
         21   -1    0    0  503  502  0.00000000000E+00  0.00000000000E+00  0.29972946764E+02  0.29972946764E+02  0.00000000000E+00 0. -1.
         21   -1    0    0  501  503 -0.00000000000E+00 -0.00000000000E+00 -0.14445770826E+04  0.14445770826E+04  0.00000000000E+00 0. -1.
          6    2    1    2  501    0  0.69900443265E+02 -0.35608217962E+01 -0.37395244940E+03  0.41768094551E+03  0.17238963544E+03 0.  0.
         24    2    3    3    0    0  0.11067653354E+02 -0.58503381359E+02 -0.25457828110E+03  0.27362448409E+03  0.80716283997E+02 0.  0.
         -6    2    1    2    0  502 -0.69900443265E+02  0.35608217962E+01 -0.10406516864E+04  0.10568690838E+04  0.17063873096E+03 0.  0.
        -24    2    5    5    0    0  0.16731550935E+02  0.26544312795E+02 -0.31797685939E+03  0.32864223807E+03  0.76888830118E+02 0.  0.
          5    1    3    3  501    0  0.58832789911E+02  0.54942559563E+02 -0.11937416830E+03  0.14405646142E+03  0.47000000000E+01 0. -1.
        -11    1    4    4    0    0 -0.10728957028E+01 -0.10756158157E+01 -0.17361955375E+03  0.17362620050E+03  0.00000000000E+00 0.  1.
         12    1    4    4    0    0  0.12140549057E+02 -0.57427765543E+02 -0.80958727352E+02  0.99998283591E+02  0.00000000000E+00 0. -1.
         -5    1    5    5    0  502 -0.86631994200E+02 -0.22983490999E+02 -0.72267482701E+03  0.72822684575E+03  0.47000000000E+01 0.  1.
         13    1    6    6    0    0  0.32657263082E+02  0.13997624346E+02 -0.29823494039E+03  0.30034398611E+03  0.00000000000E+00 0. -1.
        -14    1    6    6    0    0 -0.15925712148E+02  0.12546688450E+02 -0.19741918999E+02  0.28298251964E+02  0.00000000000E+00 0.  1.
</event>
<event>
12    1  0.1035051E+000  0.1908083E+03  0.7818608E-02  0.1158721E+00
         21   -1    0    0  503  502  0.00000000000E+00  0.00000000000E+00  0.98247896228E+02  0.98247896228E+02  0.00000000000E+00 0. -1.
         21   -1    0    0  501  503 -0.00000000000E+00 -0.00000000000E+00 -0.37412277690E+03  0.37412277690E+03  0.00000000000E+00 0. -1.
          6    2    1    2  501    0  0.68065945815E+02  0.46793274891E+02 -0.97271049884E+02  0.21417155483E+03  0.17200352960E+03 0.  0.
         24    2    3    3    0    0  0.61265961827E+02 -0.35531236845E+02 -0.39232028530E+02  0.11310631345E+03  0.78980372302E+02 0.  0.
         -6    2    1    2    0  502 -0.68065945815E+02 -0.46793274891E+02 -0.17860383079E+03  0.25819911830E+03  0.16716720003E+03 0.  0.
        -24    2    5    5    0    0 -0.89150276139E+02 -0.11794842580E+02 -0.61242839405E+02  0.13384023624E+03  0.77946349569E+02 0.  0.
          5    1    3    3  501    0  0.67999839881E+01  0.82324511736E+02 -0.58039021354E+02  0.10106524138E+03  0.47000000000E+01 0. -1.
        -11    1    4    4    0    0  0.93640047301E+01 -0.21432531875E+02  0.21649864136E+02  0.31870905608E+02  0.00000000000E+00 0.  1.
         12    1    4    4    0    0  0.51901957097E+02 -0.14098704970E+02 -0.60881892667E+02  0.81235407840E+02  0.00000000000E+00 0. -1.
         -5    1    5    5    0  502  0.21084330325E+02 -0.34998432311E+02 -0.11736099138E+03  0.12435888206E+03  0.47000000000E+01 0.  1.
         13    1    6    6    0    0 -0.63593258536E+02  0.17774042467E+02 -0.61828793437E+01  0.66319281614E+02  0.00000000000E+00 0. -1.
        -14    1    6    6    0    0 -0.25557017604E+02 -0.29568885047E+02 -0.55059960061E+02  0.67520954626E+02  0.00000000000E+00 0.  1.
</event>
<event>
12    1  0.1035051E+000  0.2118216E+03  0.7818608E-02  0.1140191E+00
         21   -1    0    0  503  502  0.00000000000E+00  0.00000000000E+00  0.23790774338E+03  0.23790774338E+03  0.00000000000E+00 0. -1.
         21   -1    0    0  501  503 -0.00000000000E+00 -0.00000000000E+00 -0.31334621302E+03  0.31334621302E+03  0.00000000000E+00 0. -1.
          6    2    1    2  501    0  0.78954961177E+02  0.93853805544E+02  0.13636494944E+03  0.25192017773E+03  0.17270192183E+03 0.  0.
         24    2    3    3    0    0  0.12105683646E+03  0.82104571910E+02  0.96437025576E+02  0.19253211919E+03  0.79828557769E+02 0.  0.
         -6    2    1    2    0  502 -0.78954961177E+02 -0.93853805544E+02 -0.21180341908E+03  0.29933377867E+03  0.17232991618E+03 0.  0.
        -24    2    5    5    0    0  0.22661036531E+02 -0.58574855132E+02 -0.69562751541E+02  0.12093839523E+03  0.76436789621E+02 0.  0.
          5    1    3    3  501    0 -0.42101875284E+02  0.11749233634E+02  0.39927923865E+02  0.59388058544E+02  0.47000000000E+01 0. -1.
        -13    1    4    4    0    0  0.92906703475E+02  0.15359839517E+02  0.56400766923E+02  0.10976623675E+03  0.00000000000E+00 0.  1.
         14    1    4    4    0    0  0.28150132986E+02  0.66744732393E+02  0.40036258653E+02  0.82765882441E+02  0.00000000000E+00 0. -1.
         -5    1    5    5    0  502 -0.10161599771E+03 -0.35278950412E+02 -0.14224066754E+03  0.17839538345E+03  0.47000000000E+01 0.  1.
         13    1    6    6    0    0 -0.76176743227E+01 -0.11943385075E+02  0.14423166411E+02  0.20216358190E+02  0.00000000000E+00 0. -1.
        -14    1    6    6    0    0  0.30278710853E+02 -0.46631470056E+02 -0.83985917952E+02  0.10072203704E+03  0.00000000000E+00 0.  1.
</event>
<event>
12    1  0.1035051E+000  0.1922152E+03  0.7818608E-02  0.1157393E+00
         21   -1    0    0  503  502  0.00000000000E+00  0.00000000000E+00  0.44015055167E+03  0.44015055167E+03  0.00000000000E+00 0. -1.
         21   -1    0    0  501  503 -0.00000000000E+00 -0.00000000000E+00 -0.87902790936E+02  0.87902790936E+02  0.00000000000E+00 0. -1.
          6    2    1    2  501    0 -0.65631289162E+02 -0.52814717513E+02  0.24528835574E+03  0.31162968547E+03  0.17277101291E+03 0.  0.
         24    2    3    3    0    0 -0.10579275610E+03 -0.13137033533E+02  0.15433414395E+03  0.20447549435E+03  0.81403383871E+02 0.  0.
         -6    2    1    2    0  502  0.65631289162E+02  0.52814717513E+02  0.10695940499E+03  0.21642365714E+03  0.16823205565E+03 0.  0.
        -24    2    5    5    0    0 -0.10162915776E+02  0.71792556164E+02  0.41475708671E+02  0.11436914060E+03  0.78119203358E+02 0.  0.
          5    1    3    3  501    0  0.40161466942E+02 -0.39677683980E+02  0.90954211786E+02  0.10715419112E+03  0.47000000000E+01 0. -1.
        -11    1    4    4    0    0 -0.88201818100E+02 -0.61662914347E+01  0.16159990227E+03  0.18420671073E+03  0.00000000000E+00 0.  1.
         12    1    4    4    0    0 -0.17590938004E+02 -0.69707420986E+01 -0.72657583172E+01  0.20268783614E+02  0.00000000000E+00 0. -1.
         -5    1    5    5    0  502  0.75794204938E+02 -0.18977838651E+02  0.65483696322E+02  0.10205451654E+03  0.47000000000E+01 0.  1.
         11    1    6    6    0    0 -0.90912272757E+01  0.58396314041E+02 -0.11073906108E+02  0.60128290375E+02  0.00000000000E+00 0. -1.
        -12    1    6    6    0    0 -0.10716885001E+01  0.13396242123E+02  0.52549614779E+02  0.54240850221E+02  0.00000000000E+00 0.  1.
</event>
<event>
12    1  0.1035051E+000  0.2111301E+03  0.7818608E-02  0.1141438E+00
         21   -1    0    0  501  502  0.00000000000E+00  0.00000000000E+00  0.16100302213E+03  0.16100302213E+03  0.00000000000E+00 0. -1.
         21   -1    0    0  502  503 -0.00000000000E+00 -0.00000000000E+00 -0.28510604800E+03  0.28510604800E+03  0.00000000000E+00 0. -1.
         -6    2    1    2    0  503  0.11430370818E+03  0.40890760531E+02 -0.13393787001E+02  0.20771348244E+03  0.16801221759E+03 0.  0.
        -24    2    3    3    0    0  0.38614331145E+02  0.60281562474E+02 -0.57319334713E+02  0.11795587141E+03  0.74183206489E+02 0.  0.
          6    2    1    2  501    0 -0.11430370818E+03 -0.40890760531E+02 -0.11070923888E+03  0.23839558768E+03  0.17273832422E+03 0.  0.
         24    2    5    5    0    0 -0.95922427546E+02  0.34752289937E+02 -0.59918437588E+02  0.14532820319E+03  0.84387402590E+02 0.  0.
          5    1    5    5  501    0 -0.18381280634E+02 -0.75643050468E+02 -0.50790801290E+02  0.93067384499E+02  0.47000000000E+01 0. -1.
        -11    1    6    6    0    0 -0.29246611565E+02  0.26659294053E+02 -0.66975484530E+02  0.77793301611E+02  0.00000000000E+00 0.  1.
         12    1    6    6    0    0 -0.66675815982E+02  0.80929958835E+01  0.70570469419E+01  0.67534901575E+02  0.00000000000E+00 0. -1.
         -5    1    3    3    0  503  0.75689377036E+02 -0.19390801943E+02  0.43925547713E+02  0.89757611031E+02  0.47000000000E+01 0.  1.
         13    1    4    4    0    0 -0.53437854478E+01 -0.14563313317E+02 -0.14225928268E+02  0.21048115658E+02  0.00000000000E+00 0. -1.
        -14    1    4    4    0    0  0.43958116592E+02  0.74844875791E+02 -0.43093406445E+02  0.96907755756E+02  0.00000000000E+00 0.  1.
</event>
<event>
12    1  0.1035051E+000  0.2324413E+03  0.7818608E-02  0.1127500E+00
         21   -1    0    0  501  502  0.00000000000E+00  0.00000000000E+00  0.10139003667E+03  0.10139003667E+03  0.00000000000E+00 0. -1.
         21   -1    0    0  502  503 -0.00000000000E+00 -0.00000000000E+00 -0.50061392682E+03  0.50061392682E+03  0.00000000000E+00 0. -1.
         -6    2    1    2    0  503 -0.48317777416E+02  0.12819478496E+03 -0.20563895437E+03  0.31034873917E+03  0.18777766066E+03 0.  0.
        -24    2    3    3    0    0 -0.62846191582E+02  0.28942761831E+01 -0.12313083388E+03  0.15954763750E+03  0.79600412986E+02 0.  0.
          6    2    1    2  501    0  0.48317777416E+02 -0.12819478496E+03 -0.19358493577E+03  0.29165522432E+03  0.16976198636E+03 0.  0.
         24    2    5    5    0    0  0.33281874266E+02 -0.62094385901E+01 -0.11756408882E+03  0.14706005744E+03  0.81603340827E+02 0.  0.
          5    1    5    5  501    0  0.15035903150E+02 -0.12198534637E+03 -0.76020846957E+02  0.14459516688E+03  0.47000000000E+01 0. -1.
        -11    1    6    6    0    0  0.44693383601E+02 -0.30151594889E+02 -0.10429008275E+03  0.11740118642E+03  0.00000000000E+00 0.  1.
         12    1    6    6    0    0 -0.11411509335E+02  0.23942156299E+02 -0.13274006066E+02  0.29658871027E+02  0.00000000000E+00 0. -1.
         -5    1    3    3    0  503  0.14528414166E+02  0.12530050878E+03 -0.82508120495E+02  0.15080110167E+03  0.47000000000E+01 0.  1.
         13    1    4    4    0    0 -0.56247685641E+02 -0.53971789330E+01 -0.26629918161E+02  0.62466664884E+02  0.00000000000E+00 0. -1.
        -14    1    4    4    0    0 -0.65985059403E+01  0.82914551161E+01 -0.96500915719E+02  0.97080972611E+02  0.00000000000E+00 0.  1.
</event>
<event>
12    1  0.1035051E+000  0.1802634E+03  0.7818608E-02  0.1168920E+00
         21   -1    0    0  501  502  0.00000000000E+00  0.00000000000E+00  0.40565342719E+02  0.40565342719E+02  0.00000000000E+00 0.  1.
         21   -1    0    0  502  503 -0.00000000000E+00 -0.00000000000E+00 -0.79038880567E+03  0.79038880567E+03  0.00000000000E+00 0.  1.
         -6    2    1    2    0  503  0.35651451523E+02  0.28947305280E+02 -0.42433463712E+03  0.45888173548E+03  0.16853364775E+03 0.  0.
        -24    2    3    3    0    0  0.87526055545E+02  0.11221301348E+02 -0.29345615134E+03  0.31690830910E+03  0.80793784524E+02 0.  0.
          6    2    1    2  501    0 -0.35651451523E+02 -0.28947305280E+02 -0.32548882583E+03  0.37207241291E+03  0.17431561096E+03 0.  0.
         24    2    5    5    0    0 -0.35968206550E+02 -0.84809468850E+02 -0.19125700138E+03  0.22660436024E+03  0.79271291214E+02 0.  0.
          5    1    5    5  501    0  0.31675502723E+00  0.55862163570E+02 -0.13423182445E+03  0.14546805267E+03  0.47000000000E+01 0. -1.
        -11    1    6    6    0    0 -0.29704415433E+02 -0.48543285534E+02 -0.17897588445E+03  0.18780620352E+03  0.00000000000E+00 0.  1.
         12    1    6    6    0    0 -0.62637911173E+01 -0.36266183316E+02 -0.12281116937E+02  0.38798156718E+02  0.00000000000E+00 0. -1.
         -5    1    3    3    0  503 -0.51874604022E+02  0.17726003932E+02 -0.13087848578E+03  0.14197342638E+03  0.47000000000E+01 0.  1.
         13    1    4    4    0    0  0.60386976288E+02  0.32126162239E+02 -0.26065288263E+03  0.26947838954E+03  0.00000000000E+00 0. -1.
        -14    1    4    4    0    0  0.27139079258E+02 -0.20904860891E+02 -0.32803268703E+02  0.47429919560E+02  0.00000000000E+00 0.  1.
</event>
<event>
12    1  0.1035051E+000  0.4907862E+03  0.7818608E-02  0.1016226E+00
         21   -1    0    0  501  502  0.00000000000E+00  0.00000000000E+00  0.24904242913E+03  0.24904242913E+03  0.00000000000E+00 0. -1.
         21   -1    0    0  502  503 -0.00000000000E+00 -0.00000000000E+00 -0.97597028237E+03  0.97597028237E+03  0.00000000000E+00 0. -1.
         -6    2    1    2    0  503  0.34786516696E+03  0.29978993469E+03 -0.30392498368E+03  0.57709099838E+03  0.17256721990E+03 0.  0.
        -24    2    3    3    0    0  0.97089992501E+02  0.46142855511E+02 -0.82562783345E+02  0.15727158168E+03  0.79762819989E+02 0.  0.
          6    2    1    2  501    0 -0.34786516696E+03 -0.29978993469E+03 -0.42300286956E+03  0.64792171312E+03  0.17316737382E+03 0.  0.
         24    2    5    5    0    0 -0.20118571021E+03 -0.14953161107E+03 -0.31842602844E+03  0.41329257481E+03  0.81118580475E+02 0.  0.
          5    1    5    5  501    0 -0.14667945674E+03 -0.15025832362E+03 -0.10457684112E+03  0.23462913832E+03  0.47000000000E+01 0. -1.
        -11    1    6    6    0    0 -0.13946474050E+03 -0.53653763590E+02 -0.18260585290E+03  0.23595346512E+03  0.00000000000E+00 0.  1.
         12    1    6    6    0    0 -0.61720969715E+02 -0.95877847478E+02 -0.13582017554E+03  0.17733910969E+03  0.00000000000E+00 0. -1.
         -5    1    3    3    0  503  0.25077517445E+03  0.25364707918E+03 -0.22136220034E+03  0.41981941670E+03  0.47000000000E+01 0.  1.
         11    1    4    4    0    0  0.97426113731E+02  0.37405032588E+02 -0.95629771252E+02  0.14154870981E+03  0.00000000000E+00 0. -1.
        -12    1    4    4    0    0 -0.33612122923E+00  0.87378229234E+01  0.13066987907E+02  0.15722871871E+02  0.00000000000E+00 0.  1.
</event>
<event>
12    1  0.1035051E+000  0.2075044E+03  0.7818608E-02  0.1145295E+00
         21   -1    0    0  503  502  0.00000000000E+00  0.00000000000E+00  0.23917735681E+03  0.23917735681E+03  0.00000000000E+00 0.  1.
         21   -1    0    0  501  503 -0.00000000000E+00 -0.00000000000E+00 -0.21921196379E+03  0.21921196379E+03  0.00000000000E+00 0.  1.
          6    2    1    2  501    0  0.93158369857E+02  0.29329496065E+02  0.11529827250E+03  0.23003341420E+03  0.17344445448E+03 0.  0.
         24    2    3    3    0    0  0.67865495418E+02  0.35397313262E+01  0.14751676354E+03  0.18140253278E+03  0.80792500923E+02 0.  0.
         -6    2    1    2    0  502 -0.93158369857E+02 -0.29329496065E+02 -0.95332879478E+02  0.22835590640E+03  0.18308293439E+03 0.  0.
        -24    2    5    5    0    0 -0.13478406927E+03 -0.33188396387E+02 -0.54587309373E+02  0.16979071669E+03  0.81122735074E+02 0.  0.
          5    1    3    3  501    0  0.25292874439E+02  0.25789764739E+02 -0.32218491039E+02  0.48630881419E+02  0.47000000000E+01 0. -1.
        -11    1    4    4    0    0 -0.10262321236E+02 -0.72517576241E+01  0.68922343771E+02  0.70058494822E+02  0.00000000000E+00 0.  1.
         12    1    4    4    0    0  0.78127816654E+02  0.10791488950E+02  0.78594419772E+02  0.11134403796E+03  0.00000000000E+00 0. -1.
         -5    1    5    5    0  502  0.41625699409E+02  0.38589003219E+01 -0.40745570105E+02  0.58565189713E+02  0.47000000000E+01 0.  1.
         11    1    6    6    0    0 -0.97239612652E+02  0.13721836187E+02 -0.19208424966E+02  0.10006395278E+03  0.00000000000E+00 0. -1.
        -12    1    6    6    0    0 -0.37544456614E+02 -0.46910232574E+02 -0.35378884407E+02  0.69726763903E+02  0.00000000000E+00 0.  1.
</event>
<event>
12    1  0.1035051E+000  0.2082622E+03  0.7818608E-02  0.1143216E+00
         21   -1    0    0  501  502  0.00000000000E+00  0.00000000000E+00  0.50430110546E+03  0.50430110546E+03  0.00000000000E+00 0. -1.
         21   -1    0    0  502  503 -0.00000000000E+00 -0.00000000000E+00 -0.13263688666E+03  0.13263688666E+03  0.00000000000E+00 0. -1.
         -6    2    1    2    0  503  0.74108876906E+02 -0.85884158954E+02 -0.37181440828E+01  0.20829534553E+03  0.17465655435E+03 0.  0.
        -24    2    3    3    0    0  0.80221565785E+01 -0.99910053054E+02  0.31415960864E+02  0.13200199300E+03  0.79944917679E+02 0.  0.
          6    2    1    2  501    0 -0.74108876906E+02  0.85884158954E+02  0.37538236289E+03  0.42864264659E+03  0.17307335357E+03 0.  0.
         24    2    5    5    0    0 -0.11289574612E+03  0.79581373977E+02  0.34218733167E+03  0.37698854299E+03  0.77133306735E+02 0.  0.
          5    1    5    5  501    0  0.38786869217E+02  0.63027849773E+01  0.33195031213E+02  0.51654103606E+02  0.47000000000E+01 0. -1.
        -11    1    6    6    0    0 -0.84541468612E+02  0.40026055533E+02  0.13550859609E+03  0.16465699089E+03  0.00000000000E+00 0.  1.
         12    1    6    6    0    0 -0.28354277511E+02  0.39555318444E+02  0.20667873559E+03  0.21233155209E+03  0.00000000000E+00 0. -1.
         -5    1    3    3    0  503  0.66086720327E+02  0.14025894100E+02 -0.35134104947E+02  0.76293352524E+02  0.47000000000E+01 0.  1.
         11    1    4    4    0    0 -0.73833374356E+00  0.81151058513E+01 -0.12616277900E+02  0.15019006217E+02  0.00000000000E+00 0. -1.
        -12    1    4    4    0    0  0.87604903221E+01 -0.10802515891E+03  0.44032238764E+02  0.11698298679E+03  0.00000000000E+00 0.  1.
</event>
<event>
12    1  0.1035051E+000  0.2302673E+03  0.7818608E-02  0.1127043E+00
         21   -1    0    0  503  502  0.00000000000E+00  0.00000000000E+00  0.13865214665E+04  0.13865214665E+04  0.00000000000E+00 0.  1.
         21   -1    0    0  501  503 -0.00000000000E+00 -0.00000000000E+00 -0.39685851537E+02  0.39685851537E+02  0.00000000000E+00 0.  1.
          6    2    1    2  501    0  0.91386951169E+02 -0.11636470817E+03  0.50882249494E+03  0.55713366478E+03  0.17206181715E+03 0.  0.
         24    2    3    3    0    0 -0.11248786504E+01 -0.10351316121E+03  0.32972867634E+03  0.35509335500E+03  0.81572365820E+02 0.  0.
         -6    2    1    2    0  502 -0.91386951169E+02  0.11636470817E+03  0.83801312007E+03  0.86907365331E+03  0.17643895633E+03 0.  0.
        -24    2    5    5    0    0 -0.98040717459E+02  0.21053715129E+02  0.58047811337E+03  0.59434682958E+03  0.78981469517E+02 0.  0.
          5    1    3    3  501    0  0.92511829819E+02 -0.12851546961E+02  0.17909381860E+03  0.20204030978E+03  0.47000000000E+01 0. -1.
        -13    1    4    4    0    0  0.20681487762E+02 -0.12994871277E+02  0.19682580465E+02  0.31368688040E+02  0.00000000000E+00 0.  1.
         14    1    4    4    0    0 -0.21806366413E+02 -0.90518289934E+02  0.31004609587E+03  0.32372466696E+03  0.00000000000E+00 0. -1.
         -5    1    5    5    0  502  0.66537662904E+01  0.95310993042E+02  0.25753500670E+03  0.27472682373E+03  0.47000000000E+01 0.  1.
         13    1    6    6    0    0 -0.71552990968E+02  0.28954220449E+02  0.22650679750E+03  0.23929794549E+03  0.00000000000E+00 0. -1.
        -14    1    6    6    0    0 -0.26487726491E+02 -0.79005053202E+01  0.35397131587E+03  0.35504888409E+03  0.00000000000E+00 0.  1.
</event>
<event>
12    1  0.1035051E+000  0.2125554E+03  0.7818608E-02  0.1139881E+00
         21   -1    0    0  503  502  0.00000000000E+00  0.00000000000E+00  0.65450647077E+03  0.65450647077E+03  0.00000000000E+00 0. -1.
         21   -1    0    0  501  503 -0.00000000000E+00 -0.00000000000E+00 -0.72167425311E+02  0.72167425311E+02  0.00000000000E+00 0. -1.
          6    2    1    2  501    0  0.64662192003E+02  0.10668401582E+03  0.21027646824E+03  0.29899163148E+03  0.17209626461E+03 0.  0.
         24    2    3    3    0    0  0.51686706821E+02  0.12018133311E+03  0.22685531581E+03  0.27354582678E+03  0.79050088843E+02 0.  0.
         -6    2    1    2    0  502 -0.64662192003E+02 -0.10668401582E+03  0.37206257722E+03  0.42768226461E+03  0.17005551971E+03 0.  0.
        -24    2    5    5    0    0 -0.21582145733E+02 -0.82598587153E+01  0.74510671954E+02  0.11129258175E+03  0.79373699910E+02 0.  0.
          5    1    3    3  501    0  0.12975485182E+02 -0.13497317293E+02 -0.16578847574E+02  0.25445804697E+02  0.47000000000E+01 0. -1.
        -13    1    4    4    0    0 -0.13772668574E+02  0.19789851489E+02  0.10677209288E+02  0.26369061792E+02  0.00000000000E+00 0.  1.
         14    1    4    4    0    0  0.65459375395E+02  0.10039148162E+03  0.21617810653E+03  0.24717676499E+03  0.00000000000E+00 0. -1.
         -5    1    5    5    0  502 -0.43080046271E+02 -0.98424157103E+02  0.29755190527E+03  0.31638968286E+03  0.47000000000E+01 0.  1.
         13    1    6    6    0    0 -0.17421759888E+02 -0.25152950886E+02 -0.40178863466E+01  0.30859877941E+02  0.00000000000E+00 0. -1.
        -14    1    6    6    0    0 -0.41603858448E+01  0.16893092171E+02  0.78528558300E+02  0.80432703810E+02  0.00000000000E+00 0.  1.
</event>
<event>
12    1  0.1035051E+000  0.2284188E+03  0.7818608E-02  0.1128165E+00
         21   -1    0    0  503  502  0.00000000000E+00  0.00000000000E+00  0.72237983526E+02  0.72237983526E+02  0.00000000000E+00 0.  1.
         21   -1    0    0  501  503 -0.00000000000E+00 -0.00000000000E+00 -0.71840538540E+03  0.71840538540E+03  0.00000000000E+00 0.  1.
          6    2    1    2  501    0 -0.81935089147E+02 -0.12024635437E+03 -0.29450085454E+03  0.37130516767E+03  0.17310178982E+03 0.  0.
         24    2    3    3    0    0 -0.10125836448E+03 -0.10609096903E+03 -0.30240687859E+03  0.34564665797E+03  0.80704038668E+02 0.  0.
         -6    2    1    2    0  502  0.81935089147E+02  0.12024635437E+03 -0.35166654734E+03  0.41933820126E+03  0.17607561429E+03 0.  0.
        -24    2    5    5    0    0  0.40458470987E+02  0.36148324257E+02 -0.60398128464E+02  0.11331178025E+03  0.79044521633E+02 0.  0.
          5    1    3    3  501    0  0.19323275331E+02 -0.14155385336E+02  0.79060240557E+01  0.25658509698E+02  0.47000000000E+01 0. -1.
        -11    1    4    4    0    0 -0.60906983664E+01 -0.41725615361E+02 -0.35715131868E+02  0.55260240935E+02  0.00000000000E+00 0.  1.
         12    1    4    4    0    0 -0.95167666111E+02 -0.64365353674E+02 -0.26669174673E+03  0.29038641704E+03  0.00000000000E+00 0. -1.
         -5    1    5    5    0  502  0.41476618159E+02  0.84098030114E+02 -0.29126841887E+03  0.30602642101E+03  0.47000000000E+01 0.  1.
         11    1    6    6    0    0 -0.16861038989E+02 -0.11154070897E+02 -0.56051944025E+01  0.20979183436E+02  0.00000000000E+00 0. -1.
        -12    1    6    6    0    0  0.57319509976E+02  0.47302395154E+02 -0.54792934062E+02  0.92332596813E+02  0.00000000000E+00 0.  1.
</event>
<event>
12    1  0.1035051E+000  0.1739383E+03  0.7818608E-02  0.1173849E+00
         21   -1    0    0  501  502  0.00000000000E+00  0.00000000000E+00  0.10830844567E+04  0.10830844567E+04  0.00000000000E+00 0. -1.
         21   -1    0    0  502  503 -0.00000000000E+00 -0.00000000000E+00 -0.35341924088E+02  0.35341924088E+02  0.00000000000E+00 0. -1.
         -6    2    1    2    0  503  0.29180866551E+02 -0.34009615215E+00  0.78019658599E+03  0.79930986113E+03  0.17128310682E+03 0.  0.
        -24    2    3    3    0    0  0.42181426044E+02  0.39444466351E+02  0.71437799843E+03  0.72116894721E+03  0.80084874686E+02 0.  0.
          6    2    1    2  501    0 -0.29180866551E+02  0.34009615215E+00  0.26754594667E+03  0.31911651970E+03  0.17147268274E+03 0.  0.
         24    2    5    5    0    0 -0.75525249699E+02  0.25926565950E+02  0.16701470415E+03  0.20540156902E+03  0.88992376011E+02 0.  0.
          5    1    5    5  501    0  0.46344383148E+02 -0.25586469798E+02  0.10053124252E+03  0.11371495069E+03  0.47000000000E+01 0. -1.
        -11    1    6    6    0    0 -0.33714645603E+02 -0.10576006459E+02  0.69825862272E+01  0.36017853228E+02  0.00000000000E+00 0.  1.
         12    1    6    6    0    0 -0.41810604096E+02  0.36502572410E+02  0.16003211792E+03  0.16938371579E+03  0.00000000000E+00 0. -1.
         -5    1    3    3    0  503 -0.13000559493E+02 -0.39784562503E+02  0.65818587561E+02  0.78140913926E+02  0.47000000000E+01 0.  1.
         11    1    4    4    0    0  0.13981508460E+02  0.40540777021E+02  0.14798616026E+03  0.15407446514E+03  0.00000000000E+00 0. -1.
        -12    1    4    4    0    0  0.28199917584E+02 -0.10963106703E+01  0.56639183817E+03  0.56709448207E+03  0.00000000000E+00 0.  1.
</event>
<event>
12    1  0.1035051E+000  0.2113766E+03  0.7818608E-02  0.1140550E+00
         21   -1    0    0  503  502  0.00000000000E+00  0.00000000000E+00  0.20286366090E+03  0.20286366090E+03  0.00000000000E+00 0. -1.
         21   -1    0    0  501  503 -0.00000000000E+00 -0.00000000000E+00 -0.37639747503E+03  0.37639747503E+03  0.00000000000E+00 0. -1.
          6    2    1    2  501    0 -0.20878343926E+02  0.12009481416E+03  0.99959623267E+02  0.23382042349E+03  0.17268872147E+03 0.  0.
         24    2    3    3    0    0  0.40434273577E+01  0.44281438170E+02 -0.15717811269E+02  0.93207047440E+02  0.80394707725E+02 0.  0.
         -6    2    1    2    0  502  0.20878343926E+02 -0.12009481416E+03 -0.27349343739E+03  0.34544071244E+03  0.17225549594E+03 0.  0.
        -24    2    5    5    0    0  0.21691268304E+02  0.35350408343E+01 -0.14311965776E+03  0.16570642437E+03  0.80575275405E+02 0.  0.
          5    1    3    3  501    0 -0.24921771284E+02  0.75813375991E+02  0.11567743454E+03  0.14061337605E+03  0.47000000000E+01 0. -1.
        -11    1    4    4    0    0  0.12206437228E+02  0.57545624944E+02  0.13266341260E+02  0.60303332167E+02  0.00000000000E+00 0.  1.
         12    1    4    4    0    0 -0.81630098704E+01 -0.13264186774E+02 -0.28984152529E+02  0.32903715273E+02  0.00000000000E+00 0. -1.
         -5    1    5    5    0  502 -0.81292437780E+00 -0.12362985499E+03 -0.13037377963E+03  0.17973428807E+03  0.47000000000E+01 0.  1.
         11    1    6    6    0    0  0.96238922980E+01 -0.16910552302E+02 -0.14047758369E+03  0.14181867860E+03  0.00000000000E+00 0. -1.
        -12    1    6    6    0    0  0.12067376006E+02  0.20445593137E+02 -0.26420740687E+01  0.23887745766E+02  0.00000000000E+00 0.  1.
</event>
<event>
12    1  0.1035051E+000  0.1906203E+03  0.7818608E-02  0.1159297E+00
         21   -1    0    0  501  502  0.00000000000E+00  0.00000000000E+00  0.63904333464E+03  0.63904333464E+03  0.00000000000E+00 0. -1.
         21   -1    0    0  502  503 -0.00000000000E+00 -0.00000000000E+00 -0.11735590361E+03  0.11735590361E+03  0.00000000000E+00 0. -1.
         -6    2    1    2    0  503  0.18894071621E+02 -0.63525126620E+02  0.53439685234E+03  0.56535575881E+03  0.17220543130E+03 0.  0.
        -24    2    3    3    0    0  0.49003665937E+02 -0.58791589642E+02  0.52028807223E+03  0.53144201943E+03  0.76636359688E+02 0.  0.
          6    2    1    2  501    0 -0.18894071621E+02  0.63525126620E+02 -0.12709421315E+02  0.19104347944E+03  0.17872787693E+03 0.  0.
         24    2    5    5    0    0 -0.24584211905E+02  0.11238089222E+03  0.61189841335E+00  0.13986915884E+03  0.79556010229E+02 0.  0.
          5    1    5    5  501    0  0.56901402845E+01 -0.48855765604E+02 -0.13321319728E+02  0.51174320596E+02  0.47000000000E+01 0. -1.
        -13    1    6    6    0    0 -0.50523668839E+02  0.64436061193E+02  0.15554518420E+02  0.83346206502E+02  0.00000000000E+00 0.  1.
         14    1    6    6    0    0  0.25939456933E+02  0.47944831031E+02 -0.14942620007E+02  0.56522952341E+02  0.00000000000E+00 0. -1.
         -5    1    3    3    0  503 -0.30109594317E+02 -0.47335369783E+01  0.14108780118E+02  0.33913739379E+02  0.47000000000E+01 0.  1.
         11    1    4    4    0    0  0.66842848380E+01  0.57309130045E+01  0.25520077838E+03  0.25535261956E+03  0.00000000000E+00 0. -1.
        -12    1    4    4    0    0  0.42319381099E+02 -0.64522502647E+02  0.26508729385E+03  0.27608939987E+03  0.00000000000E+00 0.  1.
</event>
<event>
12    1  0.1035051E+000  0.2280707E+03  0.7818608E-02  0.1128079E+00
         21   -1    0    0  501  502  0.00000000000E+00  0.00000000000E+00  0.19152505855E+03  0.19152505855E+03  0.00000000000E+00 0.  1.
         21   -1    0    0  502  503 -0.00000000000E+00 -0.00000000000E+00 -0.27460110994E+03  0.27460110994E+03  0.00000000000E+00 0.  1.
         -6    2    1    2    0  503 -0.13589735631E+03 -0.62775538546E+02 -0.67897160700E+02  0.23796276634E+03  0.17206799250E+03 0.  0.
        -24    2    3    3    0    0 -0.38217077162E+02 -0.80046208684E+02 -0.71226825068E+02  0.13860035068E+03  0.79176108062E+02 0.  0.
          6    2    1    2  501    0  0.13589735631E+03  0.62775538546E+02 -0.15178890689E+02  0.22816340215E+03  0.17152049343E+03 0.  0.
         24    2    5    5    0    0  0.10174768885E+03  0.10826124855E+03 -0.24332789449E+02  0.17036172861E+03  0.79736715561E+02 0.  0.
          5    1    5    5  501    0  0.34149667463E+02 -0.45485710002E+02  0.91538987601E+01  0.57801673546E+02  0.47000000000E+01 0. -1.
        -11    1    6    6    0    0  0.10659391600E+03  0.76263040392E+02 -0.36065308668E+02  0.13593756195E+03  0.00000000000E+00 0.  1.
         12    1    6    6    0    0 -0.48462271582E+01  0.31998208157E+02  0.11732519219E+02  0.34424166658E+02  0.00000000000E+00 0. -1.
         -5    1    3    3    0  503 -0.97680279147E+02  0.17270670138E+02  0.33296643684E+01  0.99362415661E+02  0.47000000000E+01 0.  1.
         13    1    4    4    0    0 -0.42402385982E+02 -0.38393702791E+01 -0.25272919791E+02  0.49511852883E+02  0.00000000000E+00 0. -1.
        -14    1    4    4    0    0  0.41853088196E+01 -0.76206838405E+02 -0.45953905277E+02  0.89088497798E+02  0.00000000000E+00 0.  1.
</event>
<event>
12    1  0.1035051E+000  0.2127049E+03  0.7818608E-02  0.1139622E+00
         21   -1    0    0  503  502  0.00000000000E+00  0.00000000000E+00  0.73156145289E+03  0.73156145289E+03  0.00000000000E+00 0. -1.
         21   -1    0    0  501  503 -0.00000000000E+00 -0.00000000000E+00 -0.71954579110E+02  0.71954579110E+02  0.00000000000E+00 0.  1.
          6    2    1    2  501    0  0.96323518664E+02  0.76867758067E+02  0.48176713031E+03  0.52626100378E+03  0.17223299271E+03 0.  0.
         24    2    3    3    0    0  0.84772661216E+02 -0.78745388146E+00  0.38021364975E+03  0.39781275091E+03  0.80656934992E+02 0.  0.
         -6    2    1    2    0  502 -0.96323518664E+02 -0.76867758067E+02  0.17783974347E+03  0.27725502822E+03  0.17336811655E+03 0.  0.
        -24    2    5    5    0    0  0.65124422517E+01 -0.49438394445E+02  0.13010554813E+03  0.16051493977E+03  0.79693321467E+02 0.  0.
          5    1    3    3  501    0  0.11550857448E+02  0.77655211949E+02  0.10155348056E+03  0.12844825287E+03  0.47000000000E+01 0. -1.
        -11    1    4    4    0    0  0.50028143738E+02  0.24183127712E+02  0.31467772134E+03  0.31954609548E+03  0.00000000000E+00 0.  1.
         12    1    4    4    0    0  0.34744517478E+02 -0.24970581594E+02  0.65535928408E+02  0.78266655430E+02  0.00000000000E+00 0. -1.
         -5    1    5    5    0  502 -0.10283596092E+03 -0.27429363622E+02  0.47734195343E+02  0.11674008845E+03  0.47000000000E+01 0.  1.
         11    1    6    6    0    0 -0.26057408631E+02 -0.24961508535E+02  0.10861563501E+03  0.11445270474E+03  0.00000000000E+00 0. -1.
        -12    1    6    6    0    0  0.32569850883E+02 -0.24476885910E+02  0.21489913117E+02  0.46062235032E+02  0.00000000000E+00 0.  1.
</event>
<event>
12    1  0.1035051E+000  0.3619196E+03  0.7818608E-02  0.1057888E+00
         21   -1    0    0  503  502  0.00000000000E+00  0.00000000000E+00  0.82302380411E+02  0.82302380411E+02  0.00000000000E+00 0. -1.
         21   -1    0    0  501  503 -0.00000000000E+00 -0.00000000000E+00 -0.16149132749E+04  0.16149132749E+04  0.00000000000E+00 0. -1.
          6    2    1    2  501    0  0.91518189555E+02  0.30399929997E+03 -0.87492926603E+03  0.94682998675E+03  0.17376607797E+03 0.  0.
         24    2    3    3    0    0  0.12609276419E+03  0.26523521788E+03 -0.68068647156E+03  0.74570711764E+03  0.80597312386E+02 0.  0.
         -6    2    1    2    0  502 -0.91518189555E+02 -0.30399929997E+03 -0.65768162844E+03  0.75038566855E+03  0.17245977435E+03 0.  0.
        -24    2    5    5    0    0 -0.28320986933E+02 -0.46925659178E+02 -0.16528194772E+03  0.19131476179E+03  0.79240898819E+02 0.  0.
          5    1    3    3  501    0 -0.34574574635E+02  0.38764082091E+02 -0.19424279448E+03  0.20112286911E+03  0.47000000000E+01 0. -1.
        -11    1    4    4    0    0  0.52218842435E+02  0.19449163746E+03 -0.47750673590E+03  0.51823400832E+03  0.00000000000E+00 0.  1.
         12    1    4    4    0    0  0.73873921755E+02  0.70743580412E+02 -0.20317973566E+03  0.22747310933E+03  0.00000000000E+00 0. -1.
         -5    1    5    5    0  502 -0.63197202621E+02 -0.25707364079E+03 -0.49239968073E+03  0.55907090676E+03  0.47000000000E+01 0.  1.
         13    1    6    6    0    0 -0.14312520230E+02 -0.67192141914E+01 -0.14182536504E+03  0.14270399519E+03  0.00000000000E+00 0. -1.
        -14    1    6    6    0    0 -0.14008466703E+02 -0.40206444987E+02 -0.23456582674E+02  0.48610766591E+02  0.00000000000E+00 0.  1.
</event>
<event>
12    1  0.1035051E+000  0.1935689E+03  0.7818608E-02  0.1156000E+00
         21   -1    0    0  503  502  0.00000000000E+00  0.00000000000E+00  0.19235131032E+03  0.19235131032E+03  0.00000000000E+00 0.  1.
         21   -1    0    0  501  503 -0.00000000000E+00 -0.00000000000E+00 -0.31681928609E+03  0.31681928609E+03  0.00000000000E+00 0.  1.
          6    2    1    2  501    0 -0.27584597397E+02  0.77407813102E+02 -0.22263242248E+03  0.29501545336E+03  0.17525992880E+03 0.  0.
         24    2    3    3    0    0 -0.13565898438E+02  0.58995423322E+02 -0.35941901241E+02  0.10683739742E+03  0.80361157594E+02 0.  0.
         -6    2    1    2    0  502  0.27584597397E+02 -0.77407813102E+02  0.98164446708E+02  0.21415514305E+03  0.17167785866E+03 0.  0.
        -24    2    5    5    0    0 -0.29290122304E+02 -0.98287242370E+02  0.71387349075E+02  0.14774891393E+03  0.78837140250E+02 0.  0.
          5    1    3    3  501    0 -0.14018698960E+02  0.18412389780E+02 -0.18669052124E+03  0.18817805594E+03  0.47000000000E+01 0. -1.
        -13    1    4    4    0    0 -0.46234659979E+02  0.45734431593E+02 -0.27336420391E+02  0.70544751019E+02  0.00000000000E+00 0.  1.
         14    1    4    4    0    0  0.32668761542E+02  0.13260991729E+02 -0.86054808502E+01  0.36292646403E+02  0.00000000000E+00 0. -1.
         -5    1    5    5    0  502  0.56874719702E+02  0.20879429268E+02  0.26777097633E+02  0.66406229115E+02  0.47000000000E+01 0.  1.
         13    1    6    6    0    0 -0.85314876175E+01 -0.96031919322E+02  0.29296139734E+02  0.10076298732E+03  0.00000000000E+00 0. -1.
        -14    1    6    6    0    0 -0.20758634687E+02 -0.22553230482E+01  0.42091209341E+02  0.46985926616E+02  0.00000000000E+00 0.  1.
</event>
<event>
12    1  0.1035051E+000  0.1863392E+03  0.7818608E-02  0.1161919E+00
         21   -1    0    0  503  502  0.00000000000E+00  0.00000000000E+00  0.75259956294E+03  0.75259956294E+03  0.00000000000E+00 0. -1.
         21   -1    0    0  501  503 -0.00000000000E+00 -0.00000000000E+00 -0.10089917362E+03  0.10089917362E+03  0.00000000000E+00 0. -1.
          6    2    1    2  501    0  0.13831135556E+02 -0.68938395241E+02  0.64039411134E+03  0.66681680253E+03  0.17203554181E+03 0.  0.
         24    2    3    3    0    0 -0.61030245929E+01 -0.45883583168E+02  0.15521564335E+03  0.18065928598E+03  0.80020819509E+02 0.  0.
         -6    2    1    2    0  502 -0.13831135556E+02  0.68938395241E+02  0.11306277982E+02  0.18668193402E+03  0.17256450944E+03 0.  0.
        -24    2    5    5    0    0 -0.35831358490E+02  0.37035189619E+02  0.71635952705E+02  0.11482385173E+03  0.73466425568E+02 0.  0.
          5    1    3    3  501    0  0.19934160149E+02 -0.23054812073E+02  0.48517846799E+03  0.48615751656E+03  0.47000000000E+01 0. -1.
        -13    1    4    4    0    0  0.28729090872E+02 -0.47010345742E+02  0.11450058668E+03  0.12706580035E+03  0.00000000000E+00 0.  1.
         14    1    4    4    0    0 -0.34832115464E+02  0.11267625738E+01  0.40715056676E+02  0.53593485628E+02  0.00000000000E+00 0. -1.
         -5    1    5    5    0  502  0.22000222934E+02  0.31903205621E+02 -0.60329674723E+02  0.71858082289E+02  0.47000000000E+01 0.  1.
         13    1    6    6    0    0 -0.30455766704E+02  0.59358685499E+02  0.55102488999E+02  0.86529137079E+02  0.00000000000E+00 0. -1.
        -14    1    6    6    0    0 -0.53755917859E+01 -0.22323495879E+02  0.16533463706E+02  0.28294714656E+02  0.00000000000E+00 0.  1.
</event>
<event>
12    1  0.1035051E+000  0.1936624E+03  0.7818608E-02  0.1155299E+00
         21   -1    0    0  501  502  0.00000000000E+00  0.00000000000E+00  0.83430322800E+02  0.83430322800E+02  0.00000000000E+00 0. -1.
         21   -1    0    0  502  503 -0.00000000000E+00 -0.00000000000E+00 -0.48579527547E+03  0.48579527547E+03  0.00000000000E+00 0. -1.
         -6    2    1    2    0  503 -0.25765950290E+02  0.83396950754E+02 -0.12252869132E+03  0.22916892552E+03  0.17287620032E+03 0.  0.
        -24    2    3    3    0    0 -0.58059764224E+02 -0.84751612887E+01 -0.61876805714E+02  0.11434681694E+03  0.76181959012E+02 0.  0.
          6    2    1    2  501    0  0.25765950290E+02 -0.83396950754E+02 -0.27983626134E+03  0.34005667275E+03  0.17236957948E+03 0.  0.
         24    2    5    5    0    0  0.41954537002E+02 -0.10416634240E+03 -0.28140011025E+03  0.31326164350E+03  0.79599153115E+02 0.  0.
          5    1    5    5  501    0 -0.16188586712E+02  0.20769391644E+02  0.15638489078E+01  0.26795029248E+02  0.47000000000E+01 0. -1.
        -13    1    6    6    0    0  0.48663052197E+02 -0.30853189230E+02 -0.78191075457E+02  0.97128040318E+02  0.00000000000E+00 0.  1.
         14    1    6    6    0    0 -0.67085151952E+01 -0.73313153168E+02 -0.20320903479E+03  0.21613360318E+03  0.00000000000E+00 0. -1.
         -5    1    3    3    0  503  0.32293813934E+02  0.91872112043E+02 -0.60651885611E+02  0.11482210858E+03  0.47000000000E+01 0.  1.
         13    1    4    4    0    0 -0.16248873113E+02 -0.39912677722E+02 -0.35107570890E+02  0.55584073746E+02  0.00000000000E+00 0. -1.
        -14    1    4    4    0    0 -0.41810891110E+02  0.31437516433E+02 -0.26769234824E+02  0.58762743197E+02  0.00000000000E+00 0.  1.
</event>
<event>
12    1  0.1035051E+000  0.2446499E+03  0.7818608E-02  0.1116942E+00
         21   -1    0    0  503  502  0.00000000000E+00  0.00000000000E+00  0.10867690892E+04  0.10867690892E+04  0.00000000000E+00 0. -1.
         21   -1    0    0  501  503 -0.00000000000E+00 -0.00000000000E+00 -0.92049999033E+02  0.92049999033E+02  0.00000000000E+00 0. -1.
          6    2    1    2  501    0  0.16561385282E+03 -0.54063628839E+02  0.87315200541E+03  0.90677890481E+03  0.17176359753E+03 0.  0.
         24    2    3    3    0    0  0.14130013254E+02  0.87903422675E+00  0.35194348044E+03  0.36120905009E+03  0.80045827272E+02 0.  0.
         -6    2    1    2    0  502 -0.16561385282E+03  0.54063628839E+02  0.12156708474E+03  0.27204018341E+03  0.16993081265E+03 0.  0.
        -24    2    5    5    0    0 -0.64611699965E+02  0.87320182572E+02  0.86618020310E+02  0.16000911472E+03  0.79377259295E+02 0.  0.
          5    1    3    3  501    0  0.15148383957E+03 -0.54942663066E+02  0.52120852497E+03  0.54556985472E+03  0.47000000000E+01 0. -1.
        -13    1    4    4    0    0  0.40179951758E+02 -0.22602828473E+02  0.20935800415E+03  0.21437371639E+03  0.00000000000E+00 0.  1.
         14    1    4    4    0    0 -0.26049938504E+02  0.23481862699E+02  0.14258547629E+03  0.14683533370E+03  0.00000000000E+00 0. -1.
         -5    1    5    5    0  502 -0.10100215286E+03 -0.33256553733E+02  0.34949064428E+02  0.11203106869E+03  0.47000000000E+01 0.  1.
         11    1    6    6    0    0 -0.18232412626E+02  0.59894136985E+02  0.57993138406E+01  0.62875754917E+02  0.00000000000E+00 0. -1.
        -12    1    6    6    0    0 -0.46379287339E+02  0.27426045587E+02  0.80818706469E+02  0.97133359800E+02  0.00000000000E+00 0.  1.
</event>
<event>
12    1  0.1035051E+000  0.1880011E+03  0.7818608E-02  0.1160293E+00
         21   -1    0    0  501  502  0.00000000000E+00  0.00000000000E+00  0.10162167053E+03  0.10162167053E+03  0.00000000000E+00 0.  1.
         21   -1    0    0  502  503 -0.00000000000E+00 -0.00000000000E+00 -0.36310461990E+03  0.36310461990E+03  0.00000000000E+00 0.  1.
         -6    2    1    2    0  503  0.59995062382E+02 -0.46887706870E+02 -0.17867211828E+03  0.25936102239E+03  0.17189109785E+03 0.  0.
        -24    2    3    3    0    0  0.61321987630E+01 -0.68034932474E+02 -0.79832544131E+02  0.14473220993E+03  0.99538040922E+02 0.  0.
          6    2    1    2  501    0 -0.59995062382E+02  0.46887706870E+02 -0.82810831091E+02  0.20536526805E+03  0.17181209215E+03 0.  0.
         24    2    5    5    0    0 -0.85807764973E+02 -0.19804057006E+01 -0.14287093408E+02  0.11720643033E+03  0.78525994024E+02 0.  0.
          5    1    5    5  501    0  0.25812702590E+02  0.48868112571E+02 -0.68523737683E+02  0.88158837715E+02  0.47000000000E+01 0. -1.
        -11    1    6    6    0    0 -0.68447921553E+02  0.33398767667E+02 -0.15739186361E+02  0.77770930520E+02  0.00000000000E+00 0.  1.
         12    1    6    6    0    0 -0.17359843419E+02 -0.35379173368E+02  0.14520929532E+01  0.39435499815E+02  0.00000000000E+00 0. -1.
         -5    1    3    3    0  503  0.53862863619E+02  0.21147225604E+02 -0.98839574148E+02  0.11462881246E+03  0.47000000000E+01 0.  1.
         13    1    4    4    0    0 -0.44005392389E+02 -0.12173135862E+02 -0.30720058323E+02  0.55030734861E+02  0.00000000000E+00 0. -1.
        -14    1    4    4    0    0  0.50137591152E+02 -0.55861796612E+02 -0.49112485809E+02  0.89701475069E+02  0.00000000000E+00 0.  1.
</event>
<event>
12    1  0.1035051E+000  0.2320168E+03  0.7818608E-02  0.1125376E+00
         21   -1    0    0  503  502  0.00000000000E+00  0.00000000000E+00  0.20257159680E+03  0.20257159680E+03  0.00000000000E+00 0. -1.
         21   -1    0    0  501  503 -0.00000000000E+00 -0.00000000000E+00 -0.45794087461E+03  0.45794087461E+03  0.00000000000E+00 0. -1.
          6    2    1    2  501    0 -0.86343894236E+02 -0.12740429453E+03 -0.34231340893E+03  0.41353388127E+03  0.17362222982E+03 0.  0.
         24    2    3    3    0    0 -0.36629655236E+02  0.66834461535E+01 -0.13160884118E+03  0.15883890167E+03  0.80762054906E+02 0.  0.
         -6    2    1    2    0  502  0.86343894236E+02  0.12740429453E+03  0.86944131116E+02  0.24697859014E+03  0.17248773787E+03 0.  0.
        -24    2    5    5    0    0  0.78056752442E+02  0.11665350952E+03  0.31819756193E+01  0.16199362211E+03  0.80814050456E+02 0.  0.
          5    1    3    3  501    0 -0.49714239000E+02 -0.13408774068E+03 -0.21070456775E+03  0.25469497960E+03  0.47000000000E+01 0. -1.
        -11    1    4    4    0    0 -0.37184297268E+02 -0.34974685339E+01 -0.12633205976E+02  0.39427175181E+02  0.00000000000E+00 0.  1.
         12    1    4    4    0    0  0.55464203252E+00  0.10180914687E+02 -0.11897563520E+03  0.11941172649E+03  0.00000000000E+00 0. -1.
         -5    1    5    5    0  502  0.82871417941E+01  0.10750785010E+02  0.83762155497E+02  0.84984968029E+02  0.47000000000E+01 0.  1.
         13    1    6    6    0    0  0.46252207418E+02  0.31858814018E+02  0.34799426709E+02  0.66070044808E+02  0.00000000000E+00 0. -1.
        -14    1    6    6    0    0  0.31804545024E+02  0.84794695499E+02 -0.31617451090E+02  0.95923577302E+02  0.00000000000E+00 0.  1.
</event>
<event>
12    1  0.1035051E+000  0.2769990E+03  0.7818608E-02  0.1097691E+00
         21   -1    0    0  501  502  0.00000000000E+00  0.00000000000E+00  0.48561833539E+02  0.48561833539E+02  0.00000000000E+00 0.  1.
         21   -1    0    0  502  503 -0.00000000000E+00 -0.00000000000E+00 -0.16695676150E+04  0.16695676150E+04  0.00000000000E+00 0.  1.
         -6    2    1    2    0  503 -0.96719706335E+02  0.19486100529E+03 -0.59964305865E+03  0.66053029299E+03  0.17147290513E+03 0.  0.
        -24    2    3    3    0    0 -0.80911376436E+02  0.13049768726E+03 -0.55222783527E+03  0.57890411208E+03  0.81228638527E+02 0.  0.
          6    2    1    2  501    0  0.96719706335E+02 -0.19486100529E+03 -0.10213627228E+04  0.10575991555E+04  0.16735784801E+03 0.  0.
         24    2    5    5    0    0  0.71276480295E+02 -0.13260891956E+03 -0.92167303446E+03  0.93725463388E+03  0.79370045356E+02 0.  0.
          5    1    5    5  501    0  0.25443226040E+02 -0.62252085732E+02 -0.99689688312E+02  0.12034452162E+03  0.47000000000E+01 0. -1.
        -11    1    6    6    0    0  0.24800519015E+02 -0.11750456725E+03 -0.70336411623E+03  0.71354289925E+03  0.00000000000E+00 0.  1.
         12    1    6    6    0    0  0.46475961280E+02 -0.15104352307E+02 -0.21830891822E+03  0.22371173463E+03  0.00000000000E+00 0. -1.
         -5    1    3    3    0  503 -0.15808329899E+02  0.64363318029E+02 -0.47415223375E+02  0.81626180908E+02  0.47000000000E+01 0.  1.
         13    1    4    4    0    0 -0.23396929451E+02  0.10737747272E+03 -0.39167362246E+03  0.40679916972E+03  0.00000000000E+00 0. -1.
        -14    1    4    4    0    0 -0.57514446985E+02  0.23120214539E+02 -0.16055421281E+03  0.17210494236E+03  0.00000000000E+00 0.  1.
</event>
<event>
12    1  0.1035051E+000  0.2445719E+03  0.7818608E-02  0.1116891E+00
         21   -1    0    0  503  502  0.00000000000E+00  0.00000000000E+00  0.25588873092E+03  0.25588873092E+03  0.00000000000E+00 0. -1.
         21   -1    0    0  501  503 -0.00000000000E+00 -0.00000000000E+00 -0.44389101661E+03  0.44389101661E+03  0.00000000000E+00 0. -1.
          6    2    1    2  501    0  0.11593197841E+03  0.12982178062E+03  0.14716033039E+03  0.28487084993E+03  0.17088393711E+03 0.  0.
         24    2    3    3    0    0  0.51670331610E+01  0.84607667670E+02  0.55172115730E+02  0.13388372882E+03  0.87725337440E+02 0.  0.
         -6    2    1    2    0  502 -0.11593197841E+03 -0.12982178062E+03 -0.33516261608E+03  0.41490889759E+03  0.17181820551E+03 0.  0.
        -24    2    5    5    0    0 -0.12221290792E+03 -0.65292997864E+02 -0.30310510442E+03  0.34243001837E+03  0.78653942854E+02 0.  0.
          5    1    3    3  501    0  0.11076494525E+03  0.45214112948E+02  0.91988214658E+02  0.15098712111E+03  0.47000000000E+01 0. -1.
        -13    1    4    4    0    0 -0.16153914702E+02  0.86719349263E+02  0.65721303305E+02  0.11000220091E+03  0.00000000000E+00 0.  1.
         14    1    4    4    0    0  0.21320947863E+02 -0.21116815936E+01 -0.10549187575E+02  0.23881527912E+02  0.00000000000E+00 0. -1.
         -5    1    5    5    0  502  0.62809295073E+01 -0.64528782754E+02 -0.32057511662E+02  0.72478879222E+02  0.47000000000E+01 0.  1.
         13    1    6    6    0    0 -0.20555428168E+02  0.18156218168E+02 -0.43815772261E+02  0.51691351154E+02  0.00000000000E+00 0. -1.
        -14    1    6    6    0    0 -0.10165747975E+03 -0.83449216031E+02 -0.25928933216E+03  0.29073866722E+03  0.00000000000E+00 0.  1.
</event>
<event>
12    1  0.1035051E+000  0.1937167E+03  0.7818608E-02  0.1155182E+00
         21   -1    0    0  501  502  0.00000000000E+00  0.00000000000E+00  0.12473455524E+03  0.12473455524E+03  0.00000000000E+00 0. -1.
         21   -1    0    0  502  503 -0.00000000000E+00 -0.00000000000E+00 -0.31803433646E+03  0.31803433646E+03  0.00000000000E+00 0. -1.
         -6    2    1    2    0  503 -0.22443566856E+02  0.85173415553E+02 -0.44894089995E+02  0.19885080858E+03  0.17253388173E+03 0.  0.
        -24    2    3    3    0    0 -0.97146053008E+01 -0.23975264578E+02 -0.20175919825E+02  0.86118653566E+02  0.79625171168E+02 0.  0.
          6    2    1    2  501    0  0.22443566856E+02 -0.85173415553E+02 -0.14840569123E+03  0.24391808312E+03  0.17237620971E+03 0.  0.
         24    2    5    5    0    0 -0.21339171017E+02 -0.45100886319E+02 -0.14912103991E+02  0.97749127566E+02  0.82722856140E+02 0.  0.
          5    1    5    5  501    0  0.43782737873E+02 -0.40072529234E+02 -0.13349358724E+03  0.14616895555E+03  0.47000000000E+01 0. -1.
        -11    1    6    6    0    0  0.18167729473E+02 -0.51229814521E+02 -0.18954254060E+02  0.57565823515E+02  0.00000000000E+00 0.  1.
         12    1    6    6    0    0 -0.39506900490E+02  0.61289282017E+01  0.40421500688E+01  0.40183304050E+02  0.00000000000E+00 0. -1.
         -5    1    3    3    0  503 -0.12728961555E+02  0.10914868013E+03 -0.24718170170E+02  0.11273215501E+03  0.47000000000E+01 0.  1.
         11    1    4    4    0    0 -0.35362785854E+02 -0.32905877653E+02 -0.30428272305E+02  0.57089431272E+02  0.00000000000E+00 0. -1.
        -12    1    4    4    0    0  0.25648180553E+02  0.89306130750E+01  0.10252352481E+02  0.29029222294E+02  0.00000000000E+00 0.  1.
</event>
<event>
12    1  0.1035051E+000  0.2112194E+03  0.7818608E-02  0.1140674E+00
         21   -1    0    0  503  502  0.00000000000E+00  0.00000000000E+00  0.39381410426E+02  0.39381410426E+02  0.00000000000E+00 0. -1.
         21   -1    0    0  501  503 -0.00000000000E+00 -0.00000000000E+00 -0.12201510473E+04  0.12201510473E+04  0.00000000000E+00 0. -1.
          6    2    1    2  501    0 -0.60790004878E+02  0.10686372613E+03 -0.41964317929E+03  0.46964187247E+03  0.17131202467E+03 0.  0.
         24    2    3    3    0    0 -0.92437881917E+02  0.51833055369E+02 -0.35408291460E+03  0.37826243741E+03  0.80475670239E+02 0.  0.
         -6    2    1    2    0  502  0.60790004878E+02 -0.10686372613E+03 -0.76112645759E+03  0.78989058526E+03  0.17175089981E+03 0.  0.
        -24    2    5    5    0    0  0.41786153151E+02 -0.14197820471E+03 -0.63581293113E+03  0.65828609103E+03  0.84726625393E+02 0.  0.
          5    1    3    3  501    0  0.31647877039E+02  0.55030670764E+02 -0.65560264688E+02  0.91379435059E+02  0.47000000000E+01 0. -1.
        -11    1    4    4    0    0 -0.95110298420E+02  0.52274908815E+02 -0.23179408375E+03  0.25594361140E+03  0.00000000000E+00 0.  1.
         12    1    4    4    0    0  0.26724165032E+01 -0.44185344541E+00 -0.12228883085E+03  0.12231882600E+03  0.00000000000E+00 0. -1.
         -5    1    5    5    0  502  0.19003851726E+02  0.35114478581E+02 -0.12531352646E+03  0.13160449423E+03  0.47000000000E+01 0.  1.
         13    1    6    6    0    0  0.11428899245E+02 -0.86796919744E+01 -0.22224248332E+03  0.22270536182E+03  0.00000000000E+00 0. -1.
        -14    1    6    6    0    0  0.30357253907E+02 -0.13329851274E+03 -0.41357044781E+03  0.43558072921E+03  0.00000000000E+00 0.  1.
</event>
<event>
12    1  0.1035051E+000  0.3134969E+03  0.7818608E-02  0.1078686E+00
         21   -1    0    0  503  502  0.00000000000E+00  0.00000000000E+00  0.85504859769E+02  0.85504859769E+02  0.00000000000E+00 0. -1.
         21   -1    0    0  501  503 -0.00000000000E+00 -0.00000000000E+00 -0.13896085586E+04  0.13896085586E+04  0.00000000000E+00 0.  1.
          6    2    1    2  501    0 -0.19868119129E+03 -0.17106666323E+03 -0.95874433173E+03  0.10086872436E+04  0.17181746953E+03 0.  0.
         24    2    3    3    0    0 -0.19065096160E+02 -0.58916780512E+02 -0.33932238568E+03  0.35405362469E+03  0.79872541057E+02 0.  0.
         -6    2    1    2    0  502  0.19868119129E+03  0.17106666323E+03 -0.34535936715E+03  0.46642617477E+03  0.17187863448E+03 0.  0.
        -24    2    5    5    0    0  0.21183185991E+03  0.11416521813E+03 -0.25988429476E+03  0.36279802928E+03  0.78588354599E+02 0.  0.
          5    1    3    3  501    0 -0.17961609513E+03 -0.11214988272E+03 -0.61942194605E+03  0.65463361896E+03  0.47000000000E+01 0. -1.
        -13    1    4    4    0    0 -0.36513218459E+02 -0.62469266314E+02 -0.31868572478E+03  0.32679690258E+03  0.00000000000E+00 0.  1.
         14    1    4    4    0    0  0.17448122299E+02  0.35524858021E+01 -0.20636660897E+02  0.27256722108E+02  0.00000000000E+00 0. -1.
         -5    1    5    5    0  502 -0.13150668615E+02  0.56901445096E+02 -0.85475072388E+02  0.10362814550E+03  0.47000000000E+01 0.  1.
         11    1    6    6    0    0  0.23055576976E+02  0.19392161889E+02 -0.30824177669E+01  0.30283937520E+02  0.00000000000E+00 0. -1.
        -12    1    6    6    0    0  0.18877628293E+03  0.94773056245E+02 -0.25680187700E+03  0.33251409176E+03  0.00000000000E+00 0.  1.
</event>
<event>
12    1  0.1035051E+000  0.4340801E+03  0.7818608E-02  0.1032625E+00
         21   -1    0    0  503  502  0.00000000000E+00  0.00000000000E+00  0.40538691343E+03  0.40538691343E+03  0.00000000000E+00 0.  1.
         21   -1    0    0  501  503 -0.00000000000E+00 -0.00000000000E+00 -0.49767336216E+03  0.49767336216E+03  0.00000000000E+00 0.  1.
          6    2    1    2  501    0  0.17209967932E+03 -0.35912935899E+03  0.70975616457E+02  0.43984432253E+03  0.17272317107E+03 0.  0.
         24    2    3    3    0    0  0.15586760594E+03 -0.24862067704E+03  0.10427406028E+03  0.32319731077E+03  0.86466585500E+02 0.  0.
         -6    2    1    2    0  502 -0.17209967932E+03  0.35912935899E+03 -0.16326206519E+03  0.46321595305E+03  0.17123761598E+03 0.  0.
        -24    2    5    5    0    0 -0.16324155458E+03  0.36973651372E+03 -0.13812210120E+03  0.43414559195E+03  0.77793222389E+02 0.  0.
          5    1    3    3  501    0  0.16232073379E+02 -0.11050868195E+03 -0.33298443824E+02  0.11664701176E+03  0.47000000000E+01 0. -1.
        -13    1    4    4    0    0  0.11942857043E+03 -0.14300308448E+03  0.99848158487E+02  0.21138287622E+03  0.00000000000E+00 0.  1.
         14    1    4    4    0    0  0.36439035514E+02 -0.10561759256E+03  0.44259017942E+01  0.11181443455E+03  0.00000000000E+00 0. -1.
         -5    1    5    5    0  502 -0.88581247409E+01 -0.10607154733E+02 -0.25139963987E+02  0.29070361104E+02  0.47000000000E+01 0.  1.
         13    1    6    6    0    0 -0.57755226475E+02  0.22502579176E+03 -0.84559325674E+02  0.24722975690E+03  0.00000000000E+00 0. -1.
        -14    1    6    6    0    0 -0.10548632811E+03  0.14471072196E+03 -0.53562775530E+02  0.18691583505E+03  0.00000000000E+00 0.  1.
</event>
<event>
12    1  0.1035051E+000  0.1736694E+03  0.7818608E-02  0.1174510E+00
         21   -1    0    0  503  502  0.00000000000E+00  0.00000000000E+00  0.17358298417E+03  0.17358298417E+03  0.00000000000E+00 0.  1.
         21   -1    0    0  501  503 -0.00000000000E+00 -0.00000000000E+00 -0.18742048544E+03  0.18742048544E+03  0.00000000000E+00 0.  1.
          6    2    1    2  501    0 -0.39819306361E+01  0.13816204932E+02  0.44799587174E+02  0.17770220759E+03  0.17136022958E+03 0.  0.
         24    2    3    3    0    0  0.35190664000E+02 -0.97930185056E+00  0.82497982696E+02  0.12116321028E+03  0.81457132970E+02 0.  0.
         -6    2    1    2    0  502  0.39819306361E+01 -0.13816204932E+02 -0.58637088445E+02  0.18330126203E+03  0.17307310949E+03 0.  0.
        -24    2    5    5    0    0 -0.61659436217E+02 -0.25846013436E+02 -0.21514616418E+02  0.10679196021E+03  0.80447135194E+02 0.  0.
          5    1    3    3  501    0 -0.39172594636E+02  0.14795506783E+02 -0.37698395523E+02  0.56538997307E+02  0.47000000000E+01 0. -1.
        -11    1    4    4    0    0 -0.24133792867E+02  0.12240849935E+02  0.33689030803E+02  0.43211447114E+02  0.00000000000E+00 0.  1.
         12    1    4    4    0    0  0.59324456867E+02 -0.13220151786E+02  0.48808951894E+02  0.77951763166E+02  0.00000000000E+00 0. -1.
         -5    1    5    5    0  502  0.65641366853E+02  0.12029808504E+02 -0.37122472027E+02  0.76509301816E+02  0.47000000000E+01 0.  1.
         13    1    6    6    0    0 -0.17468157865E+02  0.28159893543E+02 -0.15983775038E+02  0.36791265377E+02  0.00000000000E+00 0. -1.
        -14    1    6    6    0    0 -0.44191278352E+02 -0.54005906978E+02 -0.55308413805E+01  0.70000694834E+02  0.00000000000E+00 0.  1.
</event>
<event>
12    1  0.1035051E+000  0.1846581E+03  0.7818608E-02  0.1168302E+00
         21   -1    0    0  503  502  0.00000000000E+00  0.00000000000E+00  0.60942788539E+03  0.60942788539E+03  0.00000000000E+00 0. -1.
         21   -1    0    0  501  503 -0.00000000000E+00 -0.00000000000E+00 -0.62725768625E+02  0.62725768625E+02  0.00000000000E+00 0. -1.
          6    2    1    2  501    0  0.30329678492E+02 -0.61229162390E+02  0.41152782930E+03  0.44330718280E+03  0.14999068074E+03 0.  0.
         24    2    3    3    0    0  0.16068829281E+02 -0.41090141844E+02  0.11961427413E+03  0.15031475002E+03  0.79626267454E+02 0.  0.
         -6    2    1    2    0  502 -0.30329678492E+02  0.61229162390E+02  0.13517428746E+03  0.22884647121E+03  0.17155092443E+03 0.  0.
        -24    2    5    5    0    0 -0.78545051689E+02  0.20865459665E+02  0.12460378929E+03  0.16491075239E+03  0.71167123001E+02 0.  0.
          5    1    3    3  501    0  0.14260849211E+02 -0.20139020546E+02  0.29191355518E+03  0.29299243278E+03  0.47000000000E+01 0. -1.
        -13    1    4    4    0    0  0.47768042987E+01 -0.56511599943E+01  0.11213104534E+03  0.11237492957E+03  0.00000000000E+00 0.  1.
         14    1    4    4    0    0  0.11292024983E+02 -0.35438981849E+02  0.74832287921E+01  0.37939820451E+02  0.00000000000E+00 0. -1.
         -5    1    5    5    0  502  0.48215373196E+02  0.40363702724E+02  0.10570498170E+02  0.63935718825E+02  0.47000000000E+01 0.  1.
         11    1    6    6    0    0 -0.41075222901E+02  0.24475055899E+00  0.11352840433E+03  0.12073082634E+03  0.00000000000E+00 0. -1.
        -12    1    6    6    0    0 -0.37469828788E+02  0.20620709106E+02  0.11075384957E+02  0.44179926046E+02  0.00000000000E+00 0.  1.
</event>
<event>
12    1  0.1035051E+000  0.2468288E+03  0.7818608E-02  0.1116124E+00
         21   -1    0    0  503  502  0.00000000000E+00  0.00000000000E+00  0.65702907791E+03  0.65702907791E+03  0.00000000000E+00 0. -1.
         21   -1    0    0  501  503 -0.00000000000E+00 -0.00000000000E+00 -0.10614094306E+03  0.10614094306E+03  0.00000000000E+00 0. -1.
          6    2    1    2  501    0 -0.14218228327E+03  0.94303900939E+02  0.42246359691E+03  0.48928515235E+03  0.17836883749E+03 0.  0.
         24    2    3    3    0    0 -0.89751492735E+01  0.59854744495E+02  0.24471357670E+03  0.26445622937E+03  0.79932589625E+02 0.  0.
         -6    2    1    2    0  502  0.14218228327E+03 -0.94303900939E+02  0.12842453794E+03  0.27388486862E+03  0.17149644867E+03 0.  0.
        -24    2    5    5    0    0  0.10546138428E+03 -0.11003968812E+02  0.12549425321E+03  0.18268190988E+03  0.79879169390E+02 0.  0.
          5    1    3    3  501    0 -0.13320713399E+03  0.34449156444E+02  0.17775002021E+03  0.22482892298E+03  0.47000000000E+01 0. -1.
        -11    1    4    4    0    0 -0.23632887057E+02  0.53702474092E+02  0.81241325493E+02  0.10021288361E+03  0.00000000000E+00 0.  1.
         12    1    4    4    0    0  0.14657737784E+02  0.61522704033E+01  0.16347225121E+03  0.16424334575E+03  0.00000000000E+00 0. -1.
         -5    1    5    5    0  502  0.36720898987E+02 -0.83299932127E+02  0.29302847270E+01  0.91202958742E+02  0.47000000000E+01 0.  1.
         13    1    6    6    0    0  0.73839418591E+02 -0.26837364775E+02  0.35935377414E+02  0.86393606452E+02  0.00000000000E+00 0. -1.
        -14    1    6    6    0    0  0.31621965690E+02  0.15833395963E+02  0.89558875800E+02  0.96288303424E+02  0.00000000000E+00 0.  1.
</event>
<event>
12    1  0.1035051E+000  0.2091232E+03  0.7818608E-02  0.1142449E+00
         21   -1    0    0  503  502  0.00000000000E+00  0.00000000000E+00  0.37093439507E+03  0.37093439507E+03  0.00000000000E+00 0. -1.
         21   -1    0    0  501  503 -0.00000000000E+00 -0.00000000000E+00 -0.14841889837E+03  0.14841889837E+03  0.00000000000E+00 0. -1.
          6    2    1    2  501    0 -0.80020494016E+02  0.87489580247E+02  0.22983115352E+03  0.31010216638E+03  0.17112360547E+03 0.  0.
         24    2    3    3    0    0 -0.15650398893E+02  0.10670252073E+03  0.18783028935E+03  0.23073713113E+03  0.79555283730E+02 0.  0.
         -6    2    1    2    0  502  0.80020494016E+02 -0.87489580247E+02 -0.73156568272E+01  0.20925112706E+03  0.17226377805E+03 0.  0.
        -24    2    5    5    0    0 -0.16609048840E+02 -0.78541303304E+02 -0.26195364617E+01  0.11198096844E+03  0.78027421418E+02 0.  0.
          5    1    3    3  501    0 -0.64370095123E+02 -0.19212940483E+02  0.42000864168E+02  0.79365035243E+02  0.47000000000E+01 0. -1.
        -11    1    4    4    0    0 -0.25027090844E+02  0.98333082049E+02  0.10158260559E+03  0.14357846656E+03  0.00000000000E+00 0.  1.
         12    1    4    4    0    0  0.93766919511E+01  0.83694386811E+01  0.86247683759E+02  0.87158664569E+02  0.00000000000E+00 0. -1.
         -5    1    5    5    0  502  0.96629542856E+02 -0.89482769434E+01 -0.46961203655E+01  0.97270158627E+02  0.47000000000E+01 0.  1.
         11    1    6    6    0    0 -0.34366107948E+02 -0.29854634593E+02  0.26360927585E+02  0.52604439787E+02  0.00000000000E+00 0. -1.
        -12    1    6    6    0    0  0.17757059108E+02 -0.48686668711E+02 -0.28980464047E+02  0.59376528651E+02  0.00000000000E+00 0.  1.
</event>
<event>
12    1  0.1035051E+000  0.1830838E+03  0.7818608E-02  0.1166907E+00
         21   -1    0    0  503  502  0.00000000000E+00  0.00000000000E+00  0.22791888452E+03  0.22791888452E+03  0.00000000000E+00 0.  1.
         21   -1    0    0  501  503 -0.00000000000E+00 -0.00000000000E+00 -0.14496534192E+03  0.14496534192E+03  0.00000000000E+00 0.  1.
          6    2    1    2  501    0  0.31670938103E+02 -0.76784714385E+01  0.72535680708E+01  0.17476770443E+03  0.17154920291E+03 0.  0.
         24    2    3    3    0    0  0.63248352721E+02 -0.38440173239E+02  0.43354882132E+02  0.11759419406E+03  0.80440957419E+02 0.  0.
         -6    2    1    2    0  502 -0.31670938103E+02  0.76784714385E+01  0.75699974526E+02  0.19811652201E+03  0.18016010353E+03 0.  0.
        -24    2    5    5    0    0 -0.36824887493E+02  0.50649074444E+02 -0.90756148377E+01  0.10281685533E+03  0.81040347198E+02 0.  0.
          5    1    3    3  501    0 -0.31577414618E+02  0.30761701800E+02 -0.36101314061E+02  0.57173510374E+02  0.47000000000E+01 0. -1.
        -13    1    4    4    0    0  0.47308884024E+02  0.14013685635E+02  0.38449433944E+02  0.62552960468E+02  0.00000000000E+00 0.  1.
         14    1    4    4    0    0  0.15939468698E+02 -0.52453858873E+02  0.49054481880E+01  0.55041233589E+02  0.00000000000E+00 0. -1.
         -5    1    5    5    0  502  0.51539493894E+01 -0.42970603005E+02  0.84775589364E+02  0.95299666678E+02  0.47000000000E+01 0.  1.
         13    1    6    6    0    0 -0.51120766849E+01  0.85692175606E+01  0.33575280870E+02  0.35026622777E+02  0.00000000000E+00 0. -1.
        -14    1    6    6    0    0 -0.31712810808E+02  0.42079856883E+02 -0.42650895708E+02  0.67790232551E+02  0.00000000000E+00 0.  1.
</event>
<event>
12    1  0.1035051E+000  0.2027667E+03  0.7818608E-02  0.1147764E+00
         21   -1    0    0  503  502  0.00000000000E+00  0.00000000000E+00  0.25343798228E+03  0.25343798228E+03  0.00000000000E+00 0.  1.
         21   -1    0    0  501  503 -0.00000000000E+00 -0.00000000000E+00 -0.16435824849E+03  0.16435824849E+03  0.00000000000E+00 0.  1.
          6    2    1    2  501    0 -0.67500757374E+02  0.82691907636E+02  0.74548648221E+02  0.21450953040E+03  0.17047737048E+03 0.  0.
         24    2    3    3    0    0 -0.13654894733E+01  0.78752337480E+02 -0.34495318523E+01  0.11206344717E+03  0.79639950415E+02 0.  0.
         -6    2    1    2    0  502  0.67500757374E+02 -0.82691907636E+02  0.14531085567E+02  0.20328670038E+03  0.17239497171E+03 0.  0.
        -24    2    5    5    0    0  0.67788204277E+02 -0.91656598466E+02 -0.41437487117E+02  0.14640946912E+03  0.81990820392E+02 0.  0.
          5    1    3    3  501    0 -0.66135267900E+02  0.39395701556E+01  0.77998180073E+02  0.10244608322E+03  0.47000000000E+01 0. -1.
        -11    1    4    4    0    0  0.28661609859E+02  0.13277820189E+01 -0.43190604729E+01  0.29015602151E+02  0.00000000000E+00 0.  1.
         12    1    4    4    0    0 -0.30027099332E+02  0.77424555461E+02  0.86952862056E+00  0.83047845022E+02  0.00000000000E+00 0. -1.
         -5    1    5    5    0  502 -0.28744690358E+00  0.89646908306E+01  0.55968572683E+02  0.56877231259E+02  0.47000000000E+01 0.  1.
         13    1    6    6    0    0  0.38265831882E+02  0.52352500948E+01 -0.59214077107E+01  0.39073581900E+02  0.00000000000E+00 0. -1.
        -14    1    6    6    0    0  0.29522372395E+02 -0.96891848561E+02 -0.35516079406E+02  0.10733588722E+03  0.00000000000E+00 0.  1.
</event>
<event>
12    1  0.1035051E+000  0.2836609E+03  0.7818608E-02  0.1093796E+00
         21   -1    0    0  503  502  0.00000000000E+00  0.00000000000E+00  0.71409727795E+03  0.71409727795E+03  0.00000000000E+00 0.  1.
         21   -1    0    0  501  503 -0.00000000000E+00 -0.00000000000E+00 -0.14608357704E+03  0.14608357704E+03  0.00000000000E+00 0.  1.
          6    2    1    2  501    0  0.22322441397E+02 -0.22466455348E+03  0.77271179872E+02  0.29335484952E+03  0.17062760480E+03 0.  0.
         24    2    3    3    0    0  0.52296776949E+02 -0.20689434568E+03  0.10601910321E+03  0.24793707576E+03  0.68501971808E+02 0.  0.
         -6    2    1    2    0  502 -0.22322441397E+02  0.22466455348E+03  0.49074252104E+03  0.56682600546E+03  0.17172957092E+03 0.  0.
        -24    2    5    5    0    0  0.11341854660E+02  0.22194508280E+03  0.47221271612E+03  0.52801719177E+03  0.80181345030E+02 0.  0.
          5    1    3    3  501    0 -0.29974335552E+02 -0.17770207806E+02 -0.28747923333E+02  0.45417773759E+02  0.47000000000E+01 0. -1.
        -11    1    4    4    0    0  0.42493037604E+02 -0.47799714546E+02  0.21204043179E+02  0.67380133591E+02  0.00000000000E+00 0.  1.
         12    1    4    4    0    0  0.98037393448E+01 -0.15909463113E+03  0.84815060027E+02  0.18055694217E+03  0.00000000000E+00 0. -1.
         -5    1    5    5    0  502 -0.33664296057E+02  0.27194706793E+01  0.18529804925E+02  0.38808813694E+02  0.47000000000E+01 0.  1.
         13    1    6    6    0    0 -0.27048491096E+02  0.14992115532E+03  0.34115221003E+03  0.37362120402E+03  0.00000000000E+00 0. -1.
        -14    1    6    6    0    0  0.38390345756E+02  0.72023927480E+02  0.13106050609E+03  0.15439598775E+03  0.00000000000E+00 0.  1.
</event>
<event>
12    1  0.1035051E+000  0.2540266E+03  0.7818608E-02  0.1110796E+00
         21   -1    0    0  501  502  0.00000000000E+00  0.00000000000E+00  0.12861353506E+04  0.12861353506E+04  0.00000000000E+00 0.  1.
         21   -1    0    0  502  503 -0.00000000000E+00 -0.00000000000E+00 -0.53957284826E+02  0.53957284826E+02  0.00000000000E+00 0.  1.
         -6    2    1    2    0  503 -0.93672022934E+02  0.16157813466E+03  0.79388002934E+03  0.83353165945E+03  0.17218474043E+03 0.  0.
        -24    2    3    3    0    0  0.16002448077E+02  0.66444298459E+02  0.40703657931E+03  0.42031394297E+03  0.79461378137E+02 0.  0.
          6    2    1    2  501    0  0.93672022934E+02 -0.16157813466E+03  0.43829803646E+03  0.50656097600E+03  0.17209564829E+03 0.  0.
         24    2    5    5    0    0 -0.19135590779E+02 -0.69380856950E+02  0.20960516365E+03  0.23536286427E+03  0.79255782792E+02 0.  0.
          5    1    5    5  501    0  0.11280761371E+03 -0.92197277714E+02  0.22869287281E+03  0.27119811173E+03  0.47000000000E+01 0. -1.
        -11    1    6    6    0    0 -0.67928401925E+01 -0.74427766105E+02  0.99443771615E+02  0.12439734225E+03  0.00000000000E+00 0.  1.
         12    1    6    6    0    0 -0.12342750586E+02  0.50469091553E+01  0.11016139203E+03  0.11096552203E+03  0.00000000000E+00 0. -1.
         -5    1    3    3    0  503 -0.10967447101E+03  0.95133836204E+02  0.38684345002E+03  0.41321771648E+03  0.47000000000E+01 0.  1.
         13    1    4    4    0    0 -0.20461383539E+02  0.63964307895E+02  0.23323049553E+03  0.24270674680E+03  0.00000000000E+00 0. -1.
        -14    1    4    4    0    0  0.36463831616E+02  0.24799905646E+01  0.17380608379E+03  0.17760719617E+03  0.00000000000E+00 0.  1.
</event>
<event>
12    1  0.1035051E+000  0.2219926E+03  0.7818608E-02  0.1133396E+00
         21   -1    0    0  501  502  0.00000000000E+00  0.00000000000E+00  0.20979699219E+04  0.20979699219E+04  0.00000000000E+00 0.  1.
         21   -1    0    0  502  503 -0.00000000000E+00 -0.00000000000E+00 -0.30070058367E+02  0.30070058367E+02  0.00000000000E+00 0.  1.
         -6    2    1    2    0  503 -0.11715864585E+03 -0.75581986605E+02  0.15618780785E+04  0.15775753053E+04  0.17274816062E+03 0.  0.
        -24    2    3    3    0    0 -0.12809171398E+03 -0.11076855914E+02  0.12306964044E+04  0.12399603840E+04  0.79736630055E+02 0.  0.
          6    2    1    2  501    0  0.11715864585E+03  0.75581986605E+02  0.50602178504E+03  0.55046467491E+03  0.16587503245E+03 0.  0.
         24    2    5    5    0    0  0.43217293577E+02  0.26021058556E+02  0.21899092677E+03  0.24991116426E+03  0.10933313341E+03 0.  0.
          5    1    5    5  501    0  0.73941352278E+02  0.49560928050E+02  0.28703085827E+03  0.30055351065E+03  0.47000000000E+01 0. -1.
        -13    1    6    6    0    0  0.17016223547E+02 -0.96302440217E+01  0.20132286624E+03  0.20227009155E+03  0.00000000000E+00 0.  1.
         14    1    6    6    0    0  0.26201070030E+02  0.35651302577E+02  0.17668060531E+02  0.47641072712E+02  0.00000000000E+00 0. -1.
         -5    1    3    3    0  503  0.10933068129E+02 -0.64505130692E+02  0.33118167410E+03  0.33761492136E+03  0.47000000000E+01 0.  1.
         11    1    4    4    0    0 -0.55598559136E+02 -0.41888448604E+02  0.69954349818E+03  0.70299854036E+03  0.00000000000E+00 0. -1.
        -12    1    4    4    0    0 -0.72493154848E+02  0.30811592690E+02  0.53115290618E+03  0.53696184361E+03  0.00000000000E+00 0.  1.
</event>
<event>
12    1  0.1035051E+000  0.1977806E+03  0.7818608E-02  0.1151657E+00
         21   -1    0    0  503  502  0.00000000000E+00  0.00000000000E+00  0.42092991394E+03  0.42092991394E+03  0.00000000000E+00 0.  1.
         21   -1    0    0  501  503 -0.00000000000E+00 -0.00000000000E+00 -0.97390531534E+02  0.97390531534E+02  0.00000000000E+00 0.  1.
          6    2    1    2  501    0 -0.96798071562E+02  0.98639459256E+01  0.10581671062E+03  0.22417704352E+03  0.17202036655E+03 0.  0.
         24    2    3    3    0    0 -0.64039374323E+02  0.46521282168E+02  0.12631820233E+03  0.17070467956E+03  0.83177690679E+02 0.  0.
         -6    2    1    2    0  502  0.96798071562E+02 -0.98639459256E+01  0.21772267178E+03  0.29414340195E+03  0.17219179719E+03 0.  0.
        -24    2    5    5    0    0  0.80995305079E+02  0.40911718380E+02  0.85230145660E+02  0.15129993871E+03  0.85985380027E+02 0.  0.
          5    1    3    3  501    0 -0.32758697239E+02 -0.36657336242E+02 -0.20501491703E+02  0.53472363958E+02  0.47000000000E+01 0. -1.
        -11    1    4    4    0    0 -0.38600978751E+02  0.38228895357E+02  0.15204606171E+02  0.56415104800E+02  0.00000000000E+00 0.  1.
         12    1    4    4    0    0 -0.25438395571E+02  0.82923868102E+01  0.11111359616E+03  0.11428957476E+03  0.00000000000E+00 0. -1.
         -5    1    5    5    0  502  0.15802766483E+02 -0.50775664305E+02  0.13249252612E+03  0.14284346324E+03  0.47000000000E+01 0.  1.
         11    1    6    6    0    0 -0.43780693617E+00  0.19419085177E+02  0.60471528490E+02  0.63514551892E+02  0.00000000000E+00 0. -1.
        -12    1    6    6    0    0  0.81433112015E+02  0.21492633202E+02  0.24758617169E+02  0.87785386817E+02  0.00000000000E+00 0.  1.
</event>
<event>
12    1  0.1035051E+000  0.2685698E+03  0.7818608E-02  0.1102217E+00
         21   -1    0    0  501  502  0.00000000000E+00  0.00000000000E+00  0.73127061259E+03  0.73127061259E+03  0.00000000000E+00 0. -1.
         21   -1    0    0  502  503 -0.00000000000E+00 -0.00000000000E+00 -0.25381270406E+03  0.25381270406E+03  0.00000000000E+00 0. -1.
         -6    2    1    2    0  503  0.33543796654E+02 -0.20324563748E+03  0.62407932019E+03  0.67909704246E+03  0.17106671140E+03 0.  0.
        -24    2    3    3    0    0 -0.33877112440E+02 -0.69941447409E+02  0.29184408739E+03  0.31479232662E+03  0.88779348626E+02 0.  0.
          6    2    1    2  501    0 -0.33543796654E+02  0.20324563748E+03 -0.14662141165E+03  0.30598627418E+03  0.17232465345E+03 0.  0.
         24    2    5    5    0    0 -0.74997069085E+02  0.13889061620E+03 -0.14551021230E+03  0.22928381449E+03  0.80515104579E+02 0.  0.
          5    1    5    5  501    0  0.41453272431E+02  0.64355021277E+02 -0.11111993547E+01  0.76702459692E+02  0.47000000000E+01 0. -1.
        -13    1    6    6    0    0 -0.44045843951E+02  0.13920711833E+03 -0.11547048583E+03  0.18615072189E+03  0.00000000000E+00 0.  1.
         14    1    6    6    0    0 -0.30951225135E+02 -0.31650213103E+00 -0.30039726469E+02  0.43133092601E+02  0.00000000000E+00 0. -1.
         -5    1    3    3    0  503  0.67420909094E+02 -0.13330419007E+03  0.33223523280E+03  0.36430471584E+03  0.47000000000E+01 0.  1.
         13    1    4    4    0    0 -0.42029938918E+02 -0.57221361775E+02  0.29113498707E+03  0.29966711649E+03  0.00000000000E+00 0. -1.
        -14    1    4    4    0    0  0.81528264781E+01 -0.12720085634E+02  0.70910031403E+00  0.15125210127E+02  0.00000000000E+00 0.  1.
</event>
<event>
12    1  0.1035051E+000  0.1741600E+03  0.7818608E-02  0.1173619E+00
         21   -1    0    0  503  502  0.00000000000E+00  0.00000000000E+00  0.59179993852E+02  0.59179993852E+02  0.00000000000E+00 0.  1.
         21   -1    0    0  501  503 -0.00000000000E+00 -0.00000000000E+00 -0.57770373521E+03  0.57770373521E+03  0.00000000000E+00 0.  1.
          6    2    1    2  501    0  0.56931915894E+01  0.24405707860E+02 -0.15202084459E+03  0.23117533883E+03  0.17234746615E+03 0.  0.
         24    2    3    3    0    0  0.33589798907E+02  0.10329502567E+02 -0.17161814269E+03  0.19399329548E+03  0.83340497822E+02 0.  0.
         -6    2    1    2    0  502 -0.56931915894E+01 -0.24405707860E+02 -0.36650289677E+03  0.40570839023E+03  0.17218267496E+03 0.  0.
        -24    2    5    5    0    0 -0.30838065910E+02  0.53639154729E+02 -0.17485342535E+03  0.19720209494E+03  0.66983585023E+02 0.  0.
          5    1    3    3  501    0 -0.27896607318E+02  0.14076205293E+02  0.19597298097E+02  0.37182043354E+02  0.47000000000E+01 0. -1.
        -11    1    4    4    0    0  0.58405453789E+02  0.17566163311E+02 -0.92827663020E+02  0.11107088794E+03  0.00000000000E+00 0.  1.
         12    1    4    4    0    0 -0.24815654882E+02 -0.72366607444E+01 -0.78790479666E+02  0.82922407538E+02  0.00000000000E+00 0. -1.
         -5    1    5    5    0  502  0.25144874320E+02 -0.78044862588E+02 -0.19164947142E+03  0.20850629529E+03  0.47000000000E+01 0.  1.
         11    1    6    6    0    0 -0.11669506611E+02  0.49268086662E+02 -0.51240703645E+02  0.72035626311E+02  0.00000000000E+00 0. -1.
        -12    1    6    6    0    0 -0.19168559298E+02  0.43710680666E+01 -0.12361272170E+03  0.12516646863E+03  0.00000000000E+00 0.  1.
</event>
<event>
12    1  0.1035051E+000  0.4518392E+03  0.7818608E-02  0.1027398E+00
         21   -1    0    0  501  502  0.00000000000E+00  0.00000000000E+00  0.12459775320E+04  0.12459775320E+04  0.00000000000E+00 0. -1.
         21   -1    0    0  502  503 -0.00000000000E+00 -0.00000000000E+00 -0.16938189698E+03  0.16938189698E+03  0.00000000000E+00 0. -1.
         -6    2    1    2    0  503  0.30545317026E+03 -0.28130017806E+03  0.67641170460E+03  0.81178187330E+03  0.17036897104E+03 0.  0.
        -24    2    3    3    0    0  0.26198896603E+03 -0.23666472752E+03  0.64978836916E+03  0.74386757079E+03  0.80409120197E+02 0.  0.
          6    2    1    2  501    0 -0.30545317026E+03  0.28130017806E+03  0.40018393042E+03  0.60357755568E+03  0.17812147023E+03 0.  0.
         24    2    5    5    0    0 -0.13349494586E+03  0.14062377164E+03  0.10490708324E+03  0.23402378592E+03  0.78521911227E+02 0.  0.
          5    1    5    5  501    0 -0.17195822440E+03  0.14067640642E+03  0.29527684718E+03  0.36955376976E+03  0.47000000000E+01 0. -1.
        -13    1    6    6    0    0 -0.13124679620E+03  0.96044608827E+02  0.94835062387E+02  0.18826570971E+03  0.00000000000E+00 0.  1.
         14    1    6    6    0    0 -0.22481496667E+01  0.44579162816E+02  0.10072020848E+02  0.45758076208E+02  0.00000000000E+00 0. -1.
         -5    1    3    3    0  503  0.43464204232E+02 -0.44635450547E+02  0.26623335447E+02  0.67914302510E+02  0.47000000000E+01 0.  1.
         11    1    4    4    0    0  0.26339240689E+01 -0.15607917953E+02  0.66208039947E+02  0.68073851166E+02  0.00000000000E+00 0. -1.
        -12    1    4    4    0    0  0.25935504196E+03 -0.22105680956E+03  0.58358032921E+03  0.67579371962E+03  0.00000000000E+00 0.  1.
</event>
<event>
12    1  0.1035051E+000  0.3206280E+03  0.7818608E-02  0.1075363E+00
         21   -1    0    0  503  502  0.00000000000E+00  0.00000000000E+00  0.69030263665E+02  0.69030263665E+02  0.00000000000E+00 0. -1.
         21   -1    0    0  501  503 -0.00000000000E+00 -0.00000000000E+00 -0.16624484106E+04  0.16624484106E+04  0.00000000000E+00 0. -1.
          6    2    1    2  501    0  0.14987819696E+02 -0.27021829430E+03 -0.51716837206E+03  0.60848452120E+03  0.17189452046E+03 0.  0.
         24    2    3    3    0    0  0.58642312158E+02 -0.24444275719E+03 -0.38317976049E+03  0.46514879273E+03  0.79658572732E+02 0.  0.
         -6    2    1    2    0  502 -0.14987819696E+02  0.27021829430E+03 -0.10762497749E+04  0.11229941531E+04  0.17192942910E+03 0.  0.
        -24    2    5    5    0    0  0.45786911456E+02  0.22762112640E+03 -0.85912086231E+03  0.89348349682E+03  0.79475056400E+02 0.  0.
          5    1    3    3  501    0 -0.43654492462E+02 -0.25775537114E+02 -0.13398861157E+03  0.14333572847E+03  0.47000000000E+01 0. -1.
        -13    1    4    4    0    0  0.50606685467E+02 -0.72527964184E+02 -0.16555926203E+03  0.18769979075E+03  0.00000000000E+00 0.  1.
         14    1    4    4    0    0  0.80356266910E+01 -0.17191479301E+03 -0.21762049847E+03  0.27744900199E+03  0.00000000000E+00 0. -1.
         -5    1    5    5    0  502 -0.60774731152E+02  0.42597167905E+02 -0.21712891260E+03  0.22951065628E+03  0.47000000000E+01 0.  1.
         13    1    6    6    0    0  0.19975261975E+02  0.53987916211E+02 -0.11094192429E+03  0.12498726636E+03  0.00000000000E+00 0. -1.
        -14    1    6    6    0    0  0.25811649481E+02  0.17363321019E+03 -0.74817893803E+03  0.76849623046E+03  0.00000000000E+00 0.  1.
</event>
<event>
12    1  0.1035051E+000  0.1830491E+03  0.7818608E-02  0.1165844E+00
         21   -1    0    0  503  502  0.00000000000E+00  0.00000000000E+00  0.85520621012E+03  0.85520621012E+03  0.00000000000E+00 0. -1.
         21   -1    0    0  501  503 -0.00000000000E+00 -0.00000000000E+00 -0.39132432852E+02  0.39132432852E+02  0.00000000000E+00 0. -1.
          6    2    1    2  501    0 -0.34234673246E+02 -0.49576054953E+02  0.47660330982E+03  0.51054646198E+03  0.17285015717E+03 0.  0.
         24    2    3    3    0    0 -0.72646076396E+01 -0.10048226678E+03  0.33139013073E+03  0.35425255864E+03  0.74337043895E+02 0.  0.
         -6    2    1    2    0  502  0.34234673246E+02  0.49576054953E+02  0.33947046744E+03  0.38379218099E+03  0.16860142895E+03 0.  0.
        -24    2    5    5    0    0  0.81821276913E+02  0.47344727088E+02  0.17066804112E+03  0.20833331741E+03  0.73068093908E+02 0.  0.
          5    1    3    3  501    0 -0.26970065607E+02  0.50906211822E+02  0.14521317909E+03  0.15629390334E+03  0.47000000000E+01 0. -1.
        -13    1    4    4    0    0 -0.28676614642E+02 -0.10658442736E+02  0.56263182738E+02  0.64042925923E+02  0.00000000000E+00 0.  1.
         14    1    4    4    0    0  0.21412007002E+02 -0.89823824039E+02  0.27512694800E+03  0.29020963272E+03  0.00000000000E+00 0. -1.
         -5    1    5    5    0  502 -0.47586603666E+02  0.22313278653E+01  0.16880242633E+03  0.17545886357E+03  0.47000000000E+01 0.  1.
         13    1    6    6    0    0  0.32838175686E+02 -0.17446910796E+02  0.67091849950E+02  0.76707605936E+02  0.00000000000E+00 0. -1.
        -14    1    6    6    0    0  0.48983101226E+02  0.64791637884E+02  0.10357619117E+03  0.13162571148E+03  0.00000000000E+00 0.  1.
</event>
<event>
12    1  0.1035051E+000  0.2479019E+03  0.7818608E-02  0.1114864E+00
         21   -1    0    0  503  502  0.00000000000E+00  0.00000000000E+00  0.14622188026E+04  0.14622188026E+04  0.00000000000E+00 0. -1.
         21   -1    0    0  501  503 -0.00000000000E+00 -0.00000000000E+00 -0.41979622669E+02  0.41979622669E+02  0.00000000000E+00 0. -1.
          6    2    1    2  501    0 -0.14445303911E+03 -0.10308697384E+03  0.76268608957E+03  0.80196348523E+03  0.17309464387E+03 0.  0.
         24    2    3    3    0    0 -0.12756272799E+03 -0.65699291862E+02  0.33858413440E+03  0.37585589347E+03  0.77716086304E+02 0.  0.
         -6    2    1    2    0  502  0.14445303911E+03  0.10308697384E+03  0.65755309035E+03  0.70223494002E+03  0.17106793878E+03 0.  0.
        -24    2    5    5    0    0  0.11091567708E+03  0.10976197654E+03  0.62905132900E+03  0.65747166587E+03  0.11051442431E+03 0.  0.
          5    1    3    3  501    0 -0.16890311128E+02 -0.37387681982E+02  0.42410195517E+03  0.42610759176E+03  0.47000000000E+01 0. -1.
        -11    1    4    4    0    0 -0.34815973047E+02 -0.28569724156E+02  0.20004967311E+03  0.20505670637E+03  0.00000000000E+00 0.  1.
         12    1    4    4    0    0 -0.92746754939E+02 -0.37129567706E+02  0.13853446129E+03  0.17079918710E+03  0.00000000000E+00 0. -1.
         -5    1    5    5    0  502  0.33537362038E+02 -0.66750026995E+01  0.28501761345E+02  0.44763274157E+02  0.47000000000E+01 0.  1.
         11    1    6    6    0    0  0.68878790004E+02  0.31379153935E+01  0.33183849516E+03  0.33892612926E+03  0.00000000000E+00 0. -1.
        -12    1    6    6    0    0  0.42036887072E+02  0.10662406115E+03  0.29721283385E+03  0.31854553661E+03  0.00000000000E+00 0.  1.
</event>
<event>
12    1  0.1035051E+000  0.1780947E+03  0.7818608E-02  0.1169768E+00
         21   -1    0    0  503  502  0.00000000000E+00  0.00000000000E+00  0.66946366635E+02  0.66946366635E+02  0.00000000000E+00 0.  1.
         21   -1    0    0  501  503 -0.00000000000E+00 -0.00000000000E+00 -0.51457660203E+03  0.51457660203E+03  0.00000000000E+00 0.  1.
          6    2    1    2  501    0 -0.47233713781E+02  0.57067951933E+01 -0.14103424257E+03  0.22717475775E+03  0.17162203166E+03 0.  0.
         24    2    3    3    0    0 -0.51746202846E+02  0.58991938341E+02 -0.13228359754E+03  0.17278419950E+03  0.78725543006E+02 0.  0.
         -6    2    1    2    0  502  0.47233713781E+02 -0.57067951933E+01 -0.30659599282E+03  0.35434821091E+03  0.17116647024E+03 0.  0.
        -24    2    5    5    0    0  0.54160386756E+02 -0.65704048226E+02 -0.19216927193E+03  0.22487538124E+03  0.79934589300E+02 0.  0.
          5    1    3    3  501    0  0.45124890656E+01 -0.53285143148E+02 -0.87506450314E+01  0.54390558246E+02  0.47000000000E+01 0. -1.
        -13    1    4    4    0    0 -0.31417776469E+02  0.72251276694E+02 -0.68007625159E+02  0.10407862769E+03  0.00000000000E+00 0.  1.
         14    1    4    4    0    0 -0.20328426377E+02 -0.13259338353E+02 -0.64275972383E+02  0.68705571814E+02  0.00000000000E+00 0. -1.
         -5    1    5    5    0  502 -0.69266729751E+01  0.59997253033E+02 -0.11442672089E+03  0.12947282968E+03  0.47000000000E+01 0.  1.
         11    1    6    6    0    0  0.41022471233E+01  0.16428675765E+02 -0.12387087192E+02  0.20980222781E+02  0.00000000000E+00 0. -1.
        -12    1    6    6    0    0  0.50058139633E+02 -0.82132723991E+02 -0.17978218473E+03  0.20389515845E+03  0.00000000000E+00 0.  1.
</event>
<event>
12    1  0.1035051E+000  0.1913260E+03  0.7818608E-02  0.1158054E+00
         21   -1    0    0  503  502  0.00000000000E+00  0.00000000000E+00  0.77819582772E+03  0.77819582772E+03  0.00000000000E+00 0. -1.
         21   -1    0    0  501  503 -0.00000000000E+00 -0.00000000000E+00 -0.60483035521E+02  0.60483035521E+02  0.00000000000E+00 0. -1.
          6    2    1    2  501    0  0.47241829191E+02 -0.57778272865E+02  0.56019365120E+03  0.59085246703E+03  0.17239371135E+03 0.  0.
         24    2    3    3    0    0  0.55154419976E+01 -0.99915193181E+02  0.43462418679E+03  0.45190502433E+03  0.72845736601E+02 0.  0.
         -6    2    1    2    0  502 -0.47241829191E+02  0.57778272865E+02  0.15751914100E+03  0.24782639621E+03  0.17616902008E+03 0.  0.
        -24    2    5    5    0    0 -0.31957364168E+02  0.14216358559E+02  0.17708380500E+03  0.19746647835E+03  0.80068458852E+02 0.  0.
          5    1    3    3  501    0  0.41726387193E+02  0.42136920315E+02  0.12556946441E+03  0.13894744270E+03  0.47000000000E+01 0. -1.
        -13    1    4    4    0    0 -0.37590754130E+01 -0.35295448427E+01 -0.13312056399E+01  0.53254523951E+01  0.00000000000E+00 0.  1.
         14    1    4    4    0    0  0.92745174105E+01 -0.96385648338E+02  0.43595539243E+03  0.44657957193E+03  0.00000000000E+00 0. -1.
         -5    1    5    5    0  502 -0.15284465023E+02  0.43561914307E+02 -0.19564664003E+02  0.50359917858E+02  0.47000000000E+01 0.  1.
         11    1    6    6    0    0  0.24444948199E+02 -0.88944752950E+01  0.62038700907E+02  0.67271595741E+02  0.00000000000E+00 0. -1.
        -12    1    6    6    0    0 -0.56402312366E+02  0.23110833854E+02  0.11504510410E+03  0.13019488261E+03  0.00000000000E+00 0.  1.
</event>
<event>
12    1  0.1035051E+000  0.2819787E+03  0.7818608E-02  0.1094656E+00
         21   -1    0    0  501  502  0.00000000000E+00  0.00000000000E+00  0.12671402957E+03  0.12671402957E+03  0.00000000000E+00 0.  1.
         21   -1    0    0  502  503 -0.00000000000E+00 -0.00000000000E+00 -0.64163635529E+03  0.64163635529E+03  0.00000000000E+00 0.  1.
         -6    2    1    2    0  503 -0.15856229219E+03 -0.15728062960E+03 -0.19886056551E+03  0.34478572254E+03  0.17161722816E+03 0.  0.
        -24    2    3    3    0    0 -0.14636388363E+03 -0.79827322142E+02 -0.19373524546E+03  0.26606993688E+03  0.73926167107E+02 0.  0.
          6    2    1    2  501    0  0.15856229219E+03  0.15728062960E+03 -0.31606176021E+03  0.42356466232E+03  0.17214177282E+03 0.  0.
         24    2    5    5    0    0  0.84791932871E+02  0.10751128278E+02 -0.14510748645E+03  0.18658277612E+03  0.80322419541E+02 0.  0.
          5    1    5    5  501    0  0.73770359321E+02  0.14652950132E+03 -0.17095427377E+03  0.23698188621E+03  0.47000000000E+01 0. -1.
        -11    1    6    6    0    0 -0.11441941635E+02 -0.91373091338E+01 -0.40465458143E+02  0.43033263289E+02  0.00000000000E+00 0.  1.
         12    1    6    6    0    0  0.96233874507E+02  0.19888437411E+02 -0.10464202830E+03  0.14354951283E+03  0.00000000000E+00 0. -1.
         -5    1    3    3    0  503 -0.12198408560E+02 -0.77453307456E+02 -0.51253200477E+01  0.78715785665E+02  0.47000000000E+01 0.  1.
         13    1    4    4    0    0 -0.25331240275E+02 -0.44709699064E+02 -0.30181789736E+02  0.59595044726E+02  0.00000000000E+00 0. -1.
        -14    1    4    4    0    0 -0.12103264336E+03 -0.35117623078E+02 -0.16355345573E+03  0.20647489215E+03  0.00000000000E+00 0.  1.
</event>
<event>
12    1  0.1035051E+000  0.1995205E+03  0.7818608E-02  0.1150459E+00
         21   -1    0    0  503  502  0.00000000000E+00  0.00000000000E+00  0.40552054461E+02  0.40552054461E+02  0.00000000000E+00 0.  1.
         21   -1    0    0  501  503 -0.00000000000E+00 -0.00000000000E+00 -0.11886256220E+04  0.11886256220E+04  0.00000000000E+00 0.  1.
          6    2    1    2  501    0  0.75457207622E+02  0.62153477351E+02 -0.83320602782E+03  0.85641769940E+03  0.17222701914E+03 0.  0.
         24    2    3    3    0    0 -0.82152100628E+01  0.69291525707E+02 -0.33469803948E+03  0.35086421098E+03  0.78829637214E+02 0.  0.
         -6    2    1    2    0  502 -0.75457207622E+02 -0.62153477351E+02 -0.31486753976E+03  0.37275997710E+03  0.17392983644E+03 0.  0.
        -24    2    5    5    0    0 -0.10675345588E+03 -0.65718469091E+01 -0.17956132735E+03  0.22309824547E+03  0.78045290298E+02 0.  0.
          5    1    3    3  501    0  0.83672417684E+02 -0.71380483562E+01 -0.49850798834E+03  0.50555348842E+03  0.47000000000E+01 0. -1.
        -13    1    4    4    0    0 -0.28823556697E+02 -0.24645290161E+01 -0.12402469592E+03  0.12735382413E+03  0.00000000000E+00 0.  1.
         14    1    4    4    0    0  0.20608346634E+02  0.71756054723E+02 -0.21067334357E+03  0.22351038685E+03  0.00000000000E+00 0. -1.
         -5    1    5    5    0  502  0.31296248262E+02 -0.55581630442E+02 -0.13530621241E+03  0.14966173163E+03  0.47000000000E+01 0.  1.
         11    1    6    6    0    0 -0.60018786850E+02 -0.33689777402E+02 -0.14041107745E+03  0.15637303651E+03  0.00000000000E+00 0. -1.
        -12    1    6    6    0    0 -0.46734669034E+02  0.27117930493E+02 -0.39150249903E+02  0.66725208965E+02  0.00000000000E+00 0.  1.
</event>
<event>
12    1  0.1035051E+000  0.3176368E+03  0.7818608E-02  0.1076909E+00
         21   -1    0    0  501  502  0.00000000000E+00  0.00000000000E+00  0.19006376202E+03  0.19006376202E+03  0.00000000000E+00 0. -1.
         21   -1    0    0  502  503 -0.00000000000E+00 -0.00000000000E+00 -0.58392360124E+03  0.58392360124E+03  0.00000000000E+00 0.  1.
         -6    2    1    2    0  503  0.26145579522E+03 -0.43238419777E+02 -0.31662525457E+03  0.44849159314E+03  0.17511271654E+03 0.  0.
        -24    2    3    3    0    0  0.30851283036E+02  0.77028982395E+01 -0.10415419311E+03  0.13078181854E+03  0.72419968327E+02 0.  0.
          6    2    1    2  501    0 -0.26145579522E+03  0.43238419777E+02 -0.77234584658E+02  0.32549577012E+03  0.17249238098E+03 0.  0.
         24    2    5    5    0    0 -0.24195224187E+03 -0.12183480799E+02 -0.78304927445E+02  0.26654484739E+03  0.78899743079E+02 0.  0.
          5    1    5    5  501    0 -0.19503553356E+02  0.55421900576E+02  0.10703427875E+01  0.58950922729E+02  0.47000000000E+01 0. -1.
        -13    1    6    6    0    0 -0.66218525371E+02 -0.34565504082E+02 -0.51284423852E+01  0.74873013136E+02  0.00000000000E+00 0.  1.
         14    1    6    6    0    0 -0.17573371649E+03  0.22382023283E+02 -0.73176485060E+02  0.19167183425E+03  0.00000000000E+00 0. -1.
         -5    1    3    3    0  503  0.23060451219E+03 -0.50941318017E+02 -0.21247106145E+03  0.31770977460E+03  0.47000000000E+01 0.  1.
         13    1    4    4    0    0 -0.87389849074E+01 -0.23116761101E+02 -0.56131085033E+02  0.61330687327E+02  0.00000000000E+00 0. -1.
        -14    1    4    4    0    0  0.39590267943E+02  0.30819659340E+02 -0.48023108080E+02  0.69451131217E+02  0.00000000000E+00 0.  1.
</event>
<event>
12    1  0.1035051E+000  0.1984039E+03  0.7818608E-02  0.1152836E+00
         21   -1    0    0  503  502  0.00000000000E+00  0.00000000000E+00  0.16478272202E+03  0.16478272202E+03  0.00000000000E+00 0. -1.
         21   -1    0    0  501  503 -0.00000000000E+00 -0.00000000000E+00 -0.23458670973E+03  0.23458670973E+03  0.00000000000E+00 0. -1.
          6    2    1    2  501    0  0.61466213871E+02  0.45564747313E+02 -0.43668874278E+01  0.19045285816E+03  0.17435303218E+03 0.  0.
         24    2    3    3    0    0  0.70448544138E+01  0.20855575326E+02 -0.67075738484E+02  0.10369620109E+03  0.75955002680E+02 0.  0.
         -6    2    1    2    0  502 -0.61466213871E+02 -0.45564747313E+02 -0.65437100273E+02  0.20891657359E+03  0.18305703751E+03 0.  0.
        -24    2    5    5    0    0 -0.67127505158E+02  0.19560805989E+02  0.14051846597E+02  0.10589244735E+03  0.78275340520E+02 0.  0.
          5    1    3    3  501    0  0.54421359457E+02  0.24709171987E+02  0.62708851056E+02  0.86756657071E+02  0.47000000000E+01 0. -1.
        -11    1    4    4    0    0 -0.15740252059E+02 -0.22103883724E+02 -0.39105185620E+02  0.47597822985E+02  0.00000000000E+00 0.  1.
         12    1    4    4    0    0  0.22785106473E+02  0.42959459050E+02 -0.27970552864E+02  0.56098378108E+02  0.00000000000E+00 0. -1.
         -5    1    5    5    0  502  0.56612912870E+01 -0.65125553302E+02 -0.79488946870E+02  0.10302412623E+03  0.47000000000E+01 0.  1.
         13    1    6    6    0    0 -0.83424963761E+02  0.15828005370E+02  0.13985840977E+01  0.84924710008E+02  0.00000000000E+00 0. -1.
        -14    1    6    6    0    0  0.16297458603E+02  0.37328006190E+01  0.12653262500E+02  0.20967737343E+02  0.00000000000E+00 0.  1.
</event>
<event>
12    1  0.1035051E+000  0.1761058E+03  0.7818608E-02  0.1171982E+00
         21   -1    0    0  501  502  0.00000000000E+00  0.00000000000E+00  0.13251969588E+03  0.13251969588E+03  0.00000000000E+00 0. -1.
         21   -1    0    0  502  503 -0.00000000000E+00 -0.00000000000E+00 -0.23328142707E+03  0.23328142707E+03  0.00000000000E+00 0. -1.
         -6    2    1    2    0  503 -0.31124268159E+02  0.17147841977E+02 -0.62965476352E+02  0.18568500051E+03  0.17103069797E+03 0.  0.
        -24    2    3    3    0    0 -0.30459291273E+02  0.13208743202E+02 -0.10903880120E+03  0.13920059500E+03  0.79906859278E+02 0.  0.
          6    2    1    2  501    0  0.31124268159E+02 -0.17147841977E+02 -0.37796254846E+02  0.18011612244E+03  0.17248330971E+03 0.  0.
         24    2    5    5    0    0  0.46654709169E+02  0.21494923871E+01 -0.85253387165E+02  0.12637739228E+03  0.80757804891E+02 0.  0.
          5    1    5    5  501    0 -0.15530441011E+02 -0.19297334364E+02  0.47457132318E+02  0.53738730162E+02  0.47000000000E+01 0. -1.
        -11    1    6    6    0    0  0.29860989479E+02  0.40599491850E+02 -0.55330003061E+02  0.74842545854E+02  0.00000000000E+00 0.  1.
         12    1    6    6    0    0  0.16793719690E+02 -0.38449999463E+02 -0.29923384103E+02  0.51534846424E+02  0.00000000000E+00 0. -1.
         -5    1    3    3    0  503 -0.66497688577E+00  0.39390987749E+01  0.46073324845E+02  0.46484405511E+02  0.47000000000E+01 0.  1.
         13    1    4    4    0    0 -0.19148582550E+02  0.47055418511E+02 -0.61941557568E+02  0.80110156527E+02  0.00000000000E+00 0. -1.
        -14    1    4    4    0    0 -0.11310708723E+02 -0.33846675309E+02 -0.47097243629E+02  0.59090438471E+02  0.00000000000E+00 0.  1.
</event>
<event>
12    1  0.1035051E+000  0.1750850E+03  0.7818608E-02  0.1172811E+00
         21   -1    0    0  503  502  0.00000000000E+00  0.00000000000E+00  0.15399029412E+03  0.15399029412E+03  0.00000000000E+00 0.  1.
         21   -1    0    0  501  503 -0.00000000000E+00 -0.00000000000E+00 -0.20026299972E+03  0.20026299972E+03  0.00000000000E+00 0.  1.
          6    2    1    2  501    0 -0.28192854752E+02 -0.18450806134E+02 -0.40521149868E+02  0.17907382143E+03  0.17114380103E+03 0.  0.
         24    2    3    3    0    0  0.27635535258E+02 -0.61213090263E+02 -0.28660971885E+02  0.10760231734E+03  0.79031905960E+02 0.  0.
         -6    2    1    2    0  502  0.28192854752E+02  0.18450806134E+02 -0.57515557378E+01  0.17517947240E+03  0.17181239144E+03 0.  0.
        -24    2    5    5    0    0  0.33633498631E+02  0.63590537922E+02 -0.43325124271E+02  0.11600972469E+03  0.80038872350E+02 0.  0.
          5    1    3    3  501    0 -0.55828390010E+02  0.42762284129E+02 -0.11860177983E+02  0.71471504090E+02  0.47000000000E+01 0. -1.
        -11    1    4    4    0    0  0.22727504954E+02 -0.23019414649E+02 -0.52967892160E+02  0.62064728567E+02  0.00000000000E+00 0.  1.
         12    1    4    4    0    0  0.49080303042E+01 -0.38193675614E+02  0.24306920274E+02  0.45537588777E+02  0.00000000000E+00 0. -1.
         -5    1    5    5    0  502 -0.54406438797E+01 -0.45139731788E+02  0.37573568533E+02  0.59169747710E+02  0.47000000000E+01 0.  1.
         11    1    6    6    0    0  0.21307099205E+02  0.40067904006E+00 -0.46915504410E+02  0.51528803346E+02  0.00000000000E+00 0. -1.
        -12    1    6    6    0    0  0.12326399426E+02  0.63189858882E+02  0.35903801389E+01  0.64480921347E+02  0.00000000000E+00 0.  1.
</event>
<event>
12    1  0.1035051E+000  0.1952139E+03  0.7818608E-02  0.1154048E+00
         21   -1    0    0  503  502  0.00000000000E+00  0.00000000000E+00  0.26779839532E+02  0.26779839532E+02  0.00000000000E+00 0. -1.
         21   -1    0    0  501  503 -0.00000000000E+00 -0.00000000000E+00 -0.17602977580E+04  0.17602977580E+04  0.00000000000E+00 0.  1.
          6    2    1    2  501    0  0.39897368125E+02  0.84070945018E+02 -0.12601634209E+04  0.12750493360E+04  0.17052635571E+03 0.  0.
         24    2    3    3    0    0 -0.16931904305E+02  0.76051470421E+02 -0.10839916949E+04  0.10897052095E+04  0.79680194744E+02 0.  0.
         -6    2    1    2    0  502 -0.39897368125E+02 -0.84070945018E+02 -0.47335449762E+03  0.51202826162E+03  0.17160634166E+03 0.  0.
        -24    2    5    5    0    0 -0.11754815198E+02 -0.95213368293E+02 -0.19097319427E+03  0.22799050469E+03  0.79404962786E+02 0.  0.
          5    1    3    3  501    0  0.56829272430E+02  0.80194745976E+01 -0.17617172596E+03  0.18534412644E+03  0.47000000000E+01 0. -1.
        -11    1    4    4    0    0  0.13627740075E+02  0.41851164241E+01 -0.53468847055E+03  0.53487848250E+03  0.00000000000E+00 0.  1.
         12    1    4    4    0    0 -0.30559644381E+02  0.71866353997E+02 -0.54930322438E+03  0.55482672702E+03  0.00000000000E+00 0. -1.
         -5    1    5    5    0  502 -0.28142552927E+02  0.11142423275E+02 -0.28238130334E+03  0.28403775693E+03  0.47000000000E+01 0.  1.
         11    1    6    6    0    0 -0.36744721611E+02 -0.88020198075E+02 -0.16848813509E+03  0.19361296832E+03  0.00000000000E+00 0. -1.
        -12    1    6    6    0    0  0.24989906414E+02 -0.71931702179E+01 -0.22485059187E+02  0.34377536372E+02  0.00000000000E+00 0.  1.
</event>
<event>
12    1  0.1035051E+000  0.4585697E+03  0.7818608E-02  0.1025209E+00
         21   -1    0    0  501  502  0.00000000000E+00  0.00000000000E+00  0.37200908440E+03  0.37200908440E+03  0.00000000000E+00 0.  1.
         21   -1    0    0  502  503 -0.00000000000E+00 -0.00000000000E+00 -0.97850747507E+03  0.97850747507E+03  0.00000000000E+00 0.  1.
         -6    2    1    2    0  503  0.29669808465E+03  0.30395499988E+03  0.13564951900E+03  0.47821220953E+03  0.17282282820E+03 0.  0.
        -24    2    3    3    0    0  0.28195710288E+03  0.23578993366E+03  0.15270862663E+03  0.40626169911E+03  0.81436741324E+02 0.  0.
          6    2    1    2  501    0 -0.29669808465E+03 -0.30395499988E+03 -0.74214790967E+03  0.87230434994E+03  0.17237448682E+03 0.  0.
         24    2    5    5    0    0 -0.26619166863E+03 -0.31923644957E+03 -0.67851652905E+03  0.79994962153E+03  0.82248414070E+02 0.  0.
          5    1    5    5  501    0 -0.30506416021E+02  0.15281449687E+02 -0.63631380621E+02  0.72354728406E+02  0.47000000000E+01 0. -1.
        -11    1    6    6    0    0 -0.89408696079E+02 -0.61868446692E+02 -0.21730311550E+03  0.24298613877E+03  0.00000000000E+00 0.  1.
         12    1    6    6    0    0 -0.17678297255E+03 -0.25736800288E+03 -0.46121341355E+03  0.55696348276E+03  0.00000000000E+00 0. -1.
         -5    1    3    3    0  503  0.14740981777E+02  0.68165066220E+02 -0.17059107626E+02  0.71950510419E+02  0.47000000000E+01 0.  1.
         13    1    4    4    0    0  0.24868521172E+02 -0.21683618808E+01  0.24455904869E+01  0.25082385280E+02  0.00000000000E+00 0. -1.
        -14    1    4    4    0    0  0.25708858170E+03  0.23795829554E+03  0.15026303614E+03  0.38117931383E+03  0.00000000000E+00 0.  1.
</event>
<event>
12    1  0.1035051E+000  0.1907792E+03  0.7818608E-02  0.1158010E+00
         21   -1    0    0  501  502  0.00000000000E+00  0.00000000000E+00  0.23941886106E+03  0.23941886106E+03  0.00000000000E+00 0.  1.
         21   -1    0    0  502  503 -0.00000000000E+00 -0.00000000000E+00 -0.15408621803E+03  0.15408621803E+03  0.00000000000E+00 0.  1.
         -6    2    1    2    0  503 -0.10370420227E+02  0.84428997625E+02  0.15322479859E+02  0.19028564583E+03  0.16952299951E+03 0.  0.
        -24    2    3    3    0    0  0.33939490366E+02  0.10240372907E+03  0.34992276350E+02  0.13836792206E+03  0.79264176754E+02 0.  0.
          6    2    1    2  501    0  0.10370420227E+02 -0.84428997625E+02  0.70010163166E+02  0.20321943327E+03  0.17076566943E+03 0.  0.
         24    2    5    5    0    0  0.21641170250E+02 -0.11457629983E+03  0.17780542108E+02  0.14168966038E+03  0.78509511820E+02 0.  0.
          5    1    5    5  501    0 -0.11270750023E+02  0.30147302208E+02  0.52229621059E+02  0.61529772894E+02  0.47000000000E+01 0. -1.
        -13    1    6    6    0    0  0.28197100935E+02 -0.11842946696E+02 -0.14442611768E+02  0.33821900039E+02  0.00000000000E+00 0.  1.
         14    1    6    6    0    0 -0.65559306850E+01 -0.10273335314E+03  0.32223153876E+02  0.10786776034E+03  0.00000000000E+00 0. -1.
         -5    1    3    3    0  503 -0.44309910593E+02 -0.17974731445E+02 -0.19669796491E+02  0.51917723768E+02  0.47000000000E+01 0.  1.
         11    1    4    4    0    0  0.12657896708E+02  0.25655231907E+02 -0.25525196611E+02  0.38339913084E+02  0.00000000000E+00 0. -1.
        -12    1    4    4    0    0  0.21281593659E+02  0.76748497164E+02  0.60517472961E+02  0.10002800897E+03  0.00000000000E+00 0.  1.
</event>
<event>
12    1  0.1035051E+000  0.1882897E+03  0.7818608E-02  0.1160673E+00
         21   -1    0    0  501  502  0.00000000000E+00  0.00000000000E+00  0.32900886105E+03  0.32900886105E+03  0.00000000000E+00 0. -1.
         21   -1    0    0  502  503 -0.00000000000E+00 -0.00000000000E+00 -0.11915044178E+03  0.11915044178E+03  0.00000000000E+00 0. -1.
         -6    2    1    2    0  503  0.74590906474E+02 -0.61895312904E+01  0.17830969909E+03  0.25724479648E+03  0.16964204343E+03 0.  0.
        -24    2    3    3    0    0  0.33940627352E+02 -0.39042269054E+02  0.18106096312E+03  0.20469570491E+03  0.80255805297E+02 0.  0.
          6    2    1    2  501    0 -0.74590906474E+02  0.61895312904E+01  0.31548720183E+02  0.19091450635E+03  0.17277416869E+03 0.  0.
         24    2    5    5    0    0 -0.38806595328E+02 -0.50528787327E+02  0.59518669500E+02  0.11810040981E+03  0.79662567045E+02 0.  0.
          5    1    5    5  501    0 -0.35784311146E+02  0.56718318618E+02 -0.27969949317E+02  0.72814096546E+02  0.47000000000E+01 0. -1.
        -11    1    6    6    0    0  0.11848761465E+02  0.70478082953E+01  0.34953617141E+02  0.37574194619E+02  0.00000000000E+00 0.  1.
         12    1    6    6    0    0 -0.50655356794E+02 -0.57576595623E+02  0.24565052358E+02  0.80526215190E+02  0.00000000000E+00 0. -1.
         -5    1    3    3    0  503  0.40650279122E+02  0.32852737763E+02 -0.27512640305E+01  0.52549091572E+02  0.47000000000E+01 0.  1.
         13    1    4    4    0    0  0.49125711920E+02 -0.54685112605E+02  0.13429482820E+03  0.15309767468E+03  0.00000000000E+00 0. -1.
        -14    1    4    4    0    0 -0.15185084568E+02  0.15642843551E+02  0.46766134919E+02  0.51598030224E+02  0.00000000000E+00 0.  1.
</event>
<event>
12    1  0.1035051E+000  0.3797591E+03  0.7818608E-02  0.1051025E+00
         21   -1    0    0  501  502  0.00000000000E+00  0.00000000000E+00  0.14739305154E+04  0.14739305154E+04  0.00000000000E+00 0. -1.
         21   -1    0    0  502  503 -0.00000000000E+00 -0.00000000000E+00 -0.10109524073E+03  0.10109524073E+03  0.00000000000E+00 0. -1.
         -6    2    1    2    0  503  0.95109391978E+02  0.32469763889E+03  0.82777051417E+03  0.91072554416E+03  0.17246054482E+03 0.  0.
        -24    2    3    3    0    0 -0.18309896282E+02  0.14022156384E+03  0.34513499906E+03  0.38171279605E+03  0.81173590710E+02 0.  0.
          6    2    1    2  501    0 -0.95109391978E+02 -0.32469763889E+03  0.54506476055E+03  0.66430021201E+03  0.17240888996E+03 0.  0.
         24    2    5    5    0    0 -0.74593287220E+02 -0.30380153668E+03  0.38849794899E+03  0.50494898319E+03  0.78633879918E+02 0.  0.
          5    1    5    5  501    0 -0.20516104758E+02 -0.20896102208E+02  0.15656681157E+03  0.15935122882E+03  0.47000000000E+01 0. -1.
        -11    1    6    6    0    0 -0.16533227113E+02 -0.19084053462E+03  0.19383759264E+03  0.27251875086E+03  0.00000000000E+00 0.  1.
         12    1    6    6    0    0 -0.58060060107E+02 -0.11296100207E+03  0.19466035635E+03  0.23243023233E+03  0.00000000000E+00 0. -1.
         -5    1    3    3    0  503  0.11341928826E+03  0.18447607506E+03  0.48263551511E+03  0.52901274811E+03  0.47000000000E+01 0.  1.
         13    1    4    4    0    0 -0.45400537023E+01  0.60827779529E+02  0.60578596475E+02  0.85967419415E+02  0.00000000000E+00 0. -1.
        -14    1    4    4    0    0 -0.13769842580E+02  0.79393784307E+02  0.28455640258E+03  0.29574537664E+03  0.00000000000E+00 0.  1.
</event>
<event>
12    1  0.1035051E+000  0.2018985E+03  0.7818608E-02  0.1148531E+00
         21   -1    0    0  501  502  0.00000000000E+00  0.00000000000E+00  0.54571702678E+02  0.54571702678E+02  0.00000000000E+00 0. -1.
         21   -1    0    0  502  503 -0.00000000000E+00 -0.00000000000E+00 -0.77766305828E+03  0.77766305828E+03  0.00000000000E+00 0.  1.
         -6    2    1    2    0  503  0.17426512910E+01  0.10232910778E+03 -0.45445017238E+03  0.49728055442E+03  0.17403651197E+03 0.  0.
        -24    2    3    3    0    0  0.87364339946E+01 -0.16890563574E+02 -0.16967191987E+03  0.18843919364E+03  0.79744296895E+02 0.  0.
          6    2    1    2  501    0 -0.17426512910E+01 -0.10232910778E+03 -0.26864118322E+03  0.33495420653E+03  0.17190681202E+03 0.  0.
         24    2    5    5    0    0  0.18844217486E+02  0.97104498473E+01 -0.15131048454E+03  0.17135327593E+03  0.77573739589E+02 0.  0.
          5    1    5    5  501    0 -0.20586868777E+02 -0.11203955763E+03 -0.11733069868E+03  0.16360093060E+03  0.47000000000E+01 0. -1.
        -11    1    6    6    0    0 -0.24260968064E+02 -0.15628293792E+01 -0.10216440760E+03  0.10501715663E+03  0.00000000000E+00 0.  1.
         12    1    6    6    0    0  0.43105185549E+02  0.11273279227E+02 -0.49146076940E+02  0.66336119305E+02  0.00000000000E+00 0. -1.
         -5    1    3    3    0  503 -0.69937827036E+01  0.11921967135E+03 -0.28477825250E+03  0.30884136079E+03  0.47000000000E+01 0.  1.
         11    1    4    4    0    0  0.26471238154E+02 -0.17630026207E+02 -0.16757392165E+03  0.17056542291E+03  0.00000000000E+00 0. -1.
        -12    1    4    4    0    0 -0.17734804159E+02  0.73946263280E+00 -0.20979982234E+01  0.17873770730E+02  0.00000000000E+00 0.  1.
</event>
<event>
12    1  0.1035051E+000  0.2186235E+03  0.7818608E-02  0.1135150E+00
         21   -1    0    0  501  502  0.00000000000E+00  0.00000000000E+00  0.19739675005E+04  0.19739675005E+04  0.00000000000E+00 0. -1.
         21   -1    0    0  502  503 -0.00000000000E+00 -0.00000000000E+00 -0.25901541218E+02  0.25901541218E+02  0.00000000000E+00 0. -1.
         -6    2    1    2    0  503 -0.66585583805E+02  0.11665746486E+03  0.12370076086E+04  0.12559603069E+04  0.17089723457E+03 0.  0.
        -24    2    3    3    0    0 -0.61380488619E+02  0.13828783025E+03  0.12025404198E+04  0.12146681427E+04  0.80150778297E+02 0.  0.
          6    2    1    2  501    0  0.66585583805E+02 -0.11665746486E+03  0.71105835069E+03  0.74390873479E+03  0.17249238689E+03 0.  0.
         24    2    5    5    0    0  0.72425834355E+02 -0.62590819423E+01  0.35481239064E+03  0.37087363520E+03  0.79816935192E+02 0.  0.
          5    1    5    5  501    0 -0.58402505500E+01 -0.11039838292E+03  0.35624596005E+03  0.37303509959E+03  0.47000000000E+01 0. -1.
        -11    1    6    6    0    0  0.19285093643E+02  0.35387773823E+02  0.12351602699E+03  0.12992466393E+03  0.00000000000E+00 0.  1.
         12    1    6    6    0    0  0.53140740712E+02 -0.41646855765E+02  0.23129636365E+03  0.24094897127E+03  0.00000000000E+00 0. -1.
         -5    1    3    3    0  503 -0.52050951863E+01 -0.21630365392E+02  0.34467188762E+02  0.41292164197E+02  0.47000000000E+01 0.  1.
         13    1    4    4    0    0 -0.11010361736E+02  0.81019368869E+01  0.38890740341E+03  0.38914757853E+03  0.00000000000E+00 0. -1.
        -14    1    4    4    0    0 -0.50370126883E+02  0.13018589336E+03  0.81363301639E+03  0.82552056417E+03  0.00000000000E+00 0.  1.
</event>
<event>
12    1  0.1035051E+000  0.3981131E+03  0.7818608E-02  0.1044439E+00
         21   -1    0    0  503  502  0.00000000000E+00  0.00000000000E+00  0.99015358119E+03  0.99015358119E+03  0.00000000000E+00 0. -1.
         21   -1    0    0  501  503 -0.00000000000E+00 -0.00000000000E+00 -0.32896154113E+03  0.32896154113E+03  0.00000000000E+00 0.  1.
          6    2    1    2  501    0  0.34865517708E+03  0.85079545114E+02  0.80322084051E+03  0.89646960829E+03  0.17232259994E+03 0.  0.
         24    2    3    3    0    0  0.20569682565E+03  0.12639563463E+02  0.33386229219E+03  0.40048152570E+03  0.80314878048E+02 0.  0.
         -6    2    1    2    0  502 -0.34865517708E+03 -0.85079545114E+02 -0.14202880045E+03  0.42264551402E+03  0.17221523993E+03 0.  0.
        -24    2    5    5    0    0 -0.34152815631E+03 -0.70582476929E+02 -0.91399148164E+02  0.36929374647E+03  0.80004370447E+02 0.  0.
          5    1    3    3  501    0  0.14295835144E+03  0.72439981651E+02  0.46935854832E+03  0.49598808258E+03  0.47000000000E+01 0. -1.
        -13    1    4    4    0    0  0.18692883281E+03  0.15428216603E+02  0.33212495891E+03  0.38142811477E+03  0.00000000000E+00 0.  1.
         14    1    4    4    0    0  0.18767992836E+02 -0.27886531400E+01  0.17373332841E+01  0.19053410938E+02  0.00000000000E+00 0. -1.
         -5    1    5    5    0  502 -0.71270207704E+01 -0.14497068185E+02 -0.50629652285E+02  0.53351767558E+02  0.47000000000E+01 0.  1.
         11    1    6    6    0    0 -0.20868047014E+03 -0.20251171765E+02 -0.20898884594E+02  0.21069981479E+03  0.00000000000E+00 0. -1.
        -12    1    6    6    0    0 -0.13284768617E+03 -0.50331305164E+02 -0.70500263570E+02  0.15859393168E+03  0.00000000000E+00 0.  1.
</event>
<event>
12    1  0.1035051E+000  0.2582461E+03  0.7818608E-02  0.1108208E+00
         21   -1    0    0  501  502  0.00000000000E+00  0.00000000000E+00  0.83975411674E+02  0.83975411674E+02  0.00000000000E+00 0. -1.
         21   -1    0    0  502  503 -0.00000000000E+00 -0.00000000000E+00 -0.80162191433E+03  0.80162191433E+03  0.00000000000E+00 0. -1.
         -6    2    1    2    0  503  0.18799591091E+03 -0.43763944019E+02 -0.40189386578E+03  0.47771302695E+03  0.17156139267E+03 0.  0.
        -24    2    3    3    0    0  0.14436414724E+03 -0.99028519394E+01 -0.16170138492E+03  0.23120780953E+03  0.79816287905E+02 0.  0.
          6    2    1    2  501    0 -0.18799591091E+03  0.43763944019E+02 -0.31575263687E+03  0.40788429905E+03  0.17149964549E+03 0.  0.
         24    2    5    5    0    0 -0.93170283118E+02  0.88789793166E+02 -0.17703131715E+03  0.23385866495E+03  0.82373896924E+02 0.  0.
          5    1    5    5  501    0 -0.94825627789E+02 -0.45025849147E+02 -0.13872131972E+03  0.17402563410E+03  0.47000000000E+01 0. -1.
        -11    1    6    6    0    0 -0.61491363053E+02  0.16974327678E+02 -0.38142876485E+02  0.74324925542E+02  0.00000000000E+00 0.  1.
         12    1    6    6    0    0 -0.31678920065E+02  0.71815465488E+02 -0.13888844066E+03  0.15953373941E+03  0.00000000000E+00 0. -1.
         -5    1    3    3    0  503  0.43631763666E+02 -0.33861092080E+02 -0.24019248086E+03  0.24650521743E+03  0.47000000000E+01 0.  1.
         11    1    4    4    0    0  0.98619406821E+02 -0.17685293751E+02 -0.15465545400E+03  0.18427388982E+03  0.00000000000E+00 0. -1.
        -12    1    4    4    0    0  0.45744740420E+02  0.77824418115E+01 -0.70459309233E+01  0.46933919708E+02  0.00000000000E+00 0.  1.
</event>
<event>
12    1  0.1035051E+000  0.2950947E+03  0.7818608E-02  0.1087801E+00
         21   -1    0    0  503  502  0.00000000000E+00  0.00000000000E+00  0.43756998595E+03  0.43756998595E+03  0.00000000000E+00 0.  1.
         21   -1    0    0  501  503 -0.00000000000E+00 -0.00000000000E+00 -0.19866608731E+03  0.19866608731E+03  0.00000000000E+00 0. -1.
          6    2    1    2  501    0  0.23756398865E+03 -0.32706072056E+02  0.11286644831E+03  0.31594258403E+03  0.17197251349E+03 0.  0.
         24    2    3    3    0    0  0.48550113186E+02 -0.70890621864E+01 -0.17478374481E+01  0.93364506015E+02  0.79413523752E+02 0.  0.
         -6    2    1    2    0  502 -0.23756398865E+03  0.32706072056E+02  0.12603745033E+03  0.32029348923E+03  0.17086879325E+03 0.  0.
        -24    2    5    5    0    0 -0.25564106608E+03  0.42901392746E+02  0.10804068138E+03  0.29242416944E+03  0.81524363681E+02 0.  0.
          5    1    3    3  501    0  0.18901387546E+03 -0.25617009869E+02  0.11461428576E+03  0.22257807801E+03  0.47000000000E+01 0. -1.
        -13    1    4    4    0    0  0.12793651482E+02 -0.20947497247E+02  0.33330146635E+02  0.41392920093E+02  0.00000000000E+00 0.  1.
         14    1    4    4    0    0  0.35756461704E+02  0.13858435061E+02 -0.35077984083E+02  0.51971585922E+02  0.00000000000E+00 0. -1.
         -5    1    5    5    0  502  0.18077077437E+02 -0.10195320691E+02  0.17996768958E+02  0.27869319790E+02  0.47000000000E+01 0.  1.
         13    1    6    6    0    0 -0.19500498409E+02  0.22561897741E+02 -0.43063368966E+01  0.30130602472E+02  0.00000000000E+00 0. -1.
        -14    1    6    6    0    0 -0.23614056768E+03  0.20339495005E+02  0.11234701827E+03  0.26229356697E+03  0.00000000000E+00 0.  1.
</event>
<event>
12    1  0.1035051E+000  0.3846695E+03  0.7818608E-02  0.1049299E+00
         21   -1    0    0  503  502  0.00000000000E+00  0.00000000000E+00  0.16644959111E+03  0.16644959111E+03  0.00000000000E+00 0.  1.
         21   -1    0    0  501  503 -0.00000000000E+00 -0.00000000000E+00 -0.13340879368E+04  0.13340879368E+04  0.00000000000E+00 0. -1.
          6    2    1    2  501    0  0.34427345517E+03  0.94883736023E+00 -0.10177174565E+04  0.10876853663E+04  0.16966296758E+03 0.  0.
         24    2    3    3    0    0  0.11812795860E+03  0.50958942240E+02 -0.37958197744E+03  0.40880262544E+03  0.80536206565E+02 0.  0.
         -6    2    1    2    0  502 -0.34427345517E+03 -0.94883736023E+00 -0.14992088923E+03  0.41285216165E+03  0.17159697586E+03 0.  0.
        -24    2    5    5    0    0 -0.28184518238E+03 -0.46495383114E+02 -0.15735327464E+03  0.33507615361E+03  0.76924951732E+02 0.  0.
          5    1    3    3  501    0  0.22614549656E+03 -0.50010104880E+02 -0.63813547901E+03  0.67888274082E+03  0.47000000000E+01 0. -1.
        -11    1    4    4    0    0  0.12773409575E+03  0.36686585990E+02 -0.35247728394E+03  0.37669900518E+03  0.00000000000E+00 0.  1.
         12    1    4    4    0    0 -0.96061371498E+01  0.14272356250E+02 -0.27104693507E+02  0.32103620263E+02  0.00000000000E+00 0. -1.
         -5    1    5    5    0  502 -0.62428272786E+02  0.45546545754E+02  0.74323854065E+01  0.77776008035E+02  0.47000000000E+01 0.  1.
         13    1    6    6    0    0 -0.13435793711E+03 -0.26743634547E+01 -0.11124776112E+03  0.17445707735E+03  0.00000000000E+00 0. -1.
        -14    1    6    6    0    0 -0.14748724527E+03 -0.43821019659E+02 -0.46105513514E+02  0.16061907626E+03  0.00000000000E+00 0.  1.
</event>
<event>
12    1  0.1035051E+000  0.1919802E+03  0.7818608E-02  0.1156735E+00
         21   -1    0    0  501  502  0.00000000000E+00  0.00000000000E+00  0.62106888615E+03  0.62106888615E+03  0.00000000000E+00 0.  1.
         21   -1    0    0  502  503 -0.00000000000E+00 -0.00000000000E+00 -0.72721821118E+02  0.72721821118E+02  0.00000000000E+00 0.  1.
         -6    2    1    2    0  503 -0.42820756064E+02 -0.74163239570E+02  0.42345268086E+03  0.46493929948E+03  0.17182134916E+03 0.  0.
        -24    2    3    3    0    0 -0.70187504697E+02  0.47913988019E+01  0.26067483699E+03  0.28190517615E+03  0.81055008372E+02 0.  0.
          6    2    1    2  501    0  0.42820756064E+02  0.74163239570E+02  0.12489438418E+03  0.22885140779E+03  0.17158250608E+03 0.  0.
         24    2    5    5    0    0 -0.21558688505E+02  0.77581684242E+01  0.10801025286E+03  0.13471581278E+03  0.77182700538E+02 0.  0.
          5    1    5    5  501    0  0.64379444569E+02  0.66405071146E+02  0.16884131316E+02  0.94135595006E+02  0.47000000000E+01 0. -1.
        -11    1    6    6    0    0 -0.35132339533E+02  0.70139737797E+01  0.11426664972E+03  0.11975117681E+03  0.00000000000E+00 0.  1.
         12    1    6    6    0    0  0.13573651028E+02  0.74419464458E+00 -0.62563968615E+01  0.14964635966E+02  0.00000000000E+00 0. -1.
         -5    1    3    3    0  503  0.27366748634E+02 -0.78954638372E+02  0.16277784386E+03  0.18303412333E+03  0.47000000000E+01 0.  1.
         11    1    4    4    0    0  0.17494099454E+02  0.78291793760E+01  0.57063603443E+02  0.60196298917E+02  0.00000000000E+00 0. -1.
        -12    1    4    4    0    0 -0.87681604151E+02 -0.30377805741E+01  0.20361123355E+03  0.22170887724E+03  0.00000000000E+00 0.  1.
</event>
<event>
12    1  0.1035051E+000  0.2055167E+03  0.7818608E-02  0.1145485E+00
         21   -1    0    0  503  502  0.00000000000E+00  0.00000000000E+00  0.10418453137E+04  0.10418453137E+04  0.00000000000E+00 0. -1.
         21   -1    0    0  501  503 -0.00000000000E+00 -0.00000000000E+00 -0.40237899677E+02  0.40237899677E+02  0.00000000000E+00 0. -1.
          6    2    1    2  501    0 -0.81644288479E+02 -0.77381748168E+02  0.49326905457E+03  0.53377217621E+03  0.17013127612E+03 0.  0.
         24    2    3    3    0    0 -0.34448188253E+02 -0.46916312380E+02  0.45585273729E+03  0.46611358140E+03  0.77925186065E+02 0.  0.
         -6    2    1    2    0  502  0.81644288479E+02  0.77381748168E+02  0.50833835942E+03  0.54831103713E+03  0.17199820054E+03 0.  0.
        -24    2    5    5    0    0  0.40435587790E+02  0.39744716867E+02  0.11247858274E+03  0.14850889115E+03  0.78668798747E+02 0.  0.
          5    1    3    3  501    0 -0.47196100226E+02 -0.30465435788E+02  0.37416317277E+02  0.67658594819E+02  0.47000000000E+01 0. -1.
        -13    1    4    4    0    0 -0.14045310463E+02  0.15944348202E+02  0.42552070439E+02  0.47562292672E+02  0.00000000000E+00 0.  1.
         14    1    4    4    0    0 -0.20402877790E+02 -0.62860660581E+02  0.41330066685E+03  0.41855128872E+03  0.00000000000E+00 0. -1.
         -5    1    5    5    0  502  0.41208700689E+02  0.37637031301E+02  0.39585977668E+03  0.39980214598E+03  0.47000000000E+01 0.  1.
         11    1    6    6    0    0 -0.22264381875E+02  0.19647759523E+02  0.23774167643E+02  0.38038772347E+02  0.00000000000E+00 0. -1.
        -12    1    6    6    0    0  0.62699969664E+02  0.20096957344E+02  0.88704415102E+02  0.11047011881E+03  0.00000000000E+00 0.  1.
</event>
<event>
12    1  0.1035051E+000  0.3074253E+03  0.7818608E-02  0.1081659E+00
         21   -1    0    0  501  502  0.00000000000E+00  0.00000000000E+00  0.14025308796E+03  0.14025308796E+03  0.00000000000E+00 0. -1.
         21   -1    0    0  502  503 -0.00000000000E+00 -0.00000000000E+00 -0.12047501138E+04  0.12047501138E+04  0.00000000000E+00 0. -1.
         -6    2    1    2    0  503 -0.23868256515E+03  0.88712052640E+02 -0.84986743337E+02  0.31838217980E+03  0.17118782281E+03 0.  0.
        -24    2    3    3    0    0 -0.72860614393E+02 -0.41070065601E+01  0.38479404940E+01  0.10855847247E+03  0.80278257748E+02 0.  0.
          6    2    1    2  501    0  0.23868256515E+03 -0.88712052640E+02 -0.97951028255E+03  0.10266210220E+04  0.17225311029E+03 0.  0.
         24    2    5    5    0    0  0.22078037574E+03 -0.33492552469E+02 -0.63839968121E+03  0.68057447321E+03  0.75906094817E+02 0.  0.
          5    1    5    5  501    0  0.17902189408E+02 -0.55219500171E+02 -0.34111060134E+03  0.34604654880E+03  0.47000000000E+01 0. -1.
        -11    1    6    6    0    0  0.42708213094E+01 -0.46657966973E+01 -0.53262951760E+00  0.63476978253E+01  0.00000000000E+00 0.  1.
         12    1    6    6    0    0  0.21650955444E+03 -0.28826755771E+02 -0.63786705169E+03  0.67422677538E+03  0.00000000000E+00 0. -1.
         -5    1    3    3    0  503 -0.16582195076E+03  0.92819059200E+02 -0.88834683831E+02  0.20982370733E+03  0.47000000000E+01 0.  1.
         13    1    4    4    0    0 -0.29651655339E+02  0.84146502342E+01  0.40244801701E+02  0.50691923093E+02  0.00000000000E+00 0. -1.
        -14    1    4    4    0    0 -0.43208959054E+02 -0.12521656794E+02 -0.36396861207E+02  0.57866549380E+02  0.00000000000E+00 0.  1.
</event>
<event>
12    1  0.1035051E+000  0.2301702E+03  0.7818608E-02  0.1127238E+00
         21   -1    0    0  503  502  0.00000000000E+00  0.00000000000E+00  0.11298029912E+03  0.11298029912E+03  0.00000000000E+00 0.  1.
         21   -1    0    0  501  503 -0.00000000000E+00 -0.00000000000E+00 -0.59260749281E+03  0.59260749281E+03  0.00000000000E+00 0.  1.
          6    2    1    2  501    0 -0.15127919030E+03  0.18020910322E+02 -0.40790374373E+03  0.46836286520E+03  0.17253452618E+03 0.  0.
         24    2    3    3    0    0 -0.66973935832E+02  0.62912113519E+02 -0.15002457514E+03  0.19332404676E+03  0.80145940644E+02 0.  0.
         -6    2    1    2    0  502  0.15127919030E+03 -0.18020910322E+02 -0.71723449955E+02  0.23722492673E+03  0.16709657675E+03 0.  0.
        -24    2    5    5    0    0  0.96037894806E+02  0.20878305237E+02  0.14319237842E+02  0.12772522891E+03  0.80308857912E+02 0.  0.
          5    1    3    3  501    0 -0.84305254469E+02 -0.44891203197E+02 -0.25787916860E+03  0.27503881845E+03  0.47000000000E+01 0. -1.
        -13    1    4    4    0    0 -0.69291555031E+01 -0.17285060907E+02 -0.99623243599E+01  0.21119527295E+02  0.00000000000E+00 0.  1.
         14    1    4    4    0    0 -0.60044780329E+02  0.80197174426E+02 -0.14006225078E+03  0.17220451946E+03  0.00000000000E+00 0. -1.
         -5    1    5    5    0  502  0.55241295495E+02 -0.38899215559E+02 -0.86042687798E+02  0.10949969782E+03  0.47000000000E+01 0.  1.
         11    1    6    6    0    0  0.16437200419E+02 -0.28638355478E+02  0.97176540233E+00  0.33034546918E+02  0.00000000000E+00 0. -1.
        -12    1    6    6    0    0  0.79600694387E+02  0.49516660715E+02  0.13347472440E+02  0.94690681990E+02  0.00000000000E+00 0.  1.
</event>
<event>
12    1  0.1035051E+000  0.1841014E+03  0.7818608E-02  0.1163912E+00
         21   -1    0    0  503  502  0.00000000000E+00  0.00000000000E+00  0.49961031559E+03  0.49961031559E+03  0.00000000000E+00 0.  1.
         21   -1    0    0  501  503 -0.00000000000E+00 -0.00000000000E+00 -0.86323030839E+02  0.86323030839E+02  0.00000000000E+00 0.  1.
          6    2    1    2  501    0  0.57873011125E+02 -0.30460936114E+02  0.34228764968E+03  0.38861563939E+03  0.17200036630E+03 0.  0.
         24    2    3    3    0    0 -0.14398235663E+02 -0.69216492775E+02  0.18548742030E+03  0.21160284827E+03  0.73293589392E+02 0.  0.
         -6    2    1    2    0  502 -0.57873011125E+02  0.30460936114E+02  0.70999635068E+02  0.19731770704E+03  0.17209350739E+03 0.  0.
        -24    2    5    5    0    0 -0.88026222868E+02  0.20636486524E+02  0.98915217543E+02  0.15480764078E+03  0.77502934748E+02 0.  0.
          5    1    3    3  501    0  0.72271246788E+02  0.38755556660E+02  0.15680022939E+03  0.17701279112E+03  0.47000000000E+01 0. -1.
        -13    1    4    4    0    0 -0.41424375725E+02 -0.21610069346E+02  0.76496078312E+02  0.89636064162E+02  0.00000000000E+00 0.  1.
         14    1    4    4    0    0  0.27026140062E+02 -0.47606423429E+02  0.10899134199E+03  0.12196678411E+03  0.00000000000E+00 0. -1.
         -5    1    5    5    0  502  0.30153211743E+02  0.98244495905E+01 -0.27915582475E+02  0.42510066256E+02  0.47000000000E+01 0.  1.
         13    1    6    6    0    0 -0.39677907431E+02  0.48000080567E+02  0.63404153491E+02  0.88873116028E+02  0.00000000000E+00 0. -1.
        -14    1    6    6    0    0 -0.48348315437E+02 -0.27363594043E+02  0.35511064052E+02  0.65934524755E+02  0.00000000000E+00 0.  1.
</event>
<event>
12    1  0.1035051E+000  0.2125285E+03  0.7818608E-02  0.1139726E+00
         21   -1    0    0  503  502  0.00000000000E+00  0.00000000000E+00  0.10857539149E+03  0.10857539149E+03  0.00000000000E+00 0. -1.
         21   -1    0    0  501  503 -0.00000000000E+00 -0.00000000000E+00 -0.48269484207E+03  0.48269484207E+03  0.00000000000E+00 0. -1.
          6    2    1    2  501    0 -0.77259095668E+02 -0.95403086018E+02 -0.75683370678E+02  0.22489275027E+03  0.17256320536E+03 0.  0.
         24    2    3    3    0    0  0.21702529168E+02 -0.70311122256E+02 -0.25898661683E+02  0.11121066248E+03  0.79261700001E+02 0.  0.
         -6    2    1    2    0  502  0.77259095668E+02  0.95403086018E+02 -0.29843607990E+03  0.36637748329E+03  0.17348674239E+03 0.  0.
        -24    2    5    5    0    0 -0.10925896323E+02  0.75339993252E+02 -0.10587610747E+03  0.15358520549E+03  0.81136769838E+02 0.  0.
          5    1    3    3  501    0 -0.98961624836E+02 -0.25091963762E+02 -0.49784708995E+02  0.11368208779E+03  0.47000000000E+01 0. -1.
        -13    1    4    4    0    0  0.12115911467E+02 -0.85728027296E+02 -0.10141893534E+02  0.87171944909E+02  0.00000000000E+00 0.  1.
         14    1    4    4    0    0  0.95866177014E+01  0.15416905040E+02 -0.15756768148E+02  0.24038717571E+02  0.00000000000E+00 0. -1.
         -5    1    5    5    0  502  0.88184991991E+02  0.20063092766E+02 -0.19255997244E+03  0.21279227779E+03  0.47000000000E+01 0.  1.
         13    1    6    6    0    0 -0.30867901895E+02  0.10333488606E+02 -0.68859435049E+02  0.76165806958E+02  0.00000000000E+00 0. -1.
        -14    1    6    6    0    0  0.19942005572E+02  0.65006504646E+02 -0.37016672420E+02  0.77419398535E+02  0.00000000000E+00 0.  1.
</event>
<event>
12    1  0.1035051E+000  0.2078649E+03  0.7818608E-02  0.1144233E+00
         21   -1    0    0  501  502  0.00000000000E+00  0.00000000000E+00  0.78048793931E+02  0.78048793931E+02  0.00000000000E+00 0. -1.
         21   -1    0    0  502  503 -0.00000000000E+00 -0.00000000000E+00 -0.61707041674E+03  0.61707041674E+03  0.00000000000E+00 0. -1.
         -6    2    1    2    0  503 -0.54531586843E+02 -0.91794603737E+02 -0.15023739324E+03  0.25647436528E+03  0.17834764500E+03 0.  0.
        -24    2    3    3    0    0 -0.70364250083E+02 -0.71585770480E+02 -0.17705561600E+03  0.21905275068E+03  0.80992383564E+02 0.  0.
          6    2    1    2  501    0  0.54531586843E+02  0.91794603737E+02 -0.38878422957E+03  0.43864484539E+03  0.17278940937E+03 0.  0.
         24    2    5    5    0    0  0.55181459111E+02  0.73183640692E+02 -0.39891401711E+03  0.41693095870E+03  0.79361152834E+02 0.  0.
          5    1    5    5  501    0 -0.64987226753E+00  0.18610963045E+02  0.10129787547E+02  0.21713886690E+02  0.47000000000E+01 0. -1.
        -13    1    6    6    0    0 -0.43788799242E+01  0.59303551172E+02 -0.17566436564E+03  0.18545634291E+03  0.00000000000E+00 0.  1.
         14    1    6    6    0    0  0.59560339035E+02  0.13880089520E+02 -0.22324965147E+03  0.23147461579E+03  0.00000000000E+00 0. -1.
         -5    1    3    3    0  503  0.15832663239E+02 -0.20208833257E+02  0.26818222766E+02  0.37421614599E+02  0.47000000000E+01 0.  1.
         11    1    4    4    0    0  0.13819716449E+02  0.49665290041E+01 -0.14562208175E+02  0.20681123760E+02  0.00000000000E+00 0. -1.
        -12    1    4    4    0    0 -0.84183966532E+02 -0.76552299484E+02 -0.16249340783E+03  0.19837162692E+03  0.00000000000E+00 0.  1.
</event>
<event>
12    1  0.1035051E+000  0.1772158E+03  0.7818608E-02  0.1170738E+00
         21   -1    0    0  501  502  0.00000000000E+00  0.00000000000E+00  0.69706367945E+03  0.69706367945E+03  0.00000000000E+00 0.  1.
         21   -1    0    0  502  503 -0.00000000000E+00 -0.00000000000E+00 -0.44853257958E+02  0.44853257958E+02  0.00000000000E+00 0.  1.
         -6    2    1    2    0  503 -0.18847336903E+02 -0.40273121172E+02  0.31804493579E+03  0.36366832289E+03  0.17066025165E+03 0.  0.
        -24    2    3    3    0    0 -0.18870874210E+02  0.29583249175E+02  0.25447709931E+03  0.26910155882E+03  0.80160940357E+02 0.  0.
          6    2    1    2  501    0  0.18847336903E+02  0.40273121172E+02  0.33416548570E+03  0.37824861452E+03  0.17154677542E+03 0.  0.
         24    2    5    5    0    0  0.73675091696E+02  0.29994930661E+02  0.27297725757E+03  0.29531603252E+03  0.79795118332E+02 0.  0.
          5    1    5    5  501    0 -0.54827754794E+02  0.10278190511E+02  0.61188228133E+02  0.82932582004E+02  0.47000000000E+01 0. -1.
        -11    1    6    6    0    0  0.47711393526E+02  0.85997668685E+00  0.50644694385E+02  0.69584493255E+02  0.00000000000E+00 0.  1.
         12    1    6    6    0    0  0.25963698170E+02  0.29134953974E+02  0.22233256318E+03  0.22573153926E+03  0.00000000000E+00 0. -1.
         -5    1    3    3    0  503  0.23537306914E-01 -0.69856370347E+02  0.63567836478E+02  0.94566764069E+02  0.47000000000E+01 0.  1.
         11    1    4    4    0    0 -0.27386456996E+02  0.18057575620E+02  0.30899597785E+02  0.45065277180E+02  0.00000000000E+00 0. -1.
        -12    1    4    4    0    0  0.85155827863E+01  0.11525673555E+02  0.22357750153E+03  0.22403628164E+03  0.00000000000E+00 0.  1.
</event>
<event>
12    1  0.1035051E+000  0.2474870E+03  0.7818608E-02  0.1115730E+00
         21   -1    0    0  503  502  0.00000000000E+00  0.00000000000E+00  0.88250807163E+02  0.88250807163E+02  0.00000000000E+00 0. -1.
         21   -1    0    0  501  503 -0.00000000000E+00 -0.00000000000E+00 -0.76893034266E+03  0.76893034266E+03  0.00000000000E+00 0. -1.
          6    2    1    2  501    0 -0.16472837439E+03 -0.64362811240E+02 -0.48312448634E+03  0.54051446055E+03  0.16573654987E+03 0.  0.
         24    2    3    3    0    0 -0.18111518845E+03 -0.77481489234E+02 -0.46955908301E+03  0.51508342528E+03  0.77582922739E+02 0.  0.
         -6    2    1    2    0  502  0.16472837439E+03  0.64362811240E+02 -0.19755504916E+03  0.31666668928E+03  0.17312361436E+03 0.  0.
        -24    2    5    5    0    0  0.15541186086E+03  0.14228214471E+02 -0.19954852038E+03  0.26541886840E+03  0.79197696503E+02 0.  0.
          5    1    3    3  501    0  0.16386814057E+02  0.13118677994E+02 -0.13565403324E+02  0.25431035264E+02  0.47000000000E+01 0. -1.
        -13    1    4    4    0    0 -0.11248801110E+02 -0.20228395769E+02 -0.12033202678E+03  0.12253783167E+03  0.00000000000E+00 0.  1.
         14    1    4    4    0    0 -0.16986638734E+03 -0.57253093465E+02 -0.34922705623E+03  0.39254559361E+03  0.00000000000E+00 0. -1.
         -5    1    5    5    0  502  0.93165135319E+01  0.50134596769E+02  0.19934712191E+01  0.51247820881E+02  0.47000000000E+01 0.  1.
         13    1    6    6    0    0  0.10850581512E+03  0.46460873843E+02 -0.13785417794E+03  0.18148250353E+03  0.00000000000E+00 0. -1.
        -14    1    6    6    0    0  0.46906045736E+02 -0.32232659372E+02 -0.61694342444E+02  0.83936364863E+02  0.00000000000E+00 0.  1.
</event>
<event>
12    1  0.1035051E+000  0.1814367E+03  0.7818608E-02  0.1166567E+00
         21   -1    0    0  503  502  0.00000000000E+00  0.00000000000E+00  0.75565874859E+02  0.75565874859E+02  0.00000000000E+00 0.  1.
         21   -1    0    0  501  503 -0.00000000000E+00 -0.00000000000E+00 -0.45720367695E+03  0.45720367695E+03  0.00000000000E+00 0.  1.
          6    2    1    2  501    0  0.52936409392E+02  0.12053022802E+02 -0.13070829282E+03  0.22311667876E+03  0.17247856600E+03 0.  0.
         24    2    3    3    0    0  0.13102917706E+02 -0.38077330616E+02 -0.13071319771E+03  0.15891504780E+03  0.80910338048E+02 0.  0.
         -6    2    1    2    0  502 -0.52936409392E+02 -0.12053022802E+02 -0.25092950926E+03  0.30965287305E+03  0.17312349456E+03 0.  0.
        -24    2    5    5    0    0 -0.44723018147E+02 -0.26574113871E+02 -0.40218991731E+02  0.98230702777E+02  0.72975145029E+02 0.  0.
          5    1    3    3  501    0  0.39833491686E+02  0.50130353418E+02  0.49048870308E-02  0.64201630959E+02  0.47000000000E+01 0. -1.
        -11    1    4    4    0    0  0.24905427879E+02 -0.19360229607E+02 -0.58209671697E+01  0.32077756890E+02  0.00000000000E+00 0.  1.
         12    1    4    4    0    0 -0.11802510173E+02 -0.18717101009E+02 -0.12489223054E+03  0.12683729091E+03  0.00000000000E+00 0. -1.
         -5    1    5    5    0  502 -0.82133912459E+01  0.14521091070E+02 -0.21071051753E+03  0.21142217027E+03  0.47000000000E+01 0.  1.
         11    1    6    6    0    0  0.99223505682E+01 -0.22417239814E+02 -0.35611873552E+02  0.43234144141E+02  0.00000000000E+00 0. -1.
        -12    1    6    6    0    0 -0.54645368715E+02 -0.41568740572E+01 -0.46071181785E+01  0.54996558636E+02  0.00000000000E+00 0.  1.
</event>
<event>
12    1  0.1035051E+000  0.3283108E+03  0.7818608E-02  0.1071915E+00
         21   -1    0    0  503  502  0.00000000000E+00  0.00000000000E+00  0.22512135919E+03  0.22512135919E+03  0.00000000000E+00 0.  1.
         21   -1    0    0  501  503 -0.00000000000E+00 -0.00000000000E+00 -0.60540235577E+03  0.60540235577E+03  0.00000000000E+00 0.  1.
          6    2    1    2  501    0  0.78523143391E+02 -0.26800996297E+03 -0.23103378708E-01  0.32831084060E+03  0.17260586091E+03 0.  0.
         24    2    3    3    0    0  0.70461949732E+02 -0.25359044710E+03  0.46202332274E+02  0.27899769648E+03  0.80200111693E+02 0.  0.
         -6    2    1    2    0  502 -0.78523143391E+02  0.26800996297E+03 -0.38025789321E+03  0.50221287436E+03  0.17212344852E+03 0.  0.
        -24    2    5    5    0    0  0.37893086673E+02  0.13565265484E+03 -0.14383821045E+03  0.20727635232E+03  0.49361185806E+02 0.  0.
          5    1    3    3  501    0  0.80611936586E+01 -0.14419515875E+02 -0.46225435652E+02  0.49313144115E+02  0.47000000000E+01 0. -1.
        -13    1    4    4    0    0  0.10283290268E+02 -0.78038101450E+02  0.50228831531E+02  0.93373587559E+02  0.00000000000E+00 0.  1.
         14    1    4    4    0    0  0.60178659464E+02 -0.17555234565E+03 -0.40264992575E+01  0.18562410892E+03  0.00000000000E+00 0. -1.
         -5    1    5    5    0  502 -0.11641623006E+03  0.13235730813E+03 -0.23641968276E+03  0.29493652204E+03  0.47000000000E+01 0.  1.
         11    1    6    6    0    0  0.11496043921E+02  0.66279029494E+02 -0.35813035561E+02  0.76207888651E+02  0.00000000000E+00 0. -1.
        -12    1    6    6    0    0  0.26397042752E+02  0.69373625348E+02 -0.10802517489E+03  0.13106846367E+03  0.00000000000E+00 0.  1.
</event>
<event>
12    1  0.1035051E+000  0.4173268E+03  0.7818608E-02  0.1037967E+00
         21   -1    0    0  501  502  0.00000000000E+00  0.00000000000E+00  0.56283948682E+03  0.56283948682E+03  0.00000000000E+00 0. -1.
         21   -1    0    0  502  503 -0.00000000000E+00 -0.00000000000E+00 -0.35329844722E+03  0.35329844722E+03  0.00000000000E+00 0. -1.
         -6    2    1    2    0  503 -0.15131275126E+02  0.37938221645E+03  0.26665689998E+03  0.49524490941E+03  0.17321026628E+03 0.  0.
        -24    2    3    3    0    0 -0.14410174277E+01  0.69472331380E+02  0.83801072257E+02  0.13512006474E+03  0.80039557872E+02 0.  0.
          6    2    1    2  501    0  0.15131275126E+02 -0.37938221645E+03 -0.57115860379E+02  0.42089302463E+03  0.17242069201E+03 0.  0.
         24    2    5    5    0    0  0.24874202083E+02 -0.26947466026E+03 -0.10710970856E+03  0.29966567463E+03  0.71356208068E+02 0.  0.
          5    1    5    5  501    0 -0.97429269571E+01 -0.10990755619E+03  0.49993848184E+02  0.12122735001E+03  0.47000000000E+01 0. -1.
        -11    1    6    6    0    0  0.23911789993E+02 -0.47200583457E+02  0.38453921685E-01  0.52911910361E+02  0.00000000000E+00 0.  1.
         12    1    6    6    0    0  0.96241208981E+00 -0.22227407680E+03 -0.10714816248E+03  0.24675376426E+03  0.00000000000E+00 0. -1.
         -5    1    3    3    0  503 -0.13690257698E+02  0.30990988507E+03  0.18285582772E+03  0.36012484467E+03  0.47000000000E+01 0.  1.
         13    1    4    4    0    0  0.68827633800E+01  0.58978275632E+02  0.10124083696E+02  0.60235425614E+02  0.00000000000E+00 0. -1.
        -14    1    4    4    0    0 -0.83237808077E+01  0.10494055748E+02  0.73676988561E+02  0.74884639122E+02  0.00000000000E+00 0.  1.
</event>
<event>
12    1  0.1035051E+000  0.2231460E+03  0.7818608E-02  0.1134003E+00
         21   -1    0    0  501  502  0.00000000000E+00  0.00000000000E+00  0.46989560246E+03  0.46989560246E+03  0.00000000000E+00 0. -1.
         21   -1    0    0  502  503 -0.00000000000E+00 -0.00000000000E+00 -0.10394579883E+03  0.10394579883E+03  0.00000000000E+00 0. -1.
         -6    2    1    2    0  503  0.12093198348E+03  0.13534247353E+02  0.23420071269E+03  0.31470448710E+03  0.17140950935E+03 0.  0.
        -24    2    3    3    0    0  0.10525636280E+03 -0.36260393722E+02  0.22207580963E+03  0.26090546631E+03  0.79751357768E+02 0.  0.
          6    2    1    2  501    0 -0.12093198348E+03 -0.13534247353E+02  0.13174909094E+03  0.25913691420E+03  0.18704650988E+03 0.  0.
         24    2    5    5    0    0 -0.10292646230E+03 -0.29868067233E+02  0.93516335618E+01  0.13426009474E+03  0.80326595272E+02 0.  0.
          5    1    5    5  501    0 -0.18005521178E+02  0.16333819880E+02  0.12239745738E+03  0.12487681946E+03  0.47000000000E+01 0. -1.
        -11    1    6    6    0    0 -0.19644147022E+02 -0.37655079098E+02 -0.18182057014E+02  0.46199401418E+02  0.00000000000E+00 0.  1.
         12    1    6    6    0    0 -0.83282315281E+02  0.77870118652E+01  0.27533690576E+02  0.88060693326E+02  0.00000000000E+00 0. -1.
         -5    1    3    3    0  503  0.15675620679E+02  0.49794641075E+02  0.12124903065E+02  0.53799020788E+02  0.47000000000E+01 0.  1.
         11    1    4    4    0    0  0.66566560586E+02 -0.12434186040E+02  0.53465892473E+02  0.86280459136E+02  0.00000000000E+00 0. -1.
        -12    1    4    4    0    0  0.38689802216E+02 -0.23826207683E+02  0.16860991715E+03  0.17462500717E+03  0.00000000000E+00 0.  1.
</event>
<event>
12    1  0.1035051E+000  0.3385246E+03  0.7818608E-02  0.1068101E+00
         21   -1    0    0  503  502  0.00000000000E+00  0.00000000000E+00  0.10473100677E+04  0.10473100677E+04  0.00000000000E+00 0. -1.
         21   -1    0    0  501  503 -0.00000000000E+00 -0.00000000000E+00 -0.12966321006E+03  0.12966321006E+03  0.00000000000E+00 0. -1.
          6    2    1    2  501    0 -0.73410047153E+01 -0.28477766507E+03  0.70612988296E+03  0.78308258914E+03  0.18288444694E+03 0.  0.
         24    2    3    3    0    0 -0.17463357857E+01 -0.79023854721E+02  0.13777659796E+03  0.17858819102E+03  0.81630458291E+02 0.  0.
         -6    2    1    2    0  502  0.73410047153E+01  0.28477766507E+03  0.21151697468E+03  0.39389068863E+03  0.17105038772E+03 0.  0.
        -24    2    5    5    0    0 -0.30193753790E+02  0.10279895494E+03  0.13052596930E+03  0.19114271210E+03  0.89550096709E+02 0.  0.
          5    1    3    3  501    0 -0.55946689296E+01 -0.20575381034E+03  0.56835328500E+03  0.60449439812E+03  0.47000000000E+01 0. -1.
        -13    1    4    4    0    0 -0.40236030849E+01 -0.24591995351E+02  0.11804351859E+03  0.12064504921E+03  0.00000000000E+00 0.  1.
         14    1    4    4    0    0  0.22772672992E+01 -0.54431859370E+02  0.19733079367E+02  0.57943141804E+02  0.00000000000E+00 0. -1.
         -5    1    5    5    0  502  0.37534758506E+02  0.18197871012E+03  0.80991005377E+02  0.20274797653E+03  0.47000000000E+01 0.  1.
         13    1    6    6    0    0  0.24145306389E+02  0.19711642127E+02  0.57597907761E+01  0.31697316065E+02  0.00000000000E+00 0. -1.
        -14    1    6    6    0    0 -0.54339060179E+02  0.83087312816E+02  0.12476617853E+03  0.15944539603E+03  0.00000000000E+00 0.  1.
</event>
<event>
12    1  0.1035051E+000  0.1803774E+03  0.7818608E-02  0.1167709E+00
         21   -1    0    0  503  502  0.00000000000E+00  0.00000000000E+00  0.48398972450E+03  0.48398972450E+03  0.00000000000E+00 0. -1.
         21   -1    0    0  501  503 -0.00000000000E+00 -0.00000000000E+00 -0.79373689394E+02  0.79373689394E+02  0.00000000000E+00 0. -1.
          6    2    1    2  501    0  0.48377876818E+02 -0.24922965562E+02  0.31384994034E+03  0.36143644118E+03  0.17080088636E+03 0.  0.
         24    2    3    3    0    0 -0.21131200629E+02  0.13997687099E+02  0.86409540020E+02  0.12040209767E+03  0.79922422591E+02 0.  0.
         -6    2    1    2    0  502 -0.48377876818E+02  0.24922965562E+02  0.90766094766E+02  0.20192697272E+03  0.17197222210E+03 0.  0.
        -24    2    5    5    0    0 -0.61965369826E+02 -0.13511519804E+02 -0.89241775435E+00  0.10150186356E+03  0.79243697996E+02 0.  0.
          5    1    3    3  501    0  0.69509077447E+02 -0.38920652660E+02  0.22744040032E+03  0.24103434351E+03  0.47000000000E+01 0. -1.
        -13    1    4    4    0    0 -0.16512029462E+02 -0.32815674647E+02  0.35476186175E+02  0.51069319606E+02  0.00000000000E+00 0.  1.
         14    1    4    4    0    0 -0.46191711670E+01  0.46813361746E+02  0.50933353845E+02  0.69332778064E+02  0.00000000000E+00 0. -1.
         -5    1    5    5    0  502  0.13587493008E+02  0.38434485366E+02  0.91658512520E+02  0.10042510916E+03  0.47000000000E+01 0.  1.
         13    1    6    6    0    0  0.79747483353E+01  0.65239754366E+00 -0.24945421812E+02  0.26197257546E+02  0.00000000000E+00 0. -1.
        -14    1    6    6    0    0 -0.69940118161E+02 -0.14163917348E+02  0.24053004057E+02  0.75304606016E+02  0.00000000000E+00 0.  1.
</event>
<event>
12    1  0.1035051E+000  0.2474452E+03  0.7818608E-02  0.1114991E+00
         21   -1    0    0  501  502  0.00000000000E+00  0.00000000000E+00  0.14250248466E+03  0.14250248466E+03  0.00000000000E+00 0.  1.
         21   -1    0    0  502  503 -0.00000000000E+00 -0.00000000000E+00 -0.50130382344E+03  0.50130382344E+03  0.00000000000E+00 0.  1.
         -6    2    1    2    0  503 -0.38553684655E+02 -0.17468104698E+03 -0.30176429068E+03  0.39024453432E+03  0.17096565346E+03 0.  0.
        -24    2    3    3    0    0  0.35362675231E+02 -0.79208428817E+02 -0.20172768631E+03  0.23337496655E+03  0.79027347130E+02 0.  0.
          6    2    1    2  501    0  0.38553684655E+02  0.17468104698E+03 -0.57037048097E+02  0.25356177379E+03  0.17041271518E+03 0.  0.
         24    2    5    5    0    0  0.24099432382E+02  0.42064520219E+02 -0.72709155511E+02  0.11916023536E+03  0.81008233500E+02 0.  0.
          5    1    5    5  501    0  0.14454252273E+02  0.13261652676E+03  0.15672107413E+02  0.13440153842E+03  0.47000000000E+01 0. -1.
        -11    1    6    6    0    0  0.13711597791E+02 -0.70473811164E+00  0.15423330333E+02  0.20649060229E+02  0.00000000000E+00 0.  1.
         12    1    6    6    0    0  0.10387834591E+02  0.42769258331E+02 -0.88132485844E+02  0.98511175136E+02  0.00000000000E+00 0. -1.
         -5    1    3    3    0  503 -0.73916359886E+02 -0.95472618164E+02 -0.10003660437E+03  0.15686956777E+03  0.47000000000E+01 0.  1.
         11    1    4    4    0    0 -0.13965041395E+02 -0.61398502439E+02 -0.13077094391E+03  0.14514075325E+03  0.00000000000E+00 0. -1.
        -12    1    4    4    0    0  0.49327716626E+02 -0.17809926378E+02 -0.70956742398E+02  0.88234213301E+02  0.00000000000E+00 0.  1.
</event>
<event>
12    1  0.1035051E+000  0.1785869E+03  0.7818608E-02  0.1169575E+00
         21   -1    0    0  503  502  0.00000000000E+00  0.00000000000E+00  0.41393201308E+02  0.41393201308E+02  0.00000000000E+00 0. -1.
         21   -1    0    0  501  503 -0.00000000000E+00 -0.00000000000E+00 -0.96905632886E+03  0.96905632886E+03  0.00000000000E+00 0. -1.
          6    2    1    2  501    0  0.27629238902E+01 -0.41072958993E+02 -0.22950017572E+03  0.28980760458E+03  0.17211477365E+03 0.  0.
         24    2    3    3    0    0  0.53111660327E+02  0.15761914672E+02 -0.12105690556E+03  0.15734164303E+03  0.83858999706E+02 0.  0.
         -6    2    1    2    0  502 -0.27629238902E+01  0.41072958993E+02 -0.69816295183E+03  0.72064192558E+03  0.17377760471E+03 0.  0.
        -24    2    5    5    0    0 -0.60331646876E+02  0.56332387725E+02 -0.54128390559E+03  0.55277253236E+03  0.75868047066E+02 0.  0.
          5    1    3    3  501    0 -0.50348736437E+02 -0.56834873665E+02 -0.10844327017E+03  0.13246596155E+03  0.47000000000E+01 0. -1.
        -13    1    4    4    0    0 -0.23043725557E+02  0.24576236193E+01 -0.29371656807E+02  0.37413198540E+02  0.00000000000E+00 0.  1.
         14    1    4    4    0    0  0.76155385884E+02  0.13304291053E+02 -0.91685248749E+02  0.11992844449E+03  0.00000000000E+00 0. -1.
         -5    1    5    5    0  502  0.57568722986E+02 -0.15259428732E+02 -0.15687904624E+03  0.16786939322E+03  0.47000000000E+01 0.  1.
         11    1    6    6    0    0 -0.25483586799E+02 -0.68978259627E+01 -0.29349290703E+03  0.29467792533E+03  0.00000000000E+00 0. -1.
        -12    1    6    6    0    0 -0.34848060077E+02  0.63230213687E+02 -0.24779099855E+03  0.25809460703E+03  0.00000000000E+00 0.  1.
</event>
<event>
12    1  0.1035051E+000  0.3115086E+03  0.7818608E-02  0.1079680E+00
         21   -1    0    0  503  502  0.00000000000E+00  0.00000000000E+00  0.14567276060E+03  0.14567276060E+03  0.00000000000E+00 0.  1.
         21   -1    0    0  501  503 -0.00000000000E+00 -0.00000000000E+00 -0.67541179211E+03  0.67541179211E+03  0.00000000000E+00 0.  1.
          6    2    1    2  501    0 -0.50004793427E+02  0.25461488877E+03 -0.31566302317E+03  0.44348707078E+03  0.17236129727E+03 0.  0.
         24    2    3    3    0    0 -0.23489256912E+02  0.46138303019E+02 -0.14071410881E+03  0.17000074000E+03  0.80120552835E+02 0.  0.
         -6    2    1    2    0  502  0.50004793427E+02 -0.25461488877E+03 -0.21407600834E+03  0.37759748194E+03  0.17152871500E+03 0.  0.
        -24    2    5    5    0    0  0.64194108976E+02 -0.18825943674E+03 -0.22228755626E+03  0.30908542307E+03  0.80990999129E+02 0.  0.
          5    1    3    3  501    0 -0.26515536515E+02  0.20847658575E+03 -0.17494891436E+03  0.27348633078E+03  0.47000000000E+01 0. -1.
        -13    1    4    4    0    0 -0.47936561571E+02  0.29203341724E+02 -0.12345224239E+03  0.13561417792E+03  0.00000000000E+00 0.  1.
         14    1    4    4    0    0  0.24447304659E+02  0.16934961294E+02 -0.17261866423E+02  0.34386562078E+02  0.00000000000E+00 0. -1.
         -5    1    5    5    0  502 -0.14189315549E+02 -0.66355452038E+02  0.82115479227E+01  0.68512058867E+02  0.47000000000E+01 0.  1.
         13    1    6    6    0    0 -0.59694360670E+01 -0.75490580558E+02 -0.11804935173E+03  0.14025017421E+03  0.00000000000E+00 0. -1.
        -14    1    6    6    0    0  0.70163545043E+02 -0.11276885618E+03 -0.10423820453E+03  0.16883524886E+03  0.00000000000E+00 0.  1.
</event>
<event>
12    1  0.1035051E+000  0.3424379E+03  0.7818608E-02  0.1066359E+00
         21   -1    0    0  503  502  0.00000000000E+00  0.00000000000E+00  0.11196221658E+04  0.11196221658E+04  0.00000000000E+00 0. -1.
         21   -1    0    0  501  503 -0.00000000000E+00 -0.00000000000E+00 -0.11924881850E+03  0.11924881850E+03  0.00000000000E+00 0. -1.
          6    2    1    2  501    0  0.21486320336E+03  0.20333609797E+03  0.72506737998E+03  0.79948836991E+03  0.16108129379E+03 0.  0.
         24    2    3    3    0    0  0.15335512745E+03  0.16570234461E+03  0.66019661806E+03  0.70238096264E+03  0.80649736854E+02 0.  0.
         -6    2    1    2    0  502 -0.21486320336E+03 -0.20333609797E+03  0.27530596737E+03  0.43938261444E+03  0.17248751058E+03 0.  0.
        -24    2    5    5    0    0 -0.82912546418E+02 -0.38484750357E+02  0.39922420794E+02  0.12313200705E+03  0.72195049097E+02 0.  0.
          5    1    3    3  501    0  0.61508075912E+02  0.37633753359E+02  0.64870761923E+02  0.97107407270E+02  0.47000000000E+01 0. -1.
        -13    1    4    4    0    0  0.80784095570E+02  0.10178600886E+03  0.25999380274E+03  0.29066000612E+03  0.00000000000E+00 0.  1.
         14    1    4    4    0    0  0.72571031879E+02  0.63916335757E+02  0.40020281532E+03  0.41172095652E+03  0.00000000000E+00 0. -1.
         -5    1    5    5    0  502 -0.13195065694E+03 -0.16485134761E+03  0.23538354658E+03  0.31625060739E+03  0.47000000000E+01 0.  1.
         13    1    6    6    0    0 -0.23609037931E+02  0.19312323571E+02  0.23985818714E+02  0.38802989744E+02  0.00000000000E+00 0. -1.
        -14    1    6    6    0    0 -0.59303508487E+02 -0.57797073928E+02  0.15936602080E+02  0.84329017304E+02  0.00000000000E+00 0.  1.
</event>
<event>
12    1  0.1035051E+000  0.2103322E+03  0.7818608E-02  0.1141637E+00
         21   -1    0    0  503  502  0.00000000000E+00  0.00000000000E+00  0.36458781808E+02  0.36458781808E+02  0.00000000000E+00 0.  1.
         21   -1    0    0  501  503 -0.00000000000E+00 -0.00000000000E+00 -0.12304102523E+04  0.12304102523E+04  0.00000000000E+00 0.  1.
          6    2    1    2  501    0 -0.11222613720E+03 -0.42555882471E+02 -0.50137374074E+03  0.54305721686E+03  0.17067455543E+03 0.  0.
         24    2    3    3    0    0 -0.42265792969E+02 -0.16296433992E+02 -0.42789967684E+03  0.43815470752E+03  0.82640445678E+02 0.  0.
         -6    2    1    2    0  502  0.11222613720E+03  0.42555882471E+02 -0.69257772979E+03  0.72381181729E+03  0.17272500122E+03 0.  0.
        -24    2    5    5    0    0  0.12507680085E+03  0.18280095591E+02 -0.35768548718E+03  0.38776218175E+03  0.80263527535E+02 0.  0.
          5    1    3    3  501    0 -0.69960344234E+02 -0.26259448479E+02 -0.73474063900E+02  0.10490250934E+03  0.47000000000E+01 0. -1.
        -13    1    4    4    0    0 -0.53602408895E+02 -0.40701494308E+02 -0.31042284495E+03  0.31763528228E+03  0.00000000000E+00 0.  1.
         14    1    4    4    0    0  0.11336615926E+02  0.24405060316E+02 -0.11747683189E+03  0.12051942524E+03  0.00000000000E+00 0. -1.
         -5    1    5    5    0  502 -0.12850663650E+02  0.24275786880E+02 -0.33489224261E+03  0.33604963554E+03  0.47000000000E+01 0.  1.
         11    1    6    6    0    0  0.64258858510E+02  0.31258106342E+02 -0.27599040078E+03  0.28509116337E+03  0.00000000000E+00 0. -1.
        -12    1    6    6    0    0  0.60817942343E+02 -0.12978010751E+02 -0.81695086399E+02  0.10267101838E+03  0.00000000000E+00 0.  1.
</event>
<event>
12    1  0.1035051E+000  0.2319026E+03  0.7818608E-02  0.1125475E+00
         21   -1    0    0  503  502  0.00000000000E+00  0.00000000000E+00  0.14658888849E+03  0.14658888849E+03  0.00000000000E+00 0. -1.
         21   -1    0    0  501  503 -0.00000000000E+00 -0.00000000000E+00 -0.62589822141E+03  0.62589822141E+03  0.00000000000E+00 0. -1.
          6    2    1    2  501    0  0.38963944284E+01 -0.15410549852E+03 -0.48856733139E+03  0.54039977617E+03  0.17195986225E+03 0.  0.
         24    2    3    3    0    0  0.63463783941E+02 -0.13171776524E+03 -0.39112530208E+03  0.42392435572E+03  0.73182210205E+02 0.  0.
         -6    2    1    2    0  502 -0.38963944284E+01  0.15410549852E+03  0.92579984781E+01  0.23208733372E+03  0.17324876155E+03 0.  0.
        -24    2    5    5    0    0 -0.22429550998E+02  0.11186067817E+03  0.65075606534E+02  0.15952151459E+03  0.90533877476E+02 0.  0.
          5    1    3    3  501    0 -0.59567389512E+02 -0.22387733271E+02 -0.97442029308E+02  0.11647542045E+03  0.47000000000E+01 0. -1.
        -11    1    4    4    0    0  0.55985116726E+02 -0.59582462988E+02 -0.27605371414E+03  0.28790633248E+03  0.00000000000E+00 0.  1.
         12    1    4    4    0    0  0.74786672144E+01 -0.72135302256E+02 -0.11507158794E+03  0.13601802324E+03  0.00000000000E+00 0. -1.
         -5    1    5    5    0  502  0.18533156570E+02  0.42244820343E+02 -0.55817608056E+02  0.72565819139E+02  0.47000000000E+01 0.  1.
         13    1    6    6    0    0 -0.17526289736E+02 -0.11036616136E+02  0.19222110319E+02  0.28257162857E+02  0.00000000000E+00 0. -1.
        -14    1    6    6    0    0 -0.49032612623E+01  0.12289729431E+03  0.45853496216E+02  0.13126435173E+03  0.00000000000E+00 0.  1.
</event>
<event>
12    1  0.1035051E+000  0.2830832E+03  0.7818608E-02  0.1094134E+00
         21   -1    0    0  503  502  0.00000000000E+00  0.00000000000E+00  0.72639233148E+03  0.72639233148E+03  0.00000000000E+00 0. -1.
         21   -1    0    0  501  503 -0.00000000000E+00 -0.00000000000E+00 -0.32540208873E+03  0.32540208873E+03  0.00000000000E+00 0. -1.
          6    2    1    2  501    0 -0.19533186170E+03  0.11252557570E+03 -0.22749930338E+03  0.36249391176E+03  0.16979211301E+03 0.  0.
         24    2    3    3    0    0 -0.17709417754E+03  0.29839637721E+02 -0.14650318177E+03  0.24522482299E+03  0.80120408421E+02 0.  0.
         -6    2    1    2    0  502  0.19533186170E+03 -0.11252557570E+03  0.62848954613E+03  0.68930050845E+03  0.17122949503E+03 0.  0.
        -24    2    5    5    0    0  0.15580726539E+03 -0.32439423615E+02  0.51762733669E+03  0.54686278539E+03  0.76109304263E+02 0.  0.
          5    1    3    3  501    0 -0.18237684158E+02  0.82685937983E+02 -0.80996121613E+02  0.11726908877E+03  0.47000000000E+01 0. -1.
        -11    1    4    4    0    0 -0.54412412247E+02  0.47951978210E+02 -0.58112019722E+02  0.92936051439E+02  0.00000000000E+00 0.  1.
         12    1    4    4    0    0 -0.12268176530E+03 -0.18112340489E+02 -0.88391162043E+02  0.15228877155E+03  0.00000000000E+00 0. -1.
         -5    1    5    5    0  502  0.39524596311E+02 -0.80086152089E+02  0.11086220944E+03  0.14243772306E+03  0.47000000000E+01 0.  1.
         11    1    6    6    0    0  0.15618095375E+03 -0.36376258378E+02  0.51856884219E+03  0.54279772161E+03  0.00000000000E+00 0. -1.
        -12    1    6    6    0    0 -0.37368835894E+00  0.39368347638E+01 -0.94150549791E+00  0.40650637817E+01  0.00000000000E+00 0.  1.
</event>
<event>
12    1  0.1035051E+000  0.1789502E+03  0.7818608E-02  0.1168910E+00
         21   -1    0    0  503  502  0.00000000000E+00  0.00000000000E+00  0.93619356429E+02  0.93619356429E+02  0.00000000000E+00 0. -1.
         21   -1    0    0  501  503 -0.00000000000E+00 -0.00000000000E+00 -0.98632763365E+03  0.98632763365E+03  0.00000000000E+00 0. -1.
          6    2    1    2  501    0 -0.41147389167E+02  0.27192273546E+02 -0.98661626885E+01  0.17922200753E+03  0.17201935775E+03 0.  0.
         24    2    3    3    0    0  0.12960658077E+02  0.71002703047E+02 -0.15166495485E+02  0.10924188152E+03  0.80587862572E+02 0.  0.
         -6    2    1    2    0  502  0.41147389167E+02 -0.27192273546E+02 -0.88284211453E+03  0.90072498255E+03  0.17164721849E+03 0.  0.
        -24    2    5    5    0    0  0.60280464521E+02  0.34177329401E+02 -0.67282462446E+03  0.68103943711E+03  0.79497895373E+02 0.  0.
          5    1    3    3  501    0 -0.54108047244E+02 -0.43810429501E+02  0.53003327967E+01  0.69980126017E+02  0.47000000000E+01 0. -1.
        -13    1    4    4    0    0  0.40373773897E+02  0.53633672854E+02 -0.30036820342E+02  0.73544701092E+02  0.00000000000E+00 0.  1.
         14    1    4    4    0    0 -0.27413115820E+02  0.17369030193E+02  0.14870324857E+02  0.35697180423E+02  0.00000000000E+00 0. -1.
         -5    1    5    5    0  502 -0.19133075355E+02 -0.61369602947E+02 -0.21001749008E+03  0.21968554544E+03  0.47000000000E+01 0.  1.
         11    1    6    6    0    0  0.36484579742E+02 -0.61962205788E+01 -0.51693245011E+03  0.51825541549E+03  0.00000000000E+00 0. -1.
        -12    1    6    6    0    0  0.23795884779E+02  0.40373549980E+02 -0.15589217435E+03  0.16278402162E+03  0.00000000000E+00 0.  1.
</event>
<event>
12    1  0.1035051E+000  0.2891703E+03  0.7818608E-02  0.1090875E+00
         21   -1    0    0  503  502  0.00000000000E+00  0.00000000000E+00  0.31330194589E+03  0.31330194589E+03  0.00000000000E+00 0. -1.
         21   -1    0    0  501  503 -0.00000000000E+00 -0.00000000000E+00 -0.58954656163E+03  0.58954656163E+03  0.00000000000E+00 0.  1.
          6    2    1    2  501    0  0.23274131043E+03 -0.36430528247E+00  0.19609348433E+03  0.34938820642E+03  0.17161239433E+03 0.  0.
         24    2    3    3    0    0  0.20666508811E+03  0.47889584057E+02  0.18334760103E+03  0.29288197006E+03  0.84614624477E+02 0.  0.
         -6    2    1    2    0  502 -0.23274131043E+03  0.36430528247E+00 -0.47233810007E+03  0.55346030110E+03  0.17042996748E+03 0.  0.
        -24    2    5    5    0    0 -0.14899612857E+03  0.16732287196E+02 -0.42084341801E+03  0.45368576227E+03  0.79004889992E+02 0.  0.
          5    1    3    3  501    0  0.26076222321E+02 -0.48253889339E+02  0.12745883299E+02  0.56506236363E+02  0.47000000000E+01 0. -1.
        -13    1    4    4    0    0  0.91216283229E+00  0.13110465028E+02 -0.25824025375E+01  0.13393473678E+02  0.00000000000E+00 0.  1.
         14    1    4    4    0    0  0.20575292528E+03  0.34779119029E+02  0.18593000357E+03  0.27948849638E+03  0.00000000000E+00 0. -1.
         -5    1    5    5    0  502 -0.83745181865E+02 -0.16367981914E+02 -0.51494682055E+02  0.99774538823E+02  0.47000000000E+01 0.  1.
         13    1    6    6    0    0 -0.12870316095E+03  0.24536916613E+02 -0.25764936115E+03  0.28904974869E+03  0.00000000000E+00 0. -1.
        -14    1    6    6    0    0 -0.20292967625E+02 -0.78046294165E+01 -0.16319405686E+03  0.16463601359E+03  0.00000000000E+00 0.  1.
</event>
<event>
12    1  0.1035051E+000  0.2064852E+03  0.7818608E-02  0.1144643E+00
         21   -1    0    0  503  502  0.00000000000E+00  0.00000000000E+00  0.11761940023E+03  0.11761940023E+03  0.00000000000E+00 0.  1.
         21   -1    0    0  501  503 -0.00000000000E+00 -0.00000000000E+00 -0.37115606242E+03  0.37115606242E+03  0.00000000000E+00 0.  1.
          6    2    1    2  501    0  0.10353507816E+03 -0.44000224787E+02 -0.84441836626E+02  0.22188747575E+03  0.17160447527E+03 0.  0.
         24    2    3    3    0    0  0.81665330726E+02 -0.23811527223E+02  0.14282558688E+02  0.11866700495E+03  0.81496328198E+02 0.  0.
         -6    2    1    2    0  502 -0.10353507816E+03  0.44000224787E+02 -0.16909482557E+03  0.26688798690E+03  0.17314908411E+03 0.  0.
        -24    2    5    5    0    0 -0.12493421540E+03  0.41148866564E+01 -0.16271145364E+03  0.22093583016E+03  0.81927610927E+02 0.  0.
          5    1    3    3  501    0  0.21869747431E+02 -0.20188697565E+02 -0.98724395314E+02  0.10322047080E+03  0.47000000000E+01 0. -1.
        -11    1    4    4    0    0 -0.11746869296E+02 -0.12986815843E+02 -0.11755789458E+02  0.21091346799E+02  0.00000000000E+00 0.  1.
         12    1    4    4    0    0  0.93412200022E+02 -0.10824711380E+02  0.26038348146E+02  0.97575658151E+02  0.00000000000E+00 0. -1.
         -5    1    5    5    0  502  0.21399137244E+02  0.39885338131E+02 -0.63833719328E+01  0.45952156748E+02  0.47000000000E+01 0.  1.
         13    1    6    6    0    0 -0.76239222092E+02  0.30261884829E+02 -0.51791580658E+02  0.97008084641E+02  0.00000000000E+00 0. -1.
        -14    1    6    6    0    0 -0.48694993308E+02 -0.26146998173E+02 -0.11091987298E+03  0.12392774551E+03  0.00000000000E+00 0.  1.
</event>
<event>
12    1  0.1035051E+000  0.4091752E+03  0.7818608E-02  0.1040674E+00
         21   -1    0    0  503  502  0.00000000000E+00  0.00000000000E+00  0.27800660552E+03  0.27800660552E+03  0.00000000000E+00 0. -1.
         21   -1    0    0  501  503 -0.00000000000E+00 -0.00000000000E+00 -0.70828621335E+03  0.70828621335E+03  0.00000000000E+00 0. -1.
          6    2    1    2  501    0 -0.29740980075E+03 -0.22268298248E+03 -0.23840971191E+02  0.40956351268E+03  0.17068561376E+03 0.  0.
         24    2    3    3    0    0 -0.12086328079E+03 -0.38734099861E+02 -0.40220392825E+02  0.15403222188E+03  0.77459552296E+02 0.  0.
         -6    2    1    2    0  502  0.29740980075E+03  0.22268298248E+03 -0.40643863665E+03  0.57672930619E+03  0.17141769741E+03 0.  0.
        -24    2    5    5    0    0  0.10334381481E+03  0.27212164978E+02 -0.12186745580E+03  0.18065697143E+03  0.79779812981E+02 0.  0.
          5    1    3    3  501    0 -0.17654651996E+03 -0.18394888262E+03  0.16379421633E+02  0.25553129080E+03  0.47000000000E+01 0. -1.
        -13    1    4    4    0    0 -0.12790833656E+03 -0.39500174314E+02 -0.49173153275E+02  0.14261418350E+03  0.00000000000E+00 0.  1.
         14    1    4    4    0    0  0.70450557647E+01  0.76607445337E+00  0.89527604500E+01  0.11418038381E+02  0.00000000000E+00 0. -1.
         -5    1    5    5    0  502  0.19406598594E+03  0.19547081750E+03 -0.28457118084E+03  0.39607233476E+03  0.47000000000E+01 0.  1.
         13    1    6    6    0    0  0.67880425214E+02 -0.22974251186E+02 -0.71066057707E+02  0.10092548193E+03  0.00000000000E+00 0. -1.
        -14    1    6    6    0    0  0.35463389596E+02  0.50186416164E+02 -0.50801398094E+02  0.79731489496E+02  0.00000000000E+00 0.  1.
</event>
<event>
12    1  0.1035051E+000  0.2371567E+03  0.7818608E-02  0.1121887E+00
         21   -1    0    0  501  502  0.00000000000E+00  0.00000000000E+00  0.30307719281E+03  0.30307719281E+03  0.00000000000E+00 0.  1.
         21   -1    0    0  502  503 -0.00000000000E+00 -0.00000000000E+00 -0.20470637246E+03  0.20470637246E+03  0.00000000000E+00 0.  1.
         -6    2    1    2    0  503  0.38507771535E+02  0.15834329819E+03  0.12841778502E+03  0.26873101237E+03  0.17079163021E+03 0.  0.
        -24    2    3    3    0    0  0.49223476434E+02  0.14168749050E+03  0.44996591193E+02  0.18286234614E+03  0.94422713475E+02 0.  0.
          6    2    1    2  501    0 -0.38507771535E+02 -0.15834329819E+03 -0.30046964669E+02  0.23905255290E+03  0.17230163788E+03 0.  0.
         24    2    5    5    0    0 -0.90846249590E+02 -0.89225702523E+02 -0.15496744551E+02  0.15101643974E+03  0.79696605478E+02 0.  0.
          5    1    5    5  501    0  0.52338478055E+02 -0.69117595665E+02 -0.14550220118E+02  0.88036113165E+02  0.47000000000E+01 0. -1.
        -13    1    6    6    0    0  0.58411691768E+01 -0.23986066028E+02  0.16953132433E+02  0.29947609589E+02  0.00000000000E+00 0.  1.
         14    1    6    6    0    0 -0.96687418767E+02 -0.65239636496E+02 -0.32449876983E+02  0.12106883015E+03  0.00000000000E+00 0. -1.
         -5    1    3    3    0  503 -0.10715704899E+02  0.16655807692E+02  0.83421193823E+02  0.85868666231E+02  0.47000000000E+01 0.  1.
         13    1    4    4    0    0  0.18672955563E+02  0.13176358113E+03  0.61665523792E+02  0.14667296072E+03  0.00000000000E+00 0. -1.
        -14    1    4    4    0    0  0.30550520871E+02  0.99239093616E+01 -0.16668932599E+02  0.36189385412E+02  0.00000000000E+00 0.  1.
</event>
<event>
12    1  0.1035051E+000  0.2215695E+03  0.7818608E-02  0.1133040E+00
         21   -1    0    0  503  502  0.00000000000E+00  0.00000000000E+00  0.32302052291E+03  0.32302052291E+03  0.00000000000E+00 0.  1.
         21   -1    0    0  501  503 -0.00000000000E+00 -0.00000000000E+00 -0.15219049380E+03  0.15219049380E+03  0.00000000000E+00 0.  1.
          6    2    1    2  501    0 -0.76559713355E+02 -0.11234211355E+03  0.10783715721E+03  0.24486093144E+03  0.17275961069E+03 0.  0.
         24    2    3    3    0    0 -0.58300528010E+02 -0.69340045278E+02 -0.57831890776E+01  0.12192091023E+03  0.81389616233E+02 0.  0.
         -6    2    1    2    0  502  0.76559713355E+02  0.11234211355E+03  0.62992871896E+02  0.23035008527E+03  0.17495976591E+03 0.  0.
        -24    2    5    5    0    0  0.60545924837E+02  0.15074779004E+03  0.48482520522E+02  0.18603216896E+03  0.76594437622E+02 0.  0.
          5    1    3    3  501    0 -0.18259185345E+02 -0.43002068270E+02  0.11362034629E+03  0.12294002121E+03  0.47000000000E+01 0. -1.
        -11    1    4    4    0    0 -0.39574236960E+02 -0.32625156143E+01 -0.29276197691E+02  0.49334166562E+02  0.00000000000E+00 0.  1.
         12    1    4    4    0    0 -0.18726291049E+02 -0.66077529664E+02  0.23493008613E+02  0.72586743670E+02  0.00000000000E+00 0. -1.
         -5    1    5    5    0  502  0.16013788518E+02 -0.38405676489E+02  0.14510351374E+02  0.44317916313E+02  0.47000000000E+01 0.  1.
         13    1    6    6    0    0  0.50303193709E+02  0.42138196836E+02 -0.23858691781E+01  0.65663774653E+02  0.00000000000E+00 0. -1.
        -14    1    6    6    0    0  0.10242731127E+02  0.10860959320E+03  0.50868389700E+02  0.12036839430E+03  0.00000000000E+00 0.  1.
</event>
<event>
12    1  0.1035051E+000  0.2821543E+03  0.7818608E-02  0.1094556E+00
         21   -1    0    0  503  502  0.00000000000E+00  0.00000000000E+00  0.21674990757E+03  0.21674990757E+03  0.00000000000E+00 0. -1.
         21   -1    0    0  501  503 -0.00000000000E+00 -0.00000000000E+00 -0.37011399840E+03  0.37011399840E+03  0.00000000000E+00 0. -1.
          6    2    1    2  501    0 -0.10280163672E+03  0.19828863761E+03 -0.49494754775E+02  0.28646251306E+03  0.17240788938E+03 0.  0.
         24    2    3    3    0    0 -0.42627389806E+02  0.54248819673E+02  0.29590566062E+02  0.11140541633E+03  0.82313646438E+02 0.  0.
         -6    2    1    2    0  502  0.10280163672E+03 -0.19828863761E+03 -0.10386933606E+03  0.30040139291E+03  0.17194649625E+03 0.  0.
        -24    2    5    5    0    0  0.10725582802E+03 -0.74829879395E+02 -0.27806549252E+02  0.15524787991E+03  0.78901055383E+02 0.  0.
          5    1    3    3  501    0 -0.60174246915E+02  0.14403981794E+03 -0.79085320837E+02  0.17505709673E+03  0.47000000000E+01 0. -1.
        -11    1    4    4    0    0 -0.20514962197E+02 -0.10777586028E+01 -0.23773428667E+02  0.31419757290E+02  0.00000000000E+00 0.  1.
         12    1    4    4    0    0 -0.22112427608E+02  0.55326578276E+02  0.53363994729E+02  0.79985659039E+02  0.00000000000E+00 0. -1.
         -5    1    5    5    0  502 -0.44541912987E+01 -0.12345875821E+03 -0.76062786805E+02  0.14515351300E+03  0.47000000000E+01 0.  1.
         13    1    6    6    0    0  0.74579221543E+02 -0.40262834459E+02 -0.54440312229E+02  0.10073184065E+03  0.00000000000E+00 0. -1.
        -14    1    6    6    0    0  0.32676606477E+02 -0.34567044936E+02  0.26633762977E+02  0.54516039262E+02  0.00000000000E+00 0.  1.
</event>
<event>
12    1  0.1035051E+000  0.1912084E+03  0.7818608E-02  0.1157396E+00
         21   -1    0    0  503  502  0.00000000000E+00  0.00000000000E+00  0.17004537918E+03  0.17004537918E+03  0.00000000000E+00 0. -1.
         21   -1    0    0  501  503 -0.00000000000E+00 -0.00000000000E+00 -0.21625536227E+03  0.21625536227E+03  0.00000000000E+00 0. -1.
          6    2    1    2  501    0  0.55893404845E+01  0.85453105029E+02 -0.38369591024E+02  0.19493162836E+03  0.17085853895E+03 0.  0.
         24    2    3    3    0    0 -0.14573670106E+02  0.11460884648E+03  0.37564358674E+01  0.13967498715E+03  0.78405431396E+02 0.  0.
         -6    2    1    2    0  502 -0.55893404845E+01 -0.85453105029E+02 -0.78403920638E+01  0.19136911309E+03  0.17095962041E+03 0.  0.
        -24    2    5    5    0    0 -0.41864926092E+02 -0.70248725048E+02  0.44224639884E+02  0.12594779521E+03  0.84967481650E+02 0.  0.
          5    1    3    3  501    0  0.20163010590E+02 -0.29155741454E+02 -0.42126026892E+02  0.55256641207E+02  0.47000000000E+01 0. -1.
        -13    1    4    4    0    0 -0.24339645068E+01  0.58517712700E+02 -0.37008030355E+02  0.69280886207E+02  0.00000000000E+00 0.  1.
         14    1    4    4    0    0 -0.12139705599E+02  0.56091133783E+02  0.40764466223E+02  0.70394100943E+02  0.00000000000E+00 0. -1.
         -5    1    5    5    0  502  0.36275585607E+02 -0.15204379981E+02 -0.52065031947E+02  0.65421317882E+02  0.47000000000E+01 0.  1.
         11    1    6    6    0    0 -0.20880805356E+02 -0.87962002305E+02  0.35619823893E+02  0.97170436532E+02  0.00000000000E+00 0. -1.
        -12    1    6    6    0    0 -0.20984120736E+02  0.17713277257E+02  0.86048159905E+01  0.28777358678E+02  0.00000000000E+00 0.  1.
</event>
<event>
12    1  0.1035051E+000  0.1981164E+03  0.7818608E-02  0.1151968E+00
         21   -1    0    0  501  502  0.00000000000E+00  0.00000000000E+00  0.77102398452E+03  0.77102398452E+03  0.00000000000E+00 0. -1.
         21   -1    0    0  502  503 -0.00000000000E+00 -0.00000000000E+00 -0.50536280758E+02  0.50536280758E+02  0.00000000000E+00 0. -1.
         -6    2    1    2    0  503  0.75938608601E+02  0.54710503842E+02  0.32201737586E+03  0.37655609157E+03  0.17128744333E+03 0.  0.
        -24    2    3    3    0    0  0.85512464333E+01  0.39823802085E+02  0.28341553060E+03  0.29734205919E+03  0.80180285292E+02 0.  0.
          6    2    1    2  501    0 -0.75938608601E+02 -0.54710503842E+02  0.39847032790E+03  0.44500417370E+03  0.17461443493E+03 0.  0.
         24    2    5    5    0    0 -0.28201972193E+01  0.22235438974E+02  0.12990156334E+03  0.15618199398E+03  0.83761750383E+02 0.  0.
          5    1    5    5  501    0 -0.73118411382E+02 -0.76945942816E+02  0.26856876457E+03  0.28882217972E+03  0.47000000000E+01 0. -1.
        -13    1    6    6    0    0  0.21969794672E+02  0.38001477009E+02  0.11530370141E+03  0.12337636601E+03  0.00000000000E+00 0.  1.
         14    1    6    6    0    0 -0.24789991891E+02 -0.15766038035E+02  0.14597861932E+02  0.32805627966E+02  0.00000000000E+00 0. -1.
         -5    1    3    3    0  503  0.67387362168E+02  0.14886701757E+02  0.38601845252E+02  0.79214032381E+02  0.47000000000E+01 0.  1.
         13    1    4    4    0    0  0.10308953256E+01 -0.19802770290E+02  0.14624793388E+03  0.14758614644E+03  0.00000000000E+00 0. -1.
        -14    1    4    4    0    0  0.75203511077E+01  0.59626572375E+02  0.13716759672E+03  0.14975591275E+03  0.00000000000E+00 0.  1.
</event>
<event>
12    1  0.1035051E+000  0.2201953E+03  0.7818608E-02  0.1133764E+00
         21   -1    0    0  503  502  0.00000000000E+00  0.00000000000E+00  0.26976579427E+03  0.26976579427E+03  0.00000000000E+00 0.  1.
         21   -1    0    0  501  503 -0.00000000000E+00 -0.00000000000E+00 -0.18252352897E+03  0.18252352897E+03  0.00000000000E+00 0.  1.
          6    2    1    2  501    0 -0.84014017228E+02 -0.10822053984E+03  0.72172377776E+02  0.23172143390E+03  0.17238309221E+03 0.  0.
         24    2    3    3    0    0 -0.34534474674E+02  0.11053393360E+02  0.52606119660E+02  0.10103316079E+03  0.78265498834E+02 0.  0.
         -6    2    1    2    0  502  0.84014017228E+02  0.10822053984E+03  0.15069887523E+02  0.22056788935E+03  0.17220061547E+03 0.  0.
        -24    2    5    5    0    0  0.91709302346E+02  0.11633277196E+03 -0.32054867524E+02  0.17190724548E+03  0.81121369253E+02 0.  0.
          5    1    3    3  501    0 -0.49479542554E+02 -0.11927393320E+03  0.19566258115E+02  0.13068827311E+03  0.47000000000E+01 0. -1.
        -13    1    4    4    0    0  0.17379347034E+02  0.14395020155E+02  0.42383694815E+02  0.48017037547E+02  0.00000000000E+00 0.  1.
         14    1    4    4    0    0 -0.51913821708E+02 -0.33416267950E+01  0.10222424845E+02  0.53016123243E+02  0.00000000000E+00 0. -1.
         -5    1    5    5    0  502 -0.76952851183E+01 -0.81122321246E+01  0.47124755047E+02  0.48660643865E+02  0.47000000000E+01 0.  1.
         13    1    6    6    0    0  0.21440558639E+02  0.87192612982E+02 -0.11487973456E+01  0.89797377738E+02  0.00000000000E+00 0. -1.
        -14    1    6    6    0    0  0.70268743707E+02  0.29140158978E+02 -0.30906070178E+02  0.82109867746E+02  0.00000000000E+00 0.  1.
</event>
<event>
12    1  0.1035051E+000  0.1841952E+03  0.7818608E-02  0.1164049E+00
         21   -1    0    0  503  502  0.00000000000E+00  0.00000000000E+00  0.19986378612E+04  0.19986378612E+04  0.00000000000E+00 0. -1.
         21   -1    0    0  501  503 -0.00000000000E+00 -0.00000000000E+00 -0.17149700876E+02  0.17149700876E+02  0.00000000000E+00 0. -1.
          6    2    1    2  501    0 -0.65848222333E+01 -0.65201646033E+02  0.11199900544E+04  0.11350355009E+04  0.17214311409E+03 0.  0.
         24    2    3    3    0    0 -0.59080672884E+02 -0.62737788614E+01  0.75348258880E+03  0.76009801246E+03  0.80517642264E+02 0.  0.
         -6    2    1    2    0  502  0.65848222333E+01  0.65201646033E+02  0.86149810590E+03  0.88075206120E+03  0.17102804535E+03 0.  0.
        -24    2    5    5    0    0  0.21847513972E+02  0.95377920483E+02  0.43806435828E+03  0.45594412115E+03  0.80064961334E+02 0.  0.
          5    1    3    3  501    0  0.52495850651E+02 -0.58927867172E+02  0.36650746562E+03  0.37493748842E+03  0.47000000000E+01 0. -1.
        -11    1    4    4    0    0 -0.12430419976E+02 -0.20806831923E+02  0.56056873936E+03  0.56109246221E+03  0.00000000000E+00 0.  1.
         12    1    4    4    0    0 -0.46650252909E+02  0.14533053062E+02  0.19291384944E+03  0.19900555026E+03  0.00000000000E+00 0. -1.
         -5    1    5    5    0  502 -0.15262691739E+02 -0.30176274450E+02  0.42343374763E+03  0.42480794005E+03  0.47000000000E+01 0.  1.
         13    1    6    6    0    0  0.44505455784E+02  0.56604373783E+02  0.34719802350E+03  0.35458603786E+03  0.00000000000E+00 0. -1.
        -14    1    6    6    0    0 -0.22657941813E+02  0.38773546701E+02  0.90866334775E+02  0.10135808328E+03  0.00000000000E+00 0.  1.
</event>
<event>
12    1  0.1035051E+000  0.2424969E+03  0.7818608E-02  0.1119935E+00
         21   -1    0    0  503  502  0.00000000000E+00  0.00000000000E+00  0.27855193456E+03  0.27855193456E+03  0.00000000000E+00 0.  1.
         21   -1    0    0  501  503 -0.00000000000E+00 -0.00000000000E+00 -0.20410045435E+03  0.20410045435E+03  0.00000000000E+00 0.  1.
          6    2    1    2  501    0 -0.10392192073E+03 -0.11652998482E+03  0.11531472378E+02  0.23212558657E+03  0.17137768266E+03 0.  0.
         24    2    3    3    0    0 -0.61127923375E+02 -0.14131870499E+03  0.34696339765E+02  0.17731219461E+03  0.80797147043E+02 0.  0.
         -6    2    1    2    0  502  0.10392192073E+03  0.11652998482E+03  0.62920007826E+02  0.25052680234E+03  0.18554176979E+03 0.  0.
        -24    2    5    5    0    0  0.84329922467E+02  0.10459021200E+03 -0.25192305631E+02  0.15935512717E+03  0.81906996178E+02 0.  0.
          5    1    3    3  501    0 -0.42793997350E+02  0.24788720165E+02 -0.23164867386E+02  0.54813391955E+02  0.47000000000E+01 0. -1.
        -11    1    4    4    0    0  0.10629270859E+01 -0.25527234615E+02 -0.22430426165E+02  0.33998434361E+02  0.00000000000E+00 0.  1.
         12    1    4    4    0    0 -0.62190850461E+02 -0.11579147037E+03  0.57126765930E+02  0.14331376025E+03  0.00000000000E+00 0. -1.
         -5    1    5    5    0  502  0.19591998258E+02  0.11939772823E+02  0.88112313457E+02  0.91171675171E+02  0.47000000000E+01 0.  1.
         11    1    6    6    0    0  0.90515995341E+02  0.10884118982E+03 -0.36121296183E+02  0.14609687900E+03  0.00000000000E+00 0. -1.
        -12    1    6    6    0    0 -0.61860728743E+01 -0.42509778257E+01  0.10928990552E+02  0.13258248171E+02  0.00000000000E+00 0.  1.
</event>
<event>
12    1  0.1035051E+000  0.2263140E+03  0.7818608E-02  0.1129278E+00
         21   -1    0    0  501  502  0.00000000000E+00  0.00000000000E+00  0.21133439938E+03  0.21133439938E+03  0.00000000000E+00 0.  1.
         21   -1    0    0  502  503 -0.00000000000E+00 -0.00000000000E+00 -0.33101086028E+03  0.33101086028E+03  0.00000000000E+00 0.  1.
         -6    2    1    2    0  503 -0.11177982076E+03  0.97413370628E+02 -0.20024499183E+03  0.30211761107E+03  0.17085930194E+03 0.  0.
        -24    2    3    3    0    0 -0.86045989293E+02  0.90645237518E+02 -0.22217953906E+03  0.26731456423E+03  0.80454069594E+02 0.  0.
          6    2    1    2  501    0  0.11177982076E+03 -0.97413370628E+02  0.80568530933E+02  0.24022764859E+03  0.17097936093E+03 0.  0.
         24    2    5    5    0    0  0.13859686082E+03 -0.99684301907E+02  0.93867415672E+02  0.20984243669E+03  0.77953233654E+02 0.  0.
          5    1    5    5  501    0 -0.26817040062E+02  0.22709312788E+01 -0.13298884739E+02  0.30385211895E+02  0.47000000000E+01 0. -1.
        -11    1    6    6    0    0 -0.10488528645E+01  0.99941509839E+01  0.38533515471E+01  0.10762502700E+02  0.00000000000E+00 0.  1.
         12    1    6    6    0    0  0.13964571368E+03 -0.10967845289E+03  0.90014064125E+02  0.19907993399E+03  0.00000000000E+00 0. -1.
         -5    1    3    3    0  503 -0.25733831464E+02  0.67681331097E+01  0.21934547227E+02  0.34803046845E+02  0.47000000000E+01 0.  1.
         13    1    4    4    0    0 -0.27691625847E+02 -0.53936392279E+01 -0.15832004953E+02  0.32350732094E+02  0.00000000000E+00 0. -1.
        -14    1    4    4    0    0 -0.58354363446E+02  0.96038876746E+02 -0.20634753410E+03  0.23496383213E+03  0.00000000000E+00 0.  1.
</event>
<event>
12    1  0.1035051E+000  0.1867256E+03  0.7818608E-02  0.1161998E+00
         21   -1    0    0  503  502  0.00000000000E+00  0.00000000000E+00  0.88529873998E+02  0.88529873998E+02  0.00000000000E+00 0.  1.
         21   -1    0    0  501  503 -0.00000000000E+00 -0.00000000000E+00 -0.38886628800E+03  0.38886628800E+03  0.00000000000E+00 0.  1.
          6    2    1    2  501    0 -0.75383415901E+01  0.73087079387E+02 -0.15000750082E+03  0.23951766783E+03  0.17166221230E+03 0.  0.
         24    2    3    3    0    0 -0.29691562581E+02  0.31061076273E+00 -0.21184622034E+02  0.89835993313E+02  0.82097698605E+02 0.  0.
         -6    2    1    2    0  502  0.75383415901E+01 -0.73087079387E+02 -0.15032891318E+03  0.23787849418E+03  0.16908237071E+03 0.  0.
        -24    2    5    5    0    0  0.25742106996E+02 -0.11107947059E+03 -0.96055723762E+02  0.16901291530E+03  0.79607528616E+02 0.  0.
          5    1    3    3  501    0  0.22153220991E+02  0.72776468625E+02 -0.12882287879E+03  0.14968167451E+03  0.47000000000E+01 0. -1.
        -13    1    4    4    0    0 -0.45232001214E+02  0.29327342430E+02 -0.17684681709E+02  0.56734248166E+02  0.00000000000E+00 0.  1.
         14    1    4    4    0    0  0.15540438633E+02 -0.29016731667E+02 -0.34999403257E+01  0.33101745147E+02  0.00000000000E+00 0. -1.
         -5    1    5    5    0  502 -0.18203765406E+02  0.37992391199E+02 -0.54273189421E+02  0.68865578876E+02  0.47000000000E+01 0.  1.
         13    1    6    6    0    0  0.34060812025E+02 -0.64017980825E+02 -0.97125671479E+02  0.12120988757E+03  0.00000000000E+00 0. -1.
        -14    1    6    6    0    0 -0.83187050286E+01 -0.47061489761E+02  0.10699477176E+01  0.47803027728E+02  0.00000000000E+00 0.  1.
</event>
<event>
12    1  0.1035051E+000  0.2447401E+03  0.7818608E-02  0.1116772E+00
         21   -1    0    0  501  502  0.00000000000E+00  0.00000000000E+00  0.25026579107E+03  0.25026579107E+03  0.00000000000E+00 0.  1.
         21   -1    0    0  502  503 -0.00000000000E+00 -0.00000000000E+00 -0.25915204996E+03  0.25915204996E+03  0.00000000000E+00 0.  1.
         -6    2    1    2    0  503  0.14444143305E+03  0.97053228934E+02 -0.75903242557E+02  0.25566796028E+03  0.17123710713E+03 0.  0.
        -24    2    3    3    0    0  0.12451818059E+03  0.69171119767E+02 -0.11820164302E+03  0.20102738304E+03  0.78428051185E+02 0.  0.
          6    2    1    2  501    0 -0.14444143305E+03 -0.97053228934E+02  0.67016983666E+02  0.25374988075E+03  0.17209029331E+03 0.  0.
         24    2    5    5    0    0 -0.22964258141E+02 -0.79718751707E+02  0.62615483062E+02  0.13087331125E+03  0.79527909270E+02 0.  0.
          5    1    5    5  501    0 -0.12147717491E+03 -0.17334477227E+02  0.44015006042E+01  0.12287656950E+03  0.47000000000E+01 0. -1.
        -11    1    6    6    0    0 -0.81635428342E+01 -0.42440290701E+02 -0.13125746759E+02  0.45167542930E+02  0.00000000000E+00 0.  1.
         12    1    6    6    0    0 -0.14800715307E+02 -0.37278461006E+02  0.75741229820E+02  0.85705768320E+02  0.00000000000E+00 0. -1.
         -5    1    3    3    0  503  0.19923252462E+02  0.27882109168E+02  0.42298400459E+02  0.54640577246E+02  0.47000000000E+01 0.  1.
         13    1    4    4    0    0  0.60947855061E+02  0.38213761241E+02 -0.11243410038E+02  0.72810348536E+02  0.00000000000E+00 0. -1.
        -14    1    4    4    0    0  0.63570325525E+02  0.30957358526E+02 -0.10695823298E+03  0.12821703450E+03  0.00000000000E+00 0.  1.
</event>
<event>
12    1  0.1035051E+000  0.4529102E+03  0.7818608E-02  0.1026861E+00
         21   -1    0    0  501  502  0.00000000000E+00  0.00000000000E+00  0.96679782368E+02  0.96679782368E+02  0.00000000000E+00 0. -1.
         21   -1    0    0  502  503 -0.00000000000E+00 -0.00000000000E+00 -0.21215077404E+04  0.21215077404E+04  0.00000000000E+00 0. -1.
         -6    2    1    2    0  503 -0.77487598875E+02  0.41311872337E+03 -0.10125236528E+04  0.11092032148E+04  0.16868970541E+03 0.  0.
        -24    2    3    3    0    0  0.20905032779E+02  0.17284201186E+03 -0.48767224702E+03  0.52362222451E+03  0.77747231681E+02 0.  0.
          6    2    1    2  501    0  0.77487598875E+02 -0.41311872337E+03 -0.10123043053E+04  0.11089843080E+04  0.16856684519E+03 0.  0.
         24    2    5    5    0    0  0.10359973510E+02 -0.13387978392E+03 -0.47068491241E+03  0.49591485016E+03  0.79725317448E+02 0.  0.
          5    1    5    5  501    0  0.67127625365E+02 -0.27923893945E+03 -0.54161939284E+03  0.61306945781E+03  0.47000000000E+01 0. -1.
        -11    1    6    6    0    0 -0.16130533252E+02 -0.11124824971E+03 -0.27391512985E+03  0.29608422033E+03  0.00000000000E+00 0.  1.
         12    1    6    6    0    0  0.26490506762E+02 -0.22631534212E+02 -0.19676978256E+03  0.19983062983E+03  0.00000000000E+00 0. -1.
         -5    1    3    3    0  503 -0.98392631654E+02  0.24027671151E+03 -0.52485140578E+03  0.58558099030E+03  0.47000000000E+01 0.  1.
         13    1    4    4    0    0 -0.20035014773E+02  0.93369667915E+01 -0.58744805431E+02  0.62765698681E+02  0.00000000000E+00 0. -1.
        -14    1    4    4    0    0  0.40940047551E+02  0.16350504507E+03 -0.42892744158E+03  0.46085652583E+03  0.00000000000E+00 0.  1.
</event>
<event>
12    1  0.1035051E+000  0.2302796E+03  0.7818608E-02  0.1126495E+00
         21   -1    0    0  503  502  0.00000000000E+00  0.00000000000E+00  0.83380685379E+02  0.83380685379E+02  0.00000000000E+00 0.  1.
         21   -1    0    0  501  503 -0.00000000000E+00 -0.00000000000E+00 -0.70460407650E+03  0.70460407650E+03  0.00000000000E+00 0.  1.
          6    2    1    2  501    0  0.13559555147E+03  0.77707533004E+02 -0.43411331977E+03  0.49127134098E+03  0.16872623328E+03 0.  0.
         24    2    3    3    0    0  0.10067477575E+03  0.13422973690E+02 -0.37392451444E+03  0.39642015527E+03  0.83748494363E+02 0.  0.
         -6    2    1    2    0  502 -0.13559555147E+03 -0.77707533004E+02 -0.18711007135E+03  0.29671342091E+03  0.16912735166E+03 0.  0.
        -24    2    5    5    0    0 -0.13662264289E+03 -0.10824025932E+03 -0.12863391810E+03  0.23057075092E+03  0.78958761433E+02 0.  0.
          5    1    3    3  501    0  0.34920775723E+02  0.64284559314E+02 -0.60188805332E+02  0.94851185710E+02  0.47000000000E+01 0. -1.
        -13    1    4    4    0    0  0.66612724792E+02  0.69470591986E+01 -0.10028450883E+03  0.12059228601E+03  0.00000000000E+00 0.  1.
         14    1    4    4    0    0  0.34062050953E+02  0.64759144918E+01 -0.27364000561E+03  0.27582786925E+03  0.00000000000E+00 0. -1.
         -5    1    5    5    0  502  0.10270914217E+01  0.30532726319E+02 -0.58476153252E+02  0.66142669983E+02  0.47000000000E+01 0.  1.
         11    1    6    6    0    0 -0.11493600311E+02  0.30162026854E+01  0.81127798337E+01  0.14388103537E+02  0.00000000000E+00 0. -1.
        -12    1    6    6    0    0 -0.12512904258E+03 -0.11125646201E+03 -0.13674669793E+03  0.21618264739E+03  0.00000000000E+00 0.  1.
</event>
<event>
12    1  0.1035051E+000  0.4032613E+03  0.7818608E-02  0.1043020E+00
         21   -1    0    0  503  502  0.00000000000E+00  0.00000000000E+00  0.12010052437E+03  0.12010052437E+03  0.00000000000E+00 0. -1.
         21   -1    0    0  501  503 -0.00000000000E+00 -0.00000000000E+00 -0.14219815764E+04  0.14219815764E+04  0.00000000000E+00 0. -1.
          6    2    1    2  501    0  0.12807642226E+03  0.33703452139E+03 -0.46248084880E+03  0.61083972285E+03  0.17099939463E+03 0.  0.
         24    2    3    3    0    0  0.16236571078E+02  0.12002189058E+03 -0.10505778437E+03  0.17797026074E+03  0.77248917103E+02 0.  0.
         -6    2    1    2    0  502 -0.12807642226E+03 -0.33703452139E+03 -0.83940020318E+03  0.93124237787E+03  0.18062067076E+03 0.  0.
        -24    2    5    5    0    0 -0.13201192574E+03 -0.16618924190E+03 -0.54776609617E+03  0.59319483672E+03  0.82379642710E+02 0.  0.
          5    1    3    3  501    0  0.11183985118E+03  0.21701263081E+03 -0.35742306442E+03  0.43286946211E+03  0.47000000000E+01 0. -1.
        -11    1    4    4    0    0  0.28104228734E+02  0.12317754605E+03 -0.78587715995E+02  0.14879040503E+03  0.00000000000E+00 0.  1.
         12    1    4    4    0    0 -0.11867657656E+02 -0.31556554693E+01 -0.26470068378E+02  0.29179855717E+02  0.00000000000E+00 0. -1.
         -5    1    5    5    0  502  0.39355034834E+01 -0.17084527949E+03 -0.29163410701E+03  0.33804754115E+03  0.47000000000E+01 0.  1.
         11    1    6    6    0    0 -0.40953390020E+02 -0.20346094604E+02 -0.20109398221E+03  0.20622786767E+03  0.00000000000E+00 0. -1.
        -12    1    6    6    0    0 -0.91058535719E+02 -0.14584314730E+03 -0.34667211396E+03  0.38696696905E+03  0.00000000000E+00 0.  1.
</event>
<event>
12    1  0.1035051E+000  0.4124624E+03  0.7818608E-02  0.1039736E+00
         21   -1    0    0  503  502  0.00000000000E+00  0.00000000000E+00  0.16166613207E+03  0.16166613207E+03  0.00000000000E+00 0. -1.
         21   -1    0    0  501  503 -0.00000000000E+00 -0.00000000000E+00 -0.14418589686E+04  0.14418589686E+04  0.00000000000E+00 0. -1.
          6    2    1    2  501    0 -0.18958309701E+03  0.32084560477E+03 -0.22157990701E+03  0.46821243608E+03  0.17675287082E+03 0.  0.
         24    2    3    3    0    0 -0.12470128663E+03  0.26820267949E+03 -0.23139163250E+03  0.38395517019E+03  0.79977477754E+02 0.  0.
         -6    2    1    2    0  502  0.18958309701E+03 -0.32084560477E+03 -0.10586129295E+04  0.11353126645E+04  0.17143470778E+03 0.  0.
        -24    2    5    5    0    0  0.17110510521E+03 -0.17278129068E+03 -0.55470409989E+03  0.60975517404E+03  0.70529443426E+02 0.  0.
          5    1    3    3  501    0 -0.64881810376E+02  0.52642925275E+02  0.98117254882E+01  0.84257265896E+02  0.47000000000E+01 0. -1.
        -11    1    4    4    0    0 -0.62869152844E+02  0.21730087582E+03 -0.16662869333E+03  0.28095786597E+03  0.00000000000E+00 0.  1.
         12    1    4    4    0    0 -0.61832133785E+02  0.50901803679E+02 -0.64762939170E+02  0.10299730422E+03  0.00000000000E+00 0. -1.
         -5    1    5    5    0  502  0.18477991798E+02 -0.14806431409E+03 -0.50390882958E+03  0.52555749050E+03  0.47000000000E+01 0.  1.
         11    1    6    6    0    0  0.21879234980E+02 -0.13418803093E+02 -0.21136915771E+02  0.33249577562E+02  0.00000000000E+00 0. -1.
        -12    1    6    6    0    0  0.14922587023E+03 -0.15936248758E+03 -0.53356718412E+03  0.57650559647E+03  0.00000000000E+00 0.  1.
</event>
<event>
12    1  0.1035051E+000  0.3049929E+03  0.7818608E-02  0.1082875E+00
         21   -1    0    0  501  502  0.00000000000E+00  0.00000000000E+00  0.45887262919E+03  0.45887262919E+03  0.00000000000E+00 0. -1.
         21   -1    0    0  502  503 -0.00000000000E+00 -0.00000000000E+00 -0.34773853900E+03  0.34773853900E+03  0.00000000000E+00 0.  1.
         -6    2    1    2    0  503  0.88783764700E+02 -0.23479063417E+03  0.31656976522E+03  0.43958743094E+03  0.17323825912E+03 0.  0.
        -24    2    3    3    0    0  0.11774908989E+03 -0.20546328353E+03  0.21425108438E+03  0.32917780270E+03  0.79840400712E+02 0.  0.
          6    2    1    2  501    0 -0.88783764700E+02  0.23479063417E+03 -0.20543567503E+03  0.36702373725E+03  0.17173645030E+03 0.  0.
         24    2    5    5    0    0 -0.51358723881E+01  0.12439608155E+03 -0.47500686391E+02  0.15690596605E+03  0.82839632336E+02 0.  0.
          5    1    5    5  501    0 -0.83647892312E+02  0.11039455262E+03 -0.15793498864E+03  0.21011777120E+03  0.47000000000E+01 0. -1.
        -11    1    6    6    0    0 -0.13284083756E+02  0.38556105564E+01  0.15397421707E+02  0.20698145067E+02  0.00000000000E+00 0.  1.
         12    1    6    6    0    0  0.81482113683E+01  0.12054047099E+03 -0.62898108098E+02  0.13620782099E+03  0.00000000000E+00 0. -1.
         -5    1    3    3    0  503 -0.28965325190E+02 -0.29327350644E+02  0.10231868084E+03  0.11040962824E+03  0.47000000000E+01 0.  1.
         13    1    4    4    0    0  0.11418217993E+03 -0.12896840766E+03  0.16207963313E+03  0.23651686592E+03  0.00000000000E+00 0. -1.
        -14    1    4    4    0    0  0.35669099647E+01 -0.76494875868E+02  0.52171451253E+02  0.92660936789E+02  0.00000000000E+00 0.  1.
</event>
<event>
12    1  0.1035051E+000  0.2092216E+03  0.7818608E-02  0.1142370E+00
         21   -1    0    0  501  502  0.00000000000E+00  0.00000000000E+00  0.19048586394E+04  0.19048586394E+04  0.00000000000E+00 0.  1.
         21   -1    0    0  502  503 -0.00000000000E+00 -0.00000000000E+00 -0.45391835112E+02  0.45391835112E+02  0.00000000000E+00 0.  1.
         -6    2    1    2    0  503 -0.60718798922E+02  0.10023033164E+03  0.16154363951E+04  0.16288091846E+04  0.17219675147E+03 0.  0.
        -24    2    3    3    0    0  0.20430602675E+02  0.22685944776E+02  0.45849301277E+03  0.46642437857E+03  0.80023724913E+02 0.  0.
          6    2    1    2  501    0  0.60718798922E+02 -0.10023033164E+03  0.24403040918E+03  0.32144128992E+03  0.17332273464E+03 0.  0.
         24    2    5    5    0    0  0.19727473777E+02 -0.59722891793E+02  0.24365222692E+03  0.26361936985E+03  0.78566961553E+02 0.  0.
          5    1    5    5  501    0  0.40991325144E+02 -0.40507439842E+02  0.37818225150E+00  0.57821920078E+02  0.47000000000E+01 0. -1.
        -11    1    6    6    0    0 -0.29169094001E+02 -0.11048454201E+02  0.64646159639E+02  0.71777645135E+02  0.00000000000E+00 0.  1.
         12    1    6    6    0    0  0.48896567779E+02 -0.48674437592E+02  0.17900606729E+03  0.19184172471E+03  0.00000000000E+00 0. -1.
         -5    1    3    3    0  503 -0.81149401596E+02  0.77544386860E+02  0.11569433823E+04  0.11623848060E+04  0.47000000000E+01 0.  1.
         11    1    4    4    0    0 -0.72812799485E+01 -0.11950509421E+02  0.33350477526E+03  0.33379824271E+03  0.00000000000E+00 0. -1.
        -12    1    4    4    0    0  0.27711882623E+02  0.34636454196E+02  0.12498823750E+03  0.13262613585E+03  0.00000000000E+00 0.  1.
</event>
<event>
12    1  0.1035051E+000  0.2170545E+03  0.7818608E-02  0.1136339E+00
         21   -1    0    0  501  502  0.00000000000E+00  0.00000000000E+00  0.30868006240E+03  0.30868006240E+03  0.00000000000E+00 0. -1.
         21   -1    0    0  502  503 -0.00000000000E+00 -0.00000000000E+00 -0.16748875829E+03  0.16748875829E+03  0.00000000000E+00 0. -1.
         -6    2    1    2    0  503  0.84172793442E+02  0.98697244167E+02 -0.22318998981E+01  0.21706597448E+03  0.17403002826E+03 0.  0.
        -24    2    3    3    0    0 -0.16520667940E+01  0.87538545443E+02 -0.35284300811E+02  0.12430297324E+03  0.80873487686E+02 0.  0.
          6    2    1    2  501    0 -0.84172793442E+02 -0.98697244167E+02  0.14342320400E+03  0.25910284621E+03  0.17244669990E+03 0.  0.
         24    2    5    5    0    0 -0.83864882069E+02 -0.52462769396E+02  0.16450901615E+03  0.20806929900E+03  0.80274256002E+02 0.  0.
          5    1    5    5  501    0 -0.30791137314E+00 -0.46234474771E+02 -0.21085812146E+02  0.51033547208E+02  0.47000000000E+01 0. -1.
        -11    1    6    6    0    0  0.11772886870E+02 -0.25405999719E+02  0.36746362172E+02  0.46199143064E+02  0.00000000000E+00 0.  1.
         12    1    6    6    0    0 -0.95637768938E+02 -0.27056769677E+02  0.12776265398E+03  0.16187015594E+03  0.00000000000E+00 0. -1.
         -5    1    3    3    0  503  0.85824860236E+02  0.11158698724E+02  0.33052400913E+02  0.92763001233E+02  0.47000000000E+01 0.  1.
         13    1    4    4    0    0  0.37063357721E+02  0.48815427255E+02 -0.44303818444E+01  0.61451336087E+02  0.00000000000E+00 0. -1.
        -14    1    4    4    0    0 -0.38715424515E+02  0.38723118188E+02 -0.30853918966E+02  0.62851637156E+02  0.00000000000E+00 0.  1.
</event>
<event>
12    1  0.1035051E+000  0.2487347E+03  0.7818608E-02  0.1114138E+00
         21   -1    0    0  503  502  0.00000000000E+00  0.00000000000E+00  0.20511657140E+03  0.20511657140E+03  0.00000000000E+00 0. -1.
         21   -1    0    0  501  503 -0.00000000000E+00 -0.00000000000E+00 -0.40207252115E+03  0.40207252115E+03  0.00000000000E+00 0.  1.
          6    2    1    2  501    0 -0.15379650945E+03  0.88676940483E+02  0.53470775754E+02  0.25422666870E+03  0.17393995839E+03 0.  0.
         24    2    3    3    0    0 -0.17884436952E+03  0.53325929926E+02  0.28683828728E+02  0.20409113255E+03  0.77469123168E+02 0.  0.
         -6    2    1    2    0  502  0.15379650945E+03 -0.88676940483E+02 -0.25042672551E+03  0.35296242385E+03  0.17421814403E+03 0.  0.
        -24    2    5    5    0    0  0.15102304244E+03 -0.26983342573E+02 -0.23050490738E+03  0.28790275140E+03  0.78863310926E+02 0.  0.
          5    1    3    3  501    0  0.25047860072E+02  0.35351010557E+02  0.24786947026E+02  0.50135536145E+02  0.47000000000E+01 0. -1.
        -13    1    4    4    0    0 -0.11907448839E+02 -0.15764796501E+02  0.10860120339E+02  0.22544586054E+02  0.00000000000E+00 0.  1.
         14    1    4    4    0    0 -0.16693692068E+03  0.69090726427E+02  0.17823708389E+02  0.18154654650E+03  0.00000000000E+00 0. -1.
         -5    1    5    5    0  502  0.27734670111E+01 -0.61693597910E+02 -0.19921818128E+02  0.65059672454E+02  0.47000000000E+01 0.  1.
         11    1    6    6    0    0  0.14053527126E+03 -0.47508764278E+02 -0.18728163037E+03  0.23891767248E+03  0.00000000000E+00 0. -1.
        -12    1    6    6    0    0  0.10487771183E+02  0.20525421704E+02 -0.43223277013E+02  0.48985078915E+02  0.00000000000E+00 0.  1.
</event>
<event>
12    1  0.4759222E+000  0.1964228E+03  0.7818608E-02  0.1154726E+00
         21   -1    0    0  501  502  0.00000000000E+00  0.00000000000E+00  0.36672007467E+03  0.36672007467E+03  0.00000000000E+00 0.  1.
         21   -1    0    0  502  503 -0.00000000000E+00 -0.00000000000E+00 -0.20205544249E+04  0.20205544249E+04  0.00000000000E+00 0.  1.
         -6    2    1    2    0  503  0.57070429524E+02 -0.48730245136E+02  0.33755389914E+03  0.38622250791E+03  0.17202767242E+03 0.  0.
        -24    2    3    3    0    0 -0.29054628781E+02  0.70328203388E+01  0.13258063781E+03  0.15695590983E+03  0.78510509435E+02 0.  0.
          6    2    1    2  501    0 -0.57070429524E+02  0.48730245136E+02 -0.19913882494E+04  0.20010519917E+04  0.18152201771E+03 0.  0.
         24    2    5    5    0    0  0.34411452043E+02  0.34898993058E+02 -0.13227541060E+04  0.13260305506E+04  0.79224418598E+02 0.  0.
          5    1    5    5  501    0 -0.91481881567E+02  0.13831252078E+02 -0.66863414339E+03  0.67502144107E+03  0.47000000000E+01 0. -1.
        -11    1    6    6    0    0  0.30148122107E+02 -0.19437245013E+02 -0.37540025831E+03  0.37711015592E+03  0.00000000000E+00 0.  1.
         12    1    6    6    0    0  0.42633299361E+01  0.54336238071E+02 -0.94735384769E+03  0.94892039470E+03  0.00000000000E+00 0. -1.
         -5    1    3    3    0  503  0.86125058305E+02 -0.55763065475E+02  0.20497326132E+03  0.22926659808E+03  0.47000000000E+01 0.  1.
         11    1    4    4    0    0  0.24274593033E+02  0.10879938823E+02  0.68589041439E+02  0.73566878018E+02  0.00000000000E+00 0. -1.
        -12    1    4    4    0    0 -0.53329221814E+02 -0.38471184838E+01  0.63991596373E+02  0.83389031811E+02  0.00000000000E+00 0.  1.
</event>
<event>
12    1  0.1035051E+000  0.1788779E+03  0.7818608E-02  0.1169172E+00
         21   -1    0    0  501  502  0.00000000000E+00  0.00000000000E+00  0.52689001878E+02  0.52689001878E+02  0.00000000000E+00 0. -1.
         21   -1    0    0  502  503 -0.00000000000E+00 -0.00000000000E+00 -0.71246215943E+03  0.71246215943E+03  0.00000000000E+00 0. -1.
         -6    2    1    2    0  503 -0.47468825078E+02 -0.11292271028E+02 -0.48043889278E+03  0.51265859481E+03  0.17209445198E+03 0.  0.
        -24    2    3    3    0    0 -0.19739185381E+02  0.57759819132E+02 -0.20778458721E+03  0.22999344942E+03  0.77438491395E+02 0.  0.
          6    2    1    2  501    0  0.47468825078E+02  0.11292271028E+02 -0.17933426478E+03  0.25249256650E+03  0.17091200331E+03 0.  0.
         24    2    5    5    0    0  0.32264763956E+02 -0.23070768691E+02 -0.19200891666E+03  0.21255863640E+03  0.82100392637E+02 0.  0.
          5    1    5    5  501    0  0.15204061122E+02  0.34363039719E+02  0.12674651875E+02  0.39933930103E+02  0.47000000000E+01 0. -1.
        -13    1    6    6    0    0  0.59810146197E+02 -0.10468403034E+02 -0.12188566757E+03  0.13617252663E+03  0.00000000000E+00 0.  1.
         14    1    6    6    0    0 -0.27545382241E+02 -0.12602365657E+02 -0.70123249090E+02  0.76386109771E+02  0.00000000000E+00 0. -1.
         -5    1    3    3    0  503 -0.27729639697E+02 -0.69052090160E+02 -0.27265430557E+03  0.28266514539E+03  0.47000000000E+01 0.  1.
         11    1    4    4    0    0  0.68923360195E-01 -0.23327230893E+01  0.63189857241E+01  0.67361656766E+01  0.00000000000E+00 0. -1.
        -12    1    4    4    0    0 -0.19808108741E+02  0.60092542222E+02 -0.21410357293E+03  0.22325728374E+03  0.00000000000E+00 0.  1.
</event>
<event>
12    1  0.1035051E+000  0.1926349E+03  0.7818608E-02  0.1157014E+00
         21   -1    0    0  503  502  0.00000000000E+00  0.00000000000E+00  0.92030994651E+02  0.92030994651E+02  0.00000000000E+00 0. -1.
         21   -1    0    0  501  503 -0.00000000000E+00 -0.00000000000E+00 -0.40168386120E+03  0.40168386120E+03  0.00000000000E+00 0. -1.
          6    2    1    2  501    0  0.80235854815E+02 -0.16076629923E+02 -0.12407988781E+03  0.22913758325E+03  0.17439026082E+03 0.  0.
         24    2    3    3    0    0  0.94699061984E+02  0.27578278521E+02 -0.13121727421E+03  0.18236186650E+03  0.79431753819E+02 0.  0.
         -6    2    1    2    0  502 -0.80235854815E+02  0.16076629923E+02 -0.18557297873E+03  0.26457727260E+03  0.16990453882E+03 0.  0.
        -24    2    5    5    0    0  0.20573118836E+02  0.13952569863E+02 -0.57190576148E+02  0.10126440693E+03  0.79785905308E+02 0.  0.
          5    1    3    3  501    0 -0.14463207169E+02 -0.43654908444E+02  0.71373864001E+01  0.46775716750E+02  0.47000000000E+01 0. -1.
        -11    1    4    4    0    0  0.32265670624E+02  0.38485023378E+02 -0.19412251792E+02  0.53842418639E+02  0.00000000000E+00 0.  1.
         12    1    4    4    0    0  0.62433391360E+02 -0.10906744857E+02 -0.11180502242E+03  0.12851944786E+03  0.00000000000E+00 0. -1.
         -5    1    5    5    0  502 -0.10080897365E+03  0.21240600594E+01 -0.12838240258E+03  0.16331286567E+03  0.47000000000E+01 0.  1.
         13    1    6    6    0    0 -0.12983777399E+02  0.29761170287E+02 -0.55292765245E+02  0.64121725030E+02  0.00000000000E+00 0. -1.
        -14    1    6    6    0    0  0.33556896235E+02 -0.15808600424E+02 -0.18978109033E+01  0.37142681898E+02  0.00000000000E+00 0.  1.
</event>
<event>
12    1  0.1035051E+000  0.2093747E+03  0.7818608E-02  0.1143049E+00
         21   -1    0    0  501  502  0.00000000000E+00  0.00000000000E+00  0.96591568836E+02  0.96591568836E+02  0.00000000000E+00 0.  1.
         21   -1    0    0  502  503 -0.00000000000E+00 -0.00000000000E+00 -0.57306849835E+03  0.57306849835E+03  0.00000000000E+00 0.  1.
         -6    2    1    2    0  503  0.28079094636E+02 -0.11447719232E+03 -0.39975708154E+03  0.45126875147E+03  0.17304421023E+03 0.  0.
        -24    2    3    3    0    0  0.15894574336E+02 -0.14652534571E+03 -0.36849059742E+03  0.40462939362E+03  0.78849929392E+02 0.  0.
          6    2    1    2  501    0 -0.28079094636E+02  0.11447719232E+03 -0.76719847977E+02  0.21839131572E+03  0.16707892923E+03 0.  0.
         24    2    5    5    0    0 -0.63866675478E+02  0.62645545561E+02 -0.94679790366E+02  0.15272610364E+03  0.79734455617E+02 0.  0.
          5    1    5    5  501    0  0.35787580842E+02  0.51831646754E+02  0.17959942390E+02  0.65665212087E+02  0.47000000000E+01 0. -1.
        -11    1    6    6    0    0  0.11170633795E+02  0.17337149033E+02 -0.50536514822E+02  0.54582956372E+02  0.00000000000E+00 0.  1.
         12    1    6    6    0    0 -0.75037309274E+02  0.45308396528E+02 -0.44143275545E+02  0.98143147263E+02  0.00000000000E+00 0. -1.
         -5    1    3    3    0  503  0.12184520299E+02  0.32048153397E+02 -0.31266484117E+02  0.46639357844E+02  0.47000000000E+01 0.  1.
         13    1    4    4    0    0  0.11931373599E+01 -0.65708273719E+02 -0.26212301868E+03  0.27023596677E+03  0.00000000000E+00 0. -1.
        -14    1    4    4    0    0  0.14701436976E+02 -0.80817071993E+02 -0.10636757874E+03  0.13439342686E+03  0.00000000000E+00 0.  1.
</event>
<event>
12    1  0.1035051E+000  0.2715680E+03  0.7818608E-02  0.1100608E+00
         21   -1    0    0  501  502  0.00000000000E+00  0.00000000000E+00  0.77883270400E+03  0.77883270400E+03  0.00000000000E+00 0. -1.
         21   -1    0    0  502  503 -0.00000000000E+00 -0.00000000000E+00 -0.22580801947E+03  0.22580801947E+03  0.00000000000E+00 0. -1.
         -6    2    1    2    0  503 -0.82440925410E+02 -0.19126802221E+03 -0.10738395584E+03  0.29057579139E+03  0.17182262385E+03 0.  0.
        -24    2    3    3    0    0  0.12859356666E+02 -0.12856743991E+03 -0.38376411734E+02  0.15716800328E+03  0.80833672558E+02 0.  0.
          6    2    1    2  501    0  0.82440925410E+02  0.19126802221E+03  0.66040864037E+03  0.71406493208E+03  0.17426758863E+03 0.  0.
         24    2    5    5    0    0  0.16875599004E+02  0.71068514071E+02  0.45300551157E+03  0.46549928357E+03  0.78358598473E+02 0.  0.
          5    1    5    5  501    0  0.65565326406E+02  0.12019950814E+03  0.20740312880E+03  0.24856564851E+03  0.47000000000E+01 0. -1.
        -11    1    6    6    0    0 -0.10468082916E+02  0.71936318245E+02  0.24067889582E+03  0.25141747261E+03  0.00000000000E+00 0.  1.
         12    1    6    6    0    0  0.27343681920E+02 -0.86780417429E+00  0.21232661575E+03  0.21408181096E+03  0.00000000000E+00 0. -1.
         -5    1    3    3    0  503 -0.95300282076E+02 -0.62700582307E+02 -0.69007544104E+02  0.13340778811E+03  0.47000000000E+01 0.  1.
         13    1    4    4    0    0  0.17313533090E+02 -0.15068283057E+02  0.19106777474E+02  0.29864368866E+02  0.00000000000E+00 0. -1.
        -14    1    4    4    0    0 -0.44541764236E+01 -0.11349915685E+03 -0.57483189209E+02  0.12730363441E+03  0.00000000000E+00 0.  1.
</event>
<event>
12    1  0.1035051E+000  0.1750233E+03  0.7818608E-02  0.1172781E+00
         21   -1    0    0  501  502  0.00000000000E+00  0.00000000000E+00  0.99763417821E+03  0.99763417821E+03  0.00000000000E+00 0. -1.
         21   -1    0    0  502  503 -0.00000000000E+00 -0.00000000000E+00 -0.54243719111E+02  0.54243719111E+02  0.00000000000E+00 0. -1.
         -6    2    1    2    0  503  0.32341321078E+02 -0.10867888681E+02  0.81830149610E+03  0.83674911779E+03  0.17136999604E+03 0.  0.
        -24    2    3    3    0    0  0.35328205062E+02 -0.63623525399E+02  0.37501828056E+03  0.39030295321E+03  0.80010308559E+02 0.  0.
          6    2    1    2  501    0 -0.32341321078E+02  0.10867888681E+02  0.12508896300E+03  0.21512877954E+03  0.17166557916E+03 0.  0.
         24    2    5    5    0    0 -0.74646811404E+02 -0.16699734766E+02  0.12096875833E+03  0.16424858240E+03  0.80579952443E+02 0.  0.
          5    1    5    5  501    0  0.42305490326E+02  0.27567623447E+02  0.41202046774E+01  0.50880197139E+02  0.47000000000E+01 0. -1.
        -13    1    6    6    0    0 -0.42402150291E+02 -0.18023838824E+02  0.12356217111E+03  0.13187270849E+03  0.00000000000E+00 0.  1.
         14    1    6    6    0    0 -0.32244661113E+02  0.13241040575E+01 -0.25934127800E+01  0.32375873914E+02  0.00000000000E+00 0. -1.
         -5    1    3    3    0  503 -0.29868839837E+01  0.52755636718E+02  0.44328321554E+03  0.44644616458E+03  0.47000000000E+01 0.  1.
         11    1    4    4    0    0  0.53511275028E+02 -0.64715123289E+02  0.34597460049E+03  0.35601956115E+03  0.00000000000E+00 0. -1.
        -12    1    4    4    0    0 -0.18183069966E+02  0.10915978903E+01  0.29043680071E+02  0.34283392064E+02  0.00000000000E+00 0.  1.
</event>
<event>
12    1  0.1035051E+000  0.1913830E+03  0.7818608E-02  0.1157509E+00
         21   -1    0    0  503  502  0.00000000000E+00  0.00000000000E+00  0.43593658040E+03  0.43593658040E+03  0.00000000000E+00 0.  1.
         21   -1    0    0  501  503 -0.00000000000E+00 -0.00000000000E+00 -0.83539651218E+02  0.83539651218E+02  0.00000000000E+00 0.  1.
          6    2    1    2  501    0  0.61228730214E+02  0.56062946599E+02  0.18384725240E+03  0.26445378266E+03  0.17100871195E+03 0.  0.
         24    2    3    3    0    0  0.84437794859E+02  0.80551103507E+02  0.18164866545E+03  0.23031796137E+03  0.80199153326E+02 0.  0.
         -6    2    1    2    0  502 -0.61228730214E+02 -0.56062946599E+02  0.16854967678E+03  0.25502244896E+03  0.17243968379E+03 0.  0.
        -24    2    5    5    0    0 -0.94571018506E+02 -0.77117485782E+02  0.15599011482E+03  0.21337110558E+03  0.79394764425E+02 0.  0.
          5    1    3    3  501    0 -0.23209064645E+02 -0.24488156908E+02  0.21985869480E+01  0.34135821288E+02  0.47000000000E+01 0. -1.
        -13    1    4    4    0    0  0.62884418227E+02  0.92484921873E+02  0.16891858442E+03  0.20258676904E+03  0.00000000000E+00 0.  1.
         14    1    4    4    0    0  0.21553376631E+02 -0.11933818366E+02  0.12730081036E+02  0.27731192333E+02  0.00000000000E+00 0. -1.
         -5    1    5    5    0  502  0.33342288292E+02  0.21054539183E+02  0.12559561959E+02  0.41651343380E+02  0.47000000000E+01 0.  1.
         13    1    6    6    0    0 -0.79713161928E+02 -0.14259236493E+02  0.88234772041E+02  0.11976180112E+03  0.00000000000E+00 0. -1.
        -14    1    6    6    0    0 -0.14857856578E+02 -0.62858249289E+02  0.67755342784E+02  0.93609304460E+02  0.00000000000E+00 0.  1.
</event>
<event>
12    1  0.1035051E+000  0.2436763E+03  0.7818608E-02  0.1117387E+00
         21   -1    0    0  503  502  0.00000000000E+00  0.00000000000E+00  0.23122237629E+03  0.23122237629E+03  0.00000000000E+00 0.  1.
         21   -1    0    0  501  503 -0.00000000000E+00 -0.00000000000E+00 -0.36711037852E+03  0.36711037852E+03  0.00000000000E+00 0.  1.
          6    2    1    2  501    0  0.11416514198E+03 -0.12900933065E+03 -0.23201424328E+03  0.33638160149E+03  0.17217690234E+03 0.  0.
         24    2    3    3    0    0  0.12419302629E+03 -0.15238729613E+03 -0.19011578956E+03  0.28714078348E+03  0.87521541914E+02 0.  0.
         -6    2    1    2    0  502 -0.11416514198E+03  0.12900933065E+03  0.96126241052E+02  0.26195115332E+03  0.17233997061E+03 0.  0.
        -24    2    5    5    0    0 -0.75464909182E+02  0.14688665363E+03  0.33061738705E+02  0.18568498683E+03  0.78199707388E+02 0.  0.
          5    1    3    3  501    0 -0.10027884316E+02  0.23377965479E+02 -0.41898453718E+02  0.49240818004E+02  0.47000000000E+01 0. -1.
        -13    1    4    4    0    0  0.78318629935E+02 -0.52049204837E+02 -0.13305393911E+03  0.16293028642E+03  0.00000000000E+00 0.  1.
         14    1    4    4    0    0  0.45874396358E+02 -0.10033809129E+03 -0.57061850451E+02  0.12421049707E+03  0.00000000000E+00 0. -1.
         -5    1    5    5    0  502 -0.38700232796E+02 -0.17877322975E+02  0.63064502347E+02  0.76266166493E+02  0.47000000000E+01 0.  1.
         13    1    6    6    0    0 -0.70123025399E+01  0.95420376021E+02  0.59850699009E+01  0.95864704707E+02  0.00000000000E+00 0. -1.
        -14    1    6    6    0    0 -0.68452606642E+02  0.51466277604E+02  0.27076668804E+02  0.89820282119E+02  0.00000000000E+00 0.  1.
</event>
<event>
12    1  0.1035051E+000  0.1992855E+03  0.7818608E-02  0.1150536E+00
         21   -1    0    0  503  502  0.00000000000E+00  0.00000000000E+00  0.10096839752E+03  0.10096839752E+03  0.00000000000E+00 0.  1.
         21   -1    0    0  501  503 -0.00000000000E+00 -0.00000000000E+00 -0.46514435643E+03  0.46514435643E+03  0.00000000000E+00 0.  1.
          6    2    1    2  501    0 -0.54656457919E+02  0.82397886873E+02 -0.69848858083E+02  0.21117191745E+03  0.17302593907E+03 0.  0.
         24    2    3    3    0    0 -0.63375561667E+02  0.18183286748E+02 -0.96031855117E+02  0.14112067211E+03  0.79660737927E+02 0.  0.
         -6    2    1    2    0  502  0.54656457919E+02 -0.82397886873E+02 -0.29432710082E+03  0.35494083650E+03  0.17198201936E+03 0.  0.
        -24    2    5    5    0    0 -0.92636430591E+01  0.17051854564E+02 -0.13262196152E+03  0.15457449087E+03  0.76994205793E+02 0.  0.
          5    1    3    3  501    0  0.87191037484E+01  0.64214600125E+02  0.26182997035E+02  0.70051245336E+02  0.47000000000E+01 0. -1.
        -11    1    4    4    0    0 -0.12530595813E+02  0.44310993717E+02 -0.47144072917E+02  0.65901772410E+02  0.00000000000E+00 0.  1.
         12    1    4    4    0    0 -0.50844965853E+02 -0.26127706969E+02 -0.48887782201E+02  0.75218899704E+02  0.00000000000E+00 0. -1.
         -5    1    5    5    0  502  0.63920100978E+02 -0.99449741437E+02 -0.16170513931E+03  0.20036634562E+03  0.47000000000E+01 0.  1.
         13    1    6    6    0    0 -0.11792441641E+02  0.79121484083E+01 -0.14112489289E+03  0.14183758023E+03  0.00000000000E+00 0. -1.
        -14    1    6    6    0    0  0.25287985819E+01  0.91397061558E+01  0.85029313720E+01  0.12736910646E+02  0.00000000000E+00 0.  1.
</event>
<event>
12    1  0.1035051E+000  0.2970803E+03  0.7818608E-02  0.1086762E+00
         21   -1    0    0  503  502  0.00000000000E+00  0.00000000000E+00  0.24440437430E+03  0.24440437430E+03  0.00000000000E+00 0. -1.
         21   -1    0    0  501  503 -0.00000000000E+00 -0.00000000000E+00 -0.36586741386E+03  0.36586741386E+03  0.00000000000E+00 0.  1.
          6    2    1    2  501    0  0.19788434559E+03  0.13889689016E+03 -0.24103895343E+02  0.29764502913E+03  0.17193314185E+03 0.  0.
         24    2    3    3    0    0  0.49898036541E+02  0.70886259713E+01 -0.21450223428E+02  0.99396452461E+02  0.82942630824E+02 0.  0.
         -6    2    1    2    0  502 -0.19788434559E+03 -0.13889689016E+03 -0.97359144215E+02  0.31262675904E+03  0.17264451099E+03 0.  0.
        -24    2    5    5    0    0 -0.11482790411E+03 -0.16026055446E+03 -0.70718305599E+02  0.22270121813E+03  0.75669418748E+02 0.  0.
          5    1    3    3  501    0  0.14798630905E+03  0.13180826419E+03 -0.26536719156E+01  0.19824857667E+03  0.47000000000E+01 0. -1.
        -13    1    4    4    0    0  0.70497383397E+02  0.18128364369E+02 -0.21922758727E+02  0.76020563079E+02  0.00000000000E+00 0.  1.
         14    1    4    4    0    0 -0.20599346857E+02 -0.11039738398E+02  0.47253529949E+00  0.23375889383E+02  0.00000000000E+00 0. -1.
         -5    1    5    5    0  502 -0.83056441485E+02  0.21363664299E+02 -0.26640838617E+02  0.89925540903E+02  0.47000000000E+01 0.  1.
         11    1    6    6    0    0 -0.62014483571E+02 -0.28144964538E+02 -0.32004110878E+02  0.75247580124E+02  0.00000000000E+00 0. -1.
        -12    1    6    6    0    0 -0.52813420536E+02 -0.13211558992E+03 -0.38714194721E+02  0.14745363801E+03  0.00000000000E+00 0.  1.
</event>
<event>
12    1  0.1035051E+000  0.2186482E+03  0.7818608E-02  0.1135077E+00
         21   -1    0    0  501  502  0.00000000000E+00  0.00000000000E+00  0.57330004735E+03  0.57330004735E+03  0.00000000000E+00 0. -1.
         21   -1    0    0  502  503 -0.00000000000E+00 -0.00000000000E+00 -0.11141115718E+03  0.11141115718E+03  0.00000000000E+00 0. -1.
         -6    2    1    2    0  503 -0.12004849930E+03  0.61288030836E+02  0.57740259768E+02  0.22520803423E+03  0.17092938944E+03 0.  0.
        -24    2    3    3    0    0 -0.78993502272E+02  0.56099120502E+02  0.10239282899E+03  0.16414757641E+03  0.84101430967E+02 0.  0.
          6    2    1    2  501    0  0.12004849930E+03 -0.61288030836E+02  0.40414863040E+03  0.45950317029E+03  0.17216034139E+03 0.  0.
         24    2    5    5    0    0  0.12081409788E+03 -0.10077814538E+03  0.35620866997E+03  0.39721043320E+03  0.78353244027E+02 0.  0.
          5    1    5    5  501    0 -0.76559858434E+00  0.39490114546E+02  0.47939960431E+02  0.62292737090E+02  0.47000000000E+01 0. -1.
        -13    1    6    6    0    0  0.27663248217E+02 -0.27226548233E+02  0.27058073238E+02  0.47314686493E+02  0.00000000000E+00 0.  1.
         14    1    6    6    0    0  0.93150849667E+02 -0.73551597149E+02  0.32915059673E+03  0.34989574671E+03  0.00000000000E+00 0. -1.
         -5    1    3    3    0  503 -0.41054997027E+02  0.51889103335E+01 -0.44652569218E+02  0.61060457820E+02  0.47000000000E+01 0.  1.
         11    1    4    4    0    0 -0.74486224297E+01 -0.20566026904E+02  0.87490788363E+01  0.23558221902E+02  0.00000000000E+00 0. -1.
        -12    1    4    4    0    0 -0.71544879843E+02  0.76665147406E+02  0.93643750150E+02  0.14058935451E+03  0.00000000000E+00 0.  1.
</event>
<event>
12    1  0.1035051E+000  0.3929590E+03  0.7818608E-02  0.1046272E+00
         21   -1    0    0  503  502  0.00000000000E+00  0.00000000000E+00  0.29959622074E+03  0.29959622074E+03  0.00000000000E+00 0. -1.
         21   -1    0    0  501  503 -0.00000000000E+00 -0.00000000000E+00 -0.53100630156E+03  0.53100630156E+03  0.00000000000E+00 0. -1.
          6    2    1    2  501    0  0.33887530560E+03 -0.98890429042E+02 -0.43692442530E+02  0.39538054243E+03  0.17262952846E+03 0.  0.
         24    2    3    3    0    0  0.76695748490E+02 -0.64456436485E+02 -0.17179610380E+02  0.12958204680E+03  0.80371000985E+02 0.  0.
         -6    2    1    2    0  502 -0.33887530560E+03  0.98890429042E+02 -0.18771763829E+03  0.43522197988E+03  0.17194321837E+03 0.  0.
        -24    2    5    5    0    0 -0.12649475472E+03 -0.14019155746E+02 -0.52293962814E+02  0.15915000627E+03  0.79978786257E+02 0.  0.
          5    1    3    3  501    0  0.26217955711E+03 -0.34433992558E+02 -0.26512832150E+02  0.26579849563E+03  0.47000000000E+01 0. -1.
        -13    1    4    4    0    0  0.61999495488E+02 -0.12912248958E+02  0.17548760114E+02  0.65716227794E+02  0.00000000000E+00 0.  1.
         14    1    4    4    0    0  0.14696253002E+02 -0.51544187527E+02 -0.34728370494E+02  0.63865819006E+02  0.00000000000E+00 0. -1.
         -5    1    5    5    0  502 -0.21238055088E+03  0.11290958479E+03 -0.13542367548E+03  0.27607197360E+03  0.47000000000E+01 0.  1.
         13    1    6    6    0    0 -0.23263752628E+02  0.14628819639E+02  0.16288750154E+02  0.31945702872E+02  0.00000000000E+00 0. -1.
        -14    1    6    6    0    0 -0.10323100209E+03 -0.28647975385E+02 -0.68582712967E+02  0.12720430340E+03  0.00000000000E+00 0.  1.
</event>
<event>
12    1  0.1035051E+000  0.1878118E+03  0.7818608E-02  0.1160493E+00
         21   -1    0    0  501  502  0.00000000000E+00  0.00000000000E+00  0.12530574010E+04  0.12530574010E+04  0.00000000000E+00 0. -1.
         21   -1    0    0  502  503 -0.00000000000E+00 -0.00000000000E+00 -0.77600632612E+02  0.77600632612E+02  0.00000000000E+00 0.  1.
         -6    2    1    2    0  503  0.52826036041E+02  0.53700666486E+02  0.56351025217E+02  0.19590214213E+03  0.17183672362E+03 0.  0.
        -24    2    3    3    0    0 -0.59704271926E+01  0.78651751010E+02  0.72620797160E+02  0.12982358141E+03  0.73202719713E+02 0.  0.
          6    2    1    2  501    0 -0.52826036041E+02 -0.53700666486E+02  0.11191057431E+04  0.11347558914E+04  0.17204335843E+03 0.  0.
         24    2    5    5    0    0  0.18266362346E+02 -0.41255295733E+02  0.88225830950E+03  0.88711136156E+03  0.80939382905E+02 0.  0.
          5    1    5    5  501    0 -0.71092398388E+02 -0.12445370753E+02  0.23684743363E+03  0.24764452988E+03  0.47000000000E+01 0. -1.
        -11    1    6    6    0    0  0.13341675655E+02 -0.46759916341E+02  0.24336542619E+03  0.24817578599E+03  0.00000000000E+00 0.  1.
         12    1    6    6    0    0  0.49246866914E+01  0.55046206080E+01  0.63889288331E+03  0.63893557557E+03  0.00000000000E+00 0. -1.
         -5    1    3    3    0  503  0.58796463234E+02 -0.24951084524E+02 -0.16269771943E+02  0.66078560720E+02  0.47000000000E+01 0.  1.
         13    1    4    4    0    0 -0.42884593386E+01  0.70570019169E+02  0.15849137738E+02  0.72454907743E+02  0.00000000000E+00 0. -1.
        -14    1    4    4    0    0 -0.16819678540E+01  0.80817318418E+01  0.56771659421E+02  0.57368673672E+02  0.00000000000E+00 0.  1.
</event>
<event>
12    1  0.1035051E+000  0.1766334E+03  0.7818608E-02  0.1171341E+00
         21   -1    0    0  501  502  0.00000000000E+00  0.00000000000E+00  0.15372285330E+02  0.15372285330E+02  0.00000000000E+00 0.  1.
         21   -1    0    0  502  503 -0.00000000000E+00 -0.00000000000E+00 -0.23735824678E+04  0.23735824678E+04  0.00000000000E+00 0.  1.
         -6    2    1    2    0  503  0.27029035284E+02  0.25515264372E+02 -0.71438842854E+03  0.73567035109E+03  0.17169286871E+03 0.  0.
        -24    2    3    3    0    0  0.81496412186E+02  0.16081733533E+02 -0.37795878054E+03  0.39469720741E+03  0.77670833651E+02 0.  0.
          6    2    1    2  501    0 -0.27029035284E+02 -0.25515264372E+02 -0.16438217539E+04  0.16532844020E+04  0.17267819171E+03 0.  0.
         24    2    5    5    0    0 -0.50403169987E+00 -0.27035033322E+02 -0.39243308756E+03  0.40160490240E+03  0.80942092548E+02 0.  0.
          5    1    5    5  501    0 -0.26525003584E+02  0.15197689497E+01 -0.12513886663E+04  0.12516794996E+04  0.47000000000E+01 0. -1.
        -11    1    6    6    0    0 -0.35483231281E+02 -0.46913586327E+01 -0.99416695110E+02  0.10566337026E+03  0.00000000000E+00 0.  1.
         12    1    6    6    0    0  0.34979199581E+02 -0.22343674689E+02 -0.29301639245E+03  0.29594153214E+03  0.00000000000E+00 0. -1.
         -5    1    3    3    0  503 -0.54467376902E+02  0.94335308395E+01 -0.33642964801E+03  0.34097314368E+03  0.47000000000E+01 0.  1.
         13    1    4    4    0    0  0.39584424687E+02 -0.72169542772E+01 -0.30335202183E+03  0.30600892186E+03  0.00000000000E+00 0. -1.
        -14    1    4    4    0    0  0.41911987499E+02  0.23298687810E+02 -0.74606758702E+02  0.88688285550E+02  0.00000000000E+00 0.  1.
</event>
<event>
12    1  0.1035051E+000  0.2094619E+03  0.7818608E-02  0.1142080E+00
         21   -1    0    0  501  502  0.00000000000E+00  0.00000000000E+00  0.11415681054E+03  0.11415681054E+03  0.00000000000E+00 0. -1.
         21   -1    0    0  502  503 -0.00000000000E+00 -0.00000000000E+00 -0.40027032954E+03  0.40027032954E+03  0.00000000000E+00 0. -1.
         -6    2    1    2    0  503  0.65868589847E+02  0.97094401166E+02 -0.19579657455E+03  0.28672389028E+03  0.17351742501E+03 0.  0.
        -24    2    3    3    0    0 -0.21746645100E+02  0.77524328314E+02 -0.76288441890E+02  0.13717891069E+03  0.80716721436E+02 0.  0.
          6    2    1    2  501    0 -0.65868589847E+02 -0.97094401166E+02 -0.90316944447E+02  0.22770324980E+03  0.17299024727E+03 0.  0.
         24    2    5    5    0    0 -0.75961697320E+02 -0.11706046126E+03 -0.30479845752E+02  0.16364793968E+03  0.79864235529E+02 0.  0.
          5    1    5    5  501    0  0.10093107473E+02  0.19966060090E+02 -0.59837098696E+02  0.64055310118E+02  0.47000000000E+01 0. -1.
        -13    1    6    6    0    0 -0.89295908980E+02 -0.75415206662E+02 -0.18764302587E+02  0.11837783495E+03  0.00000000000E+00 0.  1.
         14    1    6    6    0    0  0.13334211660E+02 -0.41645254594E+02 -0.11715543165E+02  0.45270104732E+02  0.00000000000E+00 0. -1.
         -5    1    3    3    0  503  0.87615234947E+02  0.19570072852E+02 -0.11950813266E+03  0.14954497958E+03  0.47000000000E+01 0.  1.
         11    1    4    4    0    0 -0.21403531716E+02 -0.74802897926E+01  0.42393187278E+00  0.22676984445E+02  0.00000000000E+00 0. -1.
        -12    1    4    4    0    0 -0.34311338429E+00  0.85004618107E+02 -0.76712373763E+02  0.11450192625E+03  0.00000000000E+00 0.  1.
</event>
<event>
12    1  0.1035051E+000  0.2046498E+03  0.7818608E-02  0.1145894E+00
         21   -1    0    0  503  502  0.00000000000E+00  0.00000000000E+00  0.11902815402E+03  0.11902815402E+03  0.00000000000E+00 0.  1.
         21   -1    0    0  501  503 -0.00000000000E+00 -0.00000000000E+00 -0.60869562110E+03  0.60869562110E+03  0.00000000000E+00 0.  1.
          6    2    1    2  501    0 -0.25211263370E+02  0.10935869830E+03 -0.83682797852E+01  0.20472238807E+03  0.17101548286E+03 0.  0.
         24    2    3    3    0    0  0.18476787548E+02  0.50280259630E+02  0.50323217919E+02  0.11056459705E+03  0.82599077911E+02 0.  0.
         -6    2    1    2    0  502  0.25211263370E+02 -0.10935869830E+03 -0.48129918730E+03  0.52300138705E+03  0.17113331195E+03 0.  0.
        -24    2    5    5    0    0  0.54608662628E+02 -0.94425414322E+02 -0.20472564402E+03  0.24442962808E+03  0.77038878867E+02 0.  0.
          5    1    3    3  501    0 -0.43688050917E+02  0.59078438670E+02 -0.58691497704E+02  0.94157791028E+02  0.47000000000E+01 0. -1.
        -11    1    4    4    0    0  0.44944750797E+02  0.40336896366E+01  0.21545958877E+02  0.50005295922E+02  0.00000000000E+00 0.  1.
         12    1    4    4    0    0 -0.26467963250E+02  0.46246569993E+02  0.28777259042E+02  0.60559301125E+02  0.00000000000E+00 0. -1.
         -5    1    5    5    0  502 -0.29397399258E+02 -0.14933283978E+02 -0.27657354328E+03  0.27857175897E+03  0.47000000000E+01 0.  1.
         13    1    6    6    0    0  0.18109316429E+02 -0.72684367631E+02 -0.67690970683E+02  0.10096054750E+03  0.00000000000E+00 0. -1.
        -14    1    6    6    0    0  0.36499346199E+02 -0.21741046691E+02 -0.13703467334E+03  0.14346908058E+03  0.00000000000E+00 0.  1.
</event>
<event>
12    1  0.1035051E+000  0.1871407E+03  0.7818608E-02  0.1161460E+00
         21   -1    0    0  501  502  0.00000000000E+00  0.00000000000E+00  0.14917402988E+03  0.14917402988E+03  0.00000000000E+00 0.  1.
         21   -1    0    0  502  503 -0.00000000000E+00 -0.00000000000E+00 -0.23284682879E+03  0.23284682879E+03  0.00000000000E+00 0.  1.
         -6    2    1    2    0  503  0.28099562916E+02  0.62403228841E+02 -0.47373387334E+02  0.19139219620E+03  0.17234554399E+03 0.  0.
        -24    2    3    3    0    0 -0.51480085066E+02  0.30260243861E+02 -0.24958867423E+02  0.10256318878E+03  0.79563692182E+02 0.  0.
          6    2    1    2  501    0 -0.28099562916E+02 -0.62403228841E+02 -0.36299411576E+02  0.19062866246E+03  0.17417775767E+03 0.  0.
         24    2    5    5    0    0 -0.49952894745E+02  0.16457949507E+02  0.11096376271E+02  0.95944427935E+02  0.79473567241E+02 0.  0.
          5    1    5    5  501    0  0.21853331829E+02 -0.78861178348E+02 -0.47395787847E+02  0.94684234528E+02  0.47000000000E+01 0. -1.
        -13    1    6    6    0    0  0.21399509494E+02  0.61977909325E+01 -0.30390689640E+01  0.22485274274E+02  0.00000000000E+00 0.  1.
         14    1    6    6    0    0 -0.71352404239E+02  0.10260158575E+02  0.14135445235E+02  0.73459153661E+02  0.00000000000E+00 0. -1.
         -5    1    3    3    0  503  0.79579647982E+02  0.32142984980E+02 -0.22414519911E+02  0.88829007420E+02  0.47000000000E+01 0.  1.
         11    1    4    4    0    0 -0.58239727184E+02 -0.22131725208E+01  0.41539679388E+01  0.58429610685E+02  0.00000000000E+00 0. -1.
        -12    1    4    4    0    0  0.67596421185E+01  0.32473416382E+02 -0.29112835362E+02  0.44133578100E+02  0.00000000000E+00 0.  1.
</event>
<event>
12    1  0.1035051E+000  0.2159854E+03  0.7818608E-02  0.1137424E+00
         21   -1    0    0  503  502  0.00000000000E+00  0.00000000000E+00  0.10476918320E+04  0.10476918320E+04  0.00000000000E+00 0. -1.
         21   -1    0    0  501  503 -0.00000000000E+00 -0.00000000000E+00 -0.44419973445E+02  0.44419973445E+02  0.00000000000E+00 0. -1.
          6    2    1    2  501    0 -0.21779474370E+02 -0.12446664155E+03  0.44414840107E+03  0.49272151001E+03  0.17187319132E+03 0.  0.
         24    2    3    3    0    0 -0.45355640648E+02 -0.15187719123E+03  0.34945448434E+03  0.39125130889E+03  0.76389362662E+02 0.  0.
         -6    2    1    2    0  502  0.21779474370E+02  0.12446664155E+03  0.55912345747E+03  0.59939029542E+03  0.17516676394E+03 0.  0.
        -24    2    5    5    0    0  0.47053612074E+02  0.14231782914E+03  0.52986590987E+03  0.55654708094E+03  0.80736385597E+02 0.  0.
          5    1    3    3  501    0  0.23576166277E+02  0.27410549682E+02  0.94693916729E+02  0.10147020112E+03  0.47000000000E+01 0. -1.
        -11    1    4    4    0    0  0.16270173132E+02 -0.61567193882E+02  0.16453503168E+03  0.17642849698E+03  0.00000000000E+00 0.  1.
         12    1    4    4    0    0 -0.61625813780E+02 -0.90309997347E+02  0.18491945266E+03  0.21482281191E+03  0.00000000000E+00 0. -1.
         -5    1    5    5    0  502 -0.25274137704E+02 -0.17851187596E+02  0.29257547597E+02  0.42843214476E+02  0.47000000000E+01 0.  1.
         13    1    6    6    0    0  0.47743057585E+02  0.43742366698E+02  0.29143034054E+03  0.29853716281E+03  0.00000000000E+00 0. -1.
        -14    1    6    6    0    0 -0.68944551085E+00  0.98575462444E+02  0.23843556933E+03  0.25800991813E+03  0.00000000000E+00 0.  1.
</event>
<event>
12    1  0.1035051E+000  0.2016701E+03  0.7818608E-02  0.1148618E+00
         21   -1    0    0  503  502  0.00000000000E+00  0.00000000000E+00  0.26809394674E+02  0.26809394674E+02  0.00000000000E+00 0.  1.
         21   -1    0    0  501  503 -0.00000000000E+00 -0.00000000000E+00 -0.17628522788E+04  0.17628522788E+04  0.00000000000E+00 0.  1.
          6    2    1    2  501    0 -0.25251842453E+02  0.10085952923E+03 -0.52957510992E+03  0.56667506065E+03  0.17280198820E+03 0.  0.
         24    2    3    3    0    0 -0.51715738300E+02  0.12498996298E+03 -0.48323980038E+03  0.50792417532E+03  0.78544603703E+02 0.  0.
         -6    2    1    2    0  502  0.25251842453E+02 -0.10085952923E+03 -0.12064677742E+04  0.12229866128E+04  0.17123511548E+03 0.  0.
        -24    2    5    5    0    0  0.78975876037E+02 -0.81691173403E+02 -0.72964188635E+03  0.74273801577E+03  0.79823811863E+02 0.  0.
          5    1    3    3  501    0  0.26463895847E+02 -0.24130433748E+02 -0.46335309540E+02  0.58750885325E+02  0.47000000000E+01 0. -1.
        -13    1    4    4    0    0  0.20500321498E+02  0.36427654360E+02 -0.11500871113E+03  0.12236928054E+03  0.00000000000E+00 0.  1.
         14    1    4    4    0    0 -0.72216059798E+02  0.88562308622E+02 -0.36823108925E+03  0.38555489478E+03  0.00000000000E+00 0. -1.
         -5    1    5    5    0  502 -0.53724033583E+02 -0.19168355831E+02 -0.47682588781E+03  0.48024859701E+03  0.47000000000E+01 0.  1.
         13    1    6    6    0    0  0.41729730258E+02 -0.99865998990E+01 -0.11384422016E+03  0.12166186350E+03  0.00000000000E+00 0. -1.
        -14    1    6    6    0    0  0.37246145778E+02 -0.71704573504E+02 -0.61579766619E+03  0.62107615227E+03  0.00000000000E+00 0.  1.
</event>
<event>
12    1  0.1035051E+000  0.2686033E+03  0.7818608E-02  0.1102186E+00
         21   -1    0    0  503  502  0.00000000000E+00  0.00000000000E+00  0.75271586987E+03  0.75271586987E+03  0.00000000000E+00 0.  1.
         21   -1    0    0  501  503 -0.00000000000E+00 -0.00000000000E+00 -0.99475621134E+02  0.99475621134E+02  0.00000000000E+00 0.  1.
          6    2    1    2  501    0 -0.75501826476E+02  0.19307722725E+03  0.24285547084E+03  0.36211393212E+03  0.17078752482E+03 0.  0.
         24    2    3    3    0    0 -0.56254953933E+02  0.40520244050E+02  0.55759332788E+02  0.11989269007E+03  0.80365688696E+02 0.  0.
         -6    2    1    2    0  502  0.75501826476E+02 -0.19307722725E+03  0.41038477790E+03  0.49007755889E+03  0.16964965756E+03 0.  0.
        -24    2    5    5    0    0  0.11516280758E+03 -0.15119753317E+03  0.34964299714E+03  0.40618145571E+03  0.81301803363E+02 0.  0.
          5    1    3    3  501    0 -0.19246872542E+02  0.15255698320E+03  0.18709613805E+03  0.24222124205E+03  0.47000000000E+01 0. -1.
        -11    1    4    4    0    0 -0.37349577464E+01  0.22266723474E+02 -0.17041698621E+02  0.28287388984E+02  0.00000000000E+00 0.  1.
         12    1    4    4    0    0 -0.52519996187E+02  0.18253520576E+02  0.72801031409E+02  0.91605301086E+02  0.00000000000E+00 0. -1.
         -5    1    5    5    0  502 -0.39660981100E+02 -0.41879694078E+02  0.60741780758E+02  0.83896103173E+02  0.47000000000E+01 0.  1.
         13    1    6    6    0    0  0.23762384106E+02 -0.96882075508E+02  0.18530862756E+03  0.21045207269E+03  0.00000000000E+00 0. -1.
        -14    1    6    6    0    0  0.91400423470E+02 -0.54315457664E+02  0.16433436958E+03  0.19572938302E+03  0.00000000000E+00 0.  1.
</event>
<event>
12    1  0.1035051E+000  0.3448057E+03  0.7818608E-02  0.1064864E+00
         21   -1    0    0  503  502  0.00000000000E+00  0.00000000000E+00  0.51941673278E+03  0.51941673278E+03  0.00000000000E+00 0.  1.
         21   -1    0    0  501  503 -0.00000000000E+00 -0.00000000000E+00 -0.27823102019E+03  0.27823102019E+03  0.00000000000E+00 0.  1.
          6    2    1    2  501    0  0.19222085816E+03 -0.22659530373E+03 -0.48520952833E+02  0.34729129775E+03  0.17309729243E+03 0.  0.
         24    2    3    3    0    0  0.11039605021E+03 -0.61408836776E+02  0.24972881610E+02  0.14878361084E+03  0.74529087634E+02 0.  0.
         -6    2    1    2    0  502 -0.19222085816E+03  0.22659530373E+03  0.28970666542E+03  0.45035645522E+03  0.17491910924E+03 0.  0.
        -24    2    5    5    0    0 -0.12036875192E+03  0.19324107149E+03  0.27971387041E+03  0.37037410759E+03  0.84299360154E+02 0.  0.
          5    1    3    3  501    0  0.81824807958E+02 -0.16518646695E+03 -0.73493834444E+02  0.19850768691E+03  0.47000000000E+01 0. -1.
        -11    1    4    4    0    0  0.34371151762E+02 -0.22178185854E+02  0.45110787663E+02  0.60895247473E+02  0.00000000000E+00 0.  1.
         12    1    4    4    0    0  0.76024898445E+02 -0.39230650922E+02 -0.20137906053E+02  0.87888363369E+02  0.00000000000E+00 0. -1.
         -5    1    5    5    0  502 -0.71852106243E+02  0.33354232235E+02  0.99927950138E+01  0.79982347626E+02  0.47000000000E+01 0.  1.
         13    1    6    6    0    0 -0.39804572947E+02  0.13206796967E+02  0.27315878734E+02  0.50049782663E+02  0.00000000000E+00 0. -1.
        -14    1    6    6    0    0 -0.80564178975E+02  0.18003427453E+03  0.25239799168E+03  0.32032432493E+03  0.00000000000E+00 0.  1.
</event>
<event>
12    1  0.1035051E+000  0.1951938E+03  0.7818608E-02  0.1153984E+00
         21   -1    0    0  503  502  0.00000000000E+00  0.00000000000E+00  0.62330837536E+03  0.62330837536E+03  0.00000000000E+00 0. -1.
         21   -1    0    0  501  503 -0.00000000000E+00 -0.00000000000E+00 -0.73526616333E+02  0.73526616333E+02  0.00000000000E+00 0. -1.
          6    2    1    2  501    0 -0.39548704650E+02 -0.73814502985E+02  0.41867160065E+03  0.46169572233E+03  0.17568252598E+03 0.  0.
         24    2    3    3    0    0  0.33011632665E+02 -0.84422753081E+02  0.27465988196E+03  0.30002011304E+03  0.79731100189E+02 0.  0.
         -6    2    1    2    0  502  0.39548704650E+02  0.73814502985E+02  0.13111015838E+03  0.23513926936E+03  0.17631767205E+03 0.  0.
        -24    2    5    5    0    0  0.45517635108E+02  0.11875136392E+03  0.10643137984E+03  0.18331184698E+03  0.78114359044E+02 0.  0.
          5    1    3    3  501    0 -0.72560337314E+02  0.10608250096E+02  0.14401171869E+03  0.16167560930E+03  0.47000000000E+01 0. -1.
        -13    1    4    4    0    0  0.49084393466E+01  0.10400318466E+02  0.88277302350E+02  0.89023263876E+02  0.00000000000E+00 0.  1.
         14    1    4    4    0    0  0.28103193318E+02 -0.94823071546E+02  0.18638257961E+03  0.21099684916E+03  0.00000000000E+00 0. -1.
         -5    1    5    5    0  502 -0.59689304587E+01 -0.44936860932E+02  0.24678778534E+02  0.51827422386E+02  0.47000000000E+01 0.  1.
         13    1    6    6    0    0  0.56035629682E+02  0.86551999688E+02  0.10811141506E+03  0.14939651438E+03  0.00000000000E+00 0. -1.
        -14    1    6    6    0    0 -0.10517994574E+02  0.32199364228E+02 -0.16800352165E+01  0.33915332593E+02  0.00000000000E+00 0.  1.
</event>
<event>
12    1  0.1035051E+000  0.2085596E+03  0.7818608E-02  0.1143241E+00
         21   -1    0    0  501  502  0.00000000000E+00  0.00000000000E+00  0.48490902262E+03  0.48490902262E+03  0.00000000000E+00 0.  1.
         21   -1    0    0  502  503 -0.00000000000E+00 -0.00000000000E+00 -0.88620865623E+02  0.88620865623E+02  0.00000000000E+00 0.  1.
         -6    2    1    2    0  503  0.22145000295E+02  0.10949205332E+03  0.20353956623E+03  0.28954202466E+03  0.17299513936E+03 0.  0.
        -24    2    3    3    0    0  0.57565062229E+02  0.12784485489E+03  0.13575434538E+03  0.21074905366E+03  0.79547960486E+02 0.  0.
          6    2    1    2  501    0 -0.22145000295E+02 -0.10949205332E+03  0.19274859077E+03  0.28398786359E+03  0.17611977925E+03 0.  0.
         24    2    5    5    0    0  0.26576608128E+02  0.33542272739E+01  0.88087127022E+02  0.12248185700E+03  0.80776830873E+02 0.  0.
          5    1    5    5  501    0 -0.48721608423E+02 -0.11284628060E+03  0.10466146375E+03  0.16150600659E+03  0.47000000000E+01 0. -1.
        -11    1    6    6    0    0  0.17209074555E+02 -0.32122767058E+02  0.12616673307E+02  0.38564295091E+02  0.00000000000E+00 0.  1.
         12    1    6    6    0    0  0.93675335729E+01  0.35476994332E+02  0.75470453714E+02  0.83917561904E+02  0.00000000000E+00 0. -1.
         -5    1    3    3    0  503 -0.35420061934E+02 -0.18352801569E+02  0.67785220851E+02  0.78792970998E+02  0.47000000000E+01 0.  1.
         13    1    4    4    0    0  0.50441629128E+01  0.59995989478E+02  0.10220715340E+03  0.11862236104E+03  0.00000000000E+00 0. -1.
        -14    1    4    4    0    0  0.52520899316E+02  0.67848865413E+02  0.33547191977E+02  0.92126692616E+02  0.00000000000E+00 0.  1.
</event>
<event>
12    1  0.1035051E+000  0.6642684E+03  0.7818608E-02  0.9780492E-01
         21   -1    0    0  501  502  0.00000000000E+00  0.00000000000E+00  0.29128140093E+03  0.29128140093E+03  0.00000000000E+00 0. -1.
         21   -1    0    0  502  503 -0.00000000000E+00 -0.00000000000E+00 -0.15298804827E+04  0.15298804827E+04  0.00000000000E+00 0. -1.
         -6    2    1    2    0  503  0.34385151478E+03  0.54134501788E+03 -0.52737400078E+03  0.84816026378E+03  0.17310171506E+03 0.  0.
        -24    2    3    3    0    0  0.35468761972E+03  0.50115309777E+03 -0.47261404617E+03  0.77921423966E+03  0.82783208889E+02 0.  0.
          6    2    1    2  501    0 -0.34385151478E+03 -0.54134501788E+03 -0.71122508097E+03  0.97300161983E+03  0.17205447911E+03 0.  0.
         24    2    5    5    0    0 -0.11948730221E+03 -0.13002521266E+03 -0.23566813635E+03  0.30539411565E+03  0.80884634320E+02 0.  0.
          5    1    5    5  501    0 -0.22436421257E+03 -0.41131980522E+03 -0.47555694463E+03  0.66760750418E+03  0.47000000000E+01 0. -1.
        -13    1    6    6    0    0 -0.12942384398E+03 -0.12947763619E+03 -0.22992005545E+03  0.29390172093E+03  0.00000000000E+00 0.  1.
         14    1    6    6    0    0  0.99365417775E+01 -0.54757646855E+00 -0.57480808931E+01  0.11492394722E+02  0.00000000000E+00 0. -1.
         -5    1    3    3    0  503 -0.10836104937E+02  0.40191920117E+02 -0.54759954615E+02  0.68946024122E+02  0.47000000000E+01 0.  1.
         11    1    4    4    0    0  0.15279783418E+03  0.19069064337E+03 -0.23619752440E+03  0.33985198268E+03  0.00000000000E+00 0. -1.
        -12    1    4    4    0    0  0.20188978553E+03  0.31046245440E+03 -0.23641652177E+03  0.43936225698E+03  0.00000000000E+00 0.  1.
</event>
<event>
12    1  0.1035051E+000  0.1774506E+03  0.7818608E-02  0.1170377E+00
         21   -1    0    0  501  502  0.00000000000E+00  0.00000000000E+00  0.16962959368E+03  0.16962959368E+03  0.00000000000E+00 0. -1.
         21   -1    0    0  502  503 -0.00000000000E+00 -0.00000000000E+00 -0.25532943391E+03  0.25532943391E+03  0.00000000000E+00 0. -1.
         -6    2    1    2    0  503  0.41604651536E+02 -0.16673135553E+01 -0.15417580246E+03  0.23507207929E+03  0.17249631136E+03 0.  0.
        -24    2    3    3    0    0  0.58472443548E+02  0.16362614879E+02 -0.17542975728E+03  0.20215671323E+03  0.80031088606E+02 0.  0.
          6    2    1    2  501    0 -0.41604651536E+02  0.16673135553E+01  0.68475962228E+02  0.18988694830E+03  0.17214635856E+03 0.  0.
         24    2    5    5    0    0 -0.14360130673E+02  0.61334539696E+01  0.11230387049E+03  0.13787554695E+03  0.78445360016E+02 0.  0.
          5    1    5    5  501    0 -0.27244520863E+02 -0.44661404142E+01 -0.43827908266E+02  0.52011401348E+02  0.47000000000E+01 0. -1.
        -13    1    6    6    0    0 -0.40990772941E+02  0.22070686314E+02  0.50298297138E+02  0.68536686202E+02  0.00000000000E+00 0.  1.
         14    1    6    6    0    0  0.26630642268E+02 -0.15937232344E+02  0.62005573357E+02  0.69338860747E+02  0.00000000000E+00 0. -1.
         -5    1    3    3    0  503 -0.16867792012E+02 -0.18029928434E+02  0.21253954828E+02  0.32915366055E+02  0.47000000000E+01 0.  1.
         11    1    4    4    0    0  0.31991521892E+01 -0.51857374200E+01 -0.12250114397E+03  0.12265258547E+03  0.00000000000E+00 0. -1.
        -12    1    4    4    0    0  0.55273291359E+02  0.21548352299E+02 -0.52928613313E+02  0.79504127765E+02  0.00000000000E+00 0.  1.
</event>
<event>
12    1  0.1035051E+000  0.1818297E+03  0.7818608E-02  0.1166832E+00
         21   -1    0    0  501  502  0.00000000000E+00  0.00000000000E+00  0.37413202861E+02  0.37413202861E+02  0.00000000000E+00 0.  1.
         21   -1    0    0  502  503 -0.00000000000E+00 -0.00000000000E+00 -0.87104797096E+03  0.87104797096E+03  0.00000000000E+00 0.  1.
         -6    2    1    2    0  503  0.55149066024E+02  0.13307322474E+02 -0.39317899575E+03  0.43318792220E+03  0.17275285506E+03 0.  0.
        -24    2    3    3    0    0  0.32905269263E+02  0.68959013462E+02 -0.32830829814E+03  0.34474475055E+03  0.72280717495E+02 0.  0.
          6    2    1    2  501    0 -0.55149066024E+02 -0.13307322474E+02 -0.44045577235E+03  0.47527325162E+03  0.16930703467E+03 0.  0.
         24    2    5    5    0    0 -0.50097143508E+02  0.54902982846E+02 -0.27472449214E+03  0.29592132128E+03  0.81066765674E+02 0.  0.
          5    1    5    5  501    0 -0.50519225158E+01 -0.68210305320E+02 -0.16573128021E+03  0.17935193033E+03  0.47000000000E+01 0. -1.
        -13    1    6    6    0    0 -0.11814303896E+02  0.34437125038E+02 -0.23260144973E+03  0.23543348907E+03  0.00000000000E+00 0.  1.
         14    1    6    6    0    0 -0.38282839612E+02  0.20465857808E+02 -0.42123042405E+02  0.60487832215E+02  0.00000000000E+00 0. -1.
         -5    1    3    3    0  503  0.22243796761E+02 -0.55651690988E+02 -0.64870697609E+02  0.88443171656E+02  0.47000000000E+01 0.  1.
         11    1    4    4    0    0 -0.17296683373E+02  0.28085927317E+02 -0.17888694032E+03  0.18190253430E+03  0.00000000000E+00 0. -1.
        -12    1    4    4    0    0  0.50201952636E+02  0.40873086145E+02 -0.14942135782E+03  0.16284221625E+03  0.00000000000E+00 0.  1.
</event>
<event>
12    1  0.1035051E+000  0.1779705E+03  0.7818608E-02  0.1169939E+00
         21   -1    0    0  501  502  0.00000000000E+00  0.00000000000E+00  0.61984030951E+02  0.61984030951E+02  0.00000000000E+00 0. -1.
         21   -1    0    0  502  503 -0.00000000000E+00 -0.00000000000E+00 -0.54469993871E+03  0.54469993871E+03  0.00000000000E+00 0. -1.
         -6    2    1    2    0  503  0.41779107887E+02 -0.19431256259E+02 -0.16428330086E+03  0.24220343254E+03  0.17190239154E+03 0.  0.
        -24    2    3    3    0    0 -0.36937952762E+02 -0.38264787509E+02 -0.10605935240E+03  0.14238762362E+03  0.78721298336E+02 0.  0.
          6    2    1    2  501    0 -0.41779107887E+02  0.19431256259E+02 -0.31843260691E+03  0.36448053712E+03  0.17124155227E+03 0.  0.
         24    2    5    5    0    0 -0.32644609698E+02  0.13092377930E+02 -0.33349536088E+03  0.34517776548E+03  0.81801302869E+02 0.  0.
          5    1    5    5  501    0 -0.91344981893E+01  0.63388783290E+01  0.15062753977E+02  0.19302771641E+02  0.47000000000E+01 0. -1.
        -13    1    6    6    0    0  0.22598383453E+01 -0.13406145821E+02 -0.61665960731E+01  0.14928446746E+02  0.00000000000E+00 0.  1.
         14    1    6    6    0    0 -0.34904448043E+02  0.26498523751E+02 -0.32732876481E+03  0.33024931874E+03  0.00000000000E+00 0. -1.
         -5    1    3    3    0  503  0.78717060649E+02  0.18833531250E+02 -0.58223948463E+02  0.99815808925E+02  0.47000000000E+01 0.  1.
         11    1    4    4    0    0 -0.10281349742E+02 -0.55316883025E+02 -0.91819932318E+02  0.10768734220E+03  0.00000000000E+00 0. -1.
        -12    1    4    4    0    0 -0.26656603020E+02  0.17052095516E+02 -0.14239420077E+02  0.34700281414E+02  0.00000000000E+00 0.  1.
</event>
<event>
12    1  0.1035051E+000  0.1803730E+03  0.7818608E-02  0.1167571E+00
         21   -1    0    0  503  502  0.00000000000E+00  0.00000000000E+00  0.19514918720E+03  0.19514918720E+03  0.00000000000E+00 0.  1.
         21   -1    0    0  501  503 -0.00000000000E+00 -0.00000000000E+00 -0.16839253633E+03  0.16839253633E+03  0.00000000000E+00 0.  1.
          6    2    1    2  501    0 -0.45414907867E+02  0.16367354984E+02  0.33980283746E+02  0.18302413578E+03  0.17324194189E+03 0.  0.
         24    2    3    3    0    0 -0.10851418238E+02 -0.55419786136E+02  0.29189991946E+02  0.10306748914E+03  0.81127958901E+02 0.  0.
         -6    2    1    2    0  502  0.45414907867E+02 -0.16367354984E+02 -0.72236328824E+01  0.18051758775E+03  0.17379302187E+03 0.  0.
        -24    2    5    5    0    0  0.55487976652E+00  0.19377736750E+02 -0.59833802797E+02  0.10254288876E+03  0.80988613432E+02 0.  0.
          5    1    3    3  501    0 -0.34563489630E+02  0.71787141120E+02  0.47902918004E+01  0.79956646635E+02  0.47000000000E+01 0. -1.
        -11    1    4    4    0    0  0.17911185502E+02 -0.97995152997E+01 -0.21076317510E+02  0.29343691417E+02  0.00000000000E+00 0.  1.
         12    1    4    4    0    0 -0.28762603739E+02 -0.45620270836E+02  0.50266309456E+02  0.73723797727E+02  0.00000000000E+00 0. -1.
         -5    1    5    5    0  502  0.44860028101E+02 -0.35745091734E+02  0.52610169914E+02  0.77974698991E+02  0.47000000000E+01 0.  1.
         11    1    6    6    0    0  0.37201839108E+02  0.10543311976E+02 -0.50687617336E+02  0.63752433770E+02  0.00000000000E+00 0. -1.
        -12    1    6    6    0    0 -0.36646959341E+02  0.88344247735E+01 -0.91461854609E+01  0.38790454993E+02  0.00000000000E+00 0.  1.
</event>
<event>
12    1  0.1035051E+000  0.2141433E+03  0.7818608E-02  0.1138514E+00
         21   -1    0    0  501  502  0.00000000000E+00  0.00000000000E+00  0.10417045402E+03  0.10417045402E+03  0.00000000000E+00 0.  1.
         21   -1    0    0  502  503 -0.00000000000E+00 -0.00000000000E+00 -0.57012818079E+03  0.57012818079E+03  0.00000000000E+00 0.  1.
         -6    2    1    2    0  503  0.10742055381E+03  0.64238507737E+02 -0.39555708158E+03  0.44980302397E+03  0.17375728567E+03 0.  0.
        -24    2    3    3    0    0  0.57111603751E+02 -0.69642083227E+00 -0.33131787032E+03  0.34541767218E+03  0.79244033056E+02 0.  0.
          6    2    1    2  501    0 -0.10742055381E+03 -0.64238507737E+02 -0.70400645190E+02  0.22449561084E+03  0.17255801108E+03 0.  0.
         24    2    5    5    0    0  0.99509917970E+01 -0.31241358956E+02 -0.49641293275E+02  0.10072997652E+03  0.81284841301E+02 0.  0.
          5    1    5    5  501    0 -0.11737154561E+03 -0.32997148781E+02 -0.20759351915E+02  0.12376563432E+03  0.47000000000E+01 0. -1.
        -13    1    6    6    0    0  0.83490564315E+01  0.25239631877E+02 -0.17180847278E+01  0.26640149694E+02  0.00000000000E+00 0.  1.
         14    1    6    6    0    0  0.16019353655E+01 -0.56480990833E+02 -0.47923208547E+02  0.74089826831E+02  0.00000000000E+00 0. -1.
         -5    1    3    3    0  503  0.50308950061E+02  0.64934928570E+02 -0.64239211260E+02  0.10438535179E+03  0.47000000000E+01 0.  1.
         11    1    4    4    0    0  0.43384039478E+02  0.37097463780E+02 -0.20934892501E+03  0.21699163372E+03  0.00000000000E+00 0. -1.
        -12    1    4    4    0    0  0.13727564272E+02 -0.37793884612E+02 -0.12196894531E+03  0.12842603846E+03  0.00000000000E+00 0.  1.
</event>
<event>
12    1  0.1035051E+000  0.2008708E+03  0.7818608E-02  0.1149495E+00
         21   -1    0    0  501  502  0.00000000000E+00  0.00000000000E+00  0.18335211098E+03  0.18335211098E+03  0.00000000000E+00 0.  1.
         21   -1    0    0  502  503 -0.00000000000E+00 -0.00000000000E+00 -0.61222051092E+03  0.61222051092E+03  0.00000000000E+00 0.  1.
         -6    2    1    2    0  503  0.55385395701E+02 -0.85640828770E+02  0.10539731505E+03  0.22479338733E+03  0.17035721106E+03 0.  0.
        -24    2    3    3    0    0  0.58381964611E+02  0.22121328745E+00  0.96416732814E+02  0.13828321135E+03  0.80109658889E+02 0.  0.
          6    2    1    2  501    0 -0.55385395701E+02  0.85640828770E+02 -0.53426571499E+03  0.57077923457E+03  0.17305255499E+03 0.  0.
         24    2    5    5    0    0  0.52460406246E+01  0.43812333329E+02 -0.13615179883E+03  0.16588100742E+03  0.83857944202E+02 0.  0.
          5    1    5    5  501    0 -0.60631436325E+02  0.41828495441E+02 -0.39811391616E+03  0.40489822714E+03  0.47000000000E+01 0. -1.
        -13    1    6    6    0    0 -0.20679707924E+02  0.60479781721E+02 -0.90257850212E+02  0.11059807341E+03  0.00000000000E+00 0.  1.
         14    1    6    6    0    0  0.25925748548E+02 -0.16667448392E+02 -0.45893948616E+02  0.55282934015E+02  0.00000000000E+00 0. -1.
         -5    1    3    3    0  503 -0.29965689105E+01 -0.85862042058E+02  0.89805822365E+01  0.86510175984E+02  0.47000000000E+01 0.  1.
         13    1    4    4    0    0 -0.35444087331E+01 -0.29971066218E+02  0.27327059619E+02  0.40713582880E+02  0.00000000000E+00 0. -1.
        -14    1    4    4    0    0  0.61926373344E+02  0.30192279506E+02  0.69089673195E+02  0.97569628469E+02  0.00000000000E+00 0.  1.
</event>
<event>
12    1  0.1035051E+000  0.4295033E+03  0.7818608E-02  0.1034034E+00
         21   -1    0    0  503  502  0.00000000000E+00  0.00000000000E+00  0.29804467876E+03  0.29804467876E+03  0.00000000000E+00 0.  1.
         21   -1    0    0  501  503 -0.00000000000E+00 -0.00000000000E+00 -0.64235748549E+03  0.64235748549E+03  0.00000000000E+00 0.  1.
          6    2    1    2  501    0 -0.30207659874E+03  0.25209200537E+03 -0.81837264787E+02  0.43723038957E+03  0.17225685755E+03 0.  0.
         24    2    3    3    0    0 -0.12967879107E+03  0.16844726686E+03  0.49341239707E+01  0.22682884423E+03  0.78967768305E+02 0.  0.
         -6    2    1    2    0  502  0.30207659874E+03 -0.25209200537E+03 -0.26247554194E+03  0.50317177468E+03  0.17172004552E+03 0.  0.
        -24    2    5    5    0    0  0.16955780304E+03 -0.21473125499E+03 -0.21647459949E+03  0.35792979180E+03  0.79957008397E+02 0.  0.
          5    1    3    3  501    0 -0.17239780767E+03  0.83644738513E+02 -0.86771388757E+02  0.21040154533E+03  0.47000000000E+01 0. -1.
        -13    1    4    4    0    0 -0.35245792750E+02  0.54329151286E+02  0.37963451191E+02  0.75067610941E+02  0.00000000000E+00 0.  1.
         14    1    4    4    0    0 -0.94432998319E+02  0.11411811557E+03 -0.33029327221E+02  0.15176123329E+03  0.00000000000E+00 0. -1.
         -5    1    5    5    0  502  0.13251879570E+03 -0.37360750385E+02 -0.46000942449E+02  0.14524198288E+03  0.47000000000E+01 0.  1.
         13    1    6    6    0    0  0.13230688188E+03 -0.13964436615E+03 -0.18911202848E+03  0.26975733411E+03  0.00000000000E+00 0. -1.
        -14    1    6    6    0    0  0.37250921159E+02 -0.75086888834E+02 -0.27362571009E+02  0.88172457685E+02  0.00000000000E+00 0.  1.
</event>
<event>
12    1  0.1035051E+000  0.2982268E+03  0.7818608E-02  0.1086334E+00
         21   -1    0    0  503  502  0.00000000000E+00  0.00000000000E+00  0.81860266607E+03  0.81860266607E+03  0.00000000000E+00 0. -1.
         21   -1    0    0  501  503 -0.00000000000E+00 -0.00000000000E+00 -0.12362804242E+03  0.12362804242E+03  0.00000000000E+00 0. -1.
          6    2    1    2  501    0  0.18796976480E+03 -0.15421599593E+03  0.51383646616E+03  0.59330342303E+03  0.16989947602E+03 0.  0.
         24    2    3    3    0    0  0.70859309897E+02 -0.88939058503E+02  0.37532113112E+03  0.40047052842E+03  0.81114084696E+02 0.  0.
         -6    2    1    2    0  502 -0.18796976480E+03  0.15421599593E+03  0.18113815749E+03  0.34892728545E+03  0.17269630151E+03 0.  0.
        -24    2    5    5    0    0 -0.28349216555E+02  0.44139158573E+02  0.10347939389E+03  0.14000480435E+03  0.78367192656E+02 0.  0.
          5    1    3    3  501    0  0.11711045490E+03 -0.65276937425E+02  0.13851533504E+03  0.19283289462E+03  0.47000000000E+01 0. -1.
        -13    1    4    4    0    0  0.33149554473E+02 -0.92943284545E+02  0.22982613815E+03  0.25011477541E+03  0.00000000000E+00 0.  1.
         14    1    4    4    0    0  0.37709755424E+02  0.40042260427E+01  0.14549499298E+03  0.15035575301E+03  0.00000000000E+00 0. -1.
         -5    1    5    5    0  502 -0.15962054824E+03  0.11007683735E+03  0.77658763602E+02  0.20892248110E+03  0.47000000000E+01 0.  1.
         13    1    6    6    0    0  0.13430756568E+02  0.17727713946E+02 -0.31628020230E+01  0.22464647346E+02  0.00000000000E+00 0. -1.
        -14    1    6    6    0    0 -0.41779973123E+02  0.26411444626E+02  0.10664219591E+03  0.11754015701E+03  0.00000000000E+00 0.  1.
</event>
<event>
12    1  0.1035051E+000  0.3108009E+03  0.7818608E-02  0.1079988E+00
         21   -1    0    0  503  502  0.00000000000E+00  0.00000000000E+00  0.12442177105E+03  0.12442177105E+03  0.00000000000E+00 0.  1.
         21   -1    0    0  501  503 -0.00000000000E+00 -0.00000000000E+00 -0.77696259955E+03  0.77696259955E+03  0.00000000000E+00 0.  1.
          6    2    1    2  501    0  0.11317843221E+03  0.23240543488E+03 -0.30905874964E+03  0.43815968067E+03  0.17217709300E+03 0.  0.
         24    2    3    3    0    0 -0.86157989527E+01  0.11415505545E+03 -0.11899833358E+03  0.18328316403E+03  0.79539337096E+02 0.  0.
         -6    2    1    2    0  502 -0.11317843221E+03 -0.23240543488E+03 -0.34348207886E+03  0.46322468994E+03  0.17255587846E+03 0.  0.
        -24    2    5    5    0    0 -0.60432844090E+02 -0.20870891810E+03 -0.19109476292E+03  0.30016762621E+03  0.79823895339E+02 0.  0.
          5    1    3    3  501    0  0.12179423117E+03  0.11825037942E+03 -0.19006041605E+03  0.25487651663E+03  0.47000000000E+01 0. -1.
        -13    1    4    4    0    0  0.59647715860E+01  0.11762948137E+03 -0.82424190190E+02  0.14375681033E+03  0.00000000000E+00 0.  1.
         14    1    4    4    0    0 -0.14580570539E+02 -0.34744259112E+01 -0.36574143392E+02  0.39526353709E+02  0.00000000000E+00 0. -1.
         -5    1    5    5    0  502 -0.52745588124E+02 -0.23696516777E+02 -0.15238731594E+03  0.16305706373E+03  0.47000000000E+01 0.  1.
         13    1    6    6    0    0 -0.66825421301E+02 -0.13903417828E+03 -0.94532931245E+02  0.18092157072E+03  0.00000000000E+00 0. -1.
        -14    1    6    6    0    0  0.63925772103E+01 -0.69674739822E+02 -0.96561831678E+02  0.11924605549E+03  0.00000000000E+00 0.  1.
</event>
<event>
12    1  0.1035051E+000  0.1828502E+03  0.7818608E-02  0.1165718E+00
         21   -1    0    0  501  502  0.00000000000E+00  0.00000000000E+00  0.15734051246E+04  0.15734051246E+04  0.00000000000E+00 0. -1.
         21   -1    0    0  502  503 -0.00000000000E+00 -0.00000000000E+00 -0.42386893935E+02  0.42386893935E+02  0.00000000000E+00 0. -1.
         -6    2    1    2    0  503 -0.47331469617E+02 -0.41352354675E+02  0.13430336947E+04  0.13554238020E+04  0.17170874445E+03 0.  0.
        -24    2    3    3    0    0 -0.57419010143E+02  0.23749737651E+02  0.10437254670E+04  0.10489151626E+04  0.83661073105E+02 0.  0.
          6    2    1    2  501    0  0.47331469617E+02  0.41352354675E+02  0.18798453597E+03  0.26036821645E+03  0.16882872125E+03 0.  0.
         24    2    5    5    0    0 -0.64364058349E+01  0.26008080382E+02  0.18536593293E+03  0.20419546268E+03  0.81347466598E+02 0.  0.
          5    1    5    5  501    0  0.53767875451E+02  0.15344274294E+02  0.26186030385E+01  0.56172753769E+02  0.47000000000E+01 0. -1.
        -11    1    6    6    0    0 -0.22475680961E+02  0.27404827994E+02  0.25847338686E+02  0.43866453574E+02  0.00000000000E+00 0.  1.
         12    1    6    6    0    0  0.16039275126E+02 -0.13967476122E+01  0.15951859424E+03  0.16032900910E+03  0.00000000000E+00 0. -1.
         -5    1    3    3    0  503  0.10087540526E+02 -0.65102092326E+02  0.29930822768E+03  0.30650863944E+03  0.47000000000E+01 0.  1.
         11    1    4    4    0    0  0.10358731968E+01 -0.22007009877E+02  0.45423920945E+03  0.45477317524E+03  0.00000000000E+00 0. -1.
        -12    1    4    4    0    0 -0.58454883339E+02  0.45756747528E+02  0.58948625753E+03  0.59414198736E+03  0.00000000000E+00 0.  1.
</event>
<event>
12    1  0.1035051E+000  0.3094535E+03  0.7818608E-02  0.1080843E+00
         21   -1    0    0  503  502  0.00000000000E+00  0.00000000000E+00  0.50194328801E+03  0.50194328801E+03  0.00000000000E+00 0. -1.
         21   -1    0    0  501  503 -0.00000000000E+00 -0.00000000000E+00 -0.19751185143E+03  0.19751185143E+03  0.00000000000E+00 0.  1.
          6    2    1    2  501    0  0.20695459093E+03 -0.15472960118E+03  0.22182657813E+03  0.37916620412E+03  0.16669891239E+03 0.  0.
         24    2    3    3    0    0  0.20516141112E+03 -0.15714580455E+03  0.15313766533E+03  0.31025096433E+03  0.77579042446E+02 0.  0.
         -6    2    1    2    0  502 -0.20695459093E+03  0.15472960118E+03  0.82604858448E+02  0.32028893533E+03  0.17026446272E+03 0.  0.
        -24    2    5    5    0    0 -0.18383890006E+03  0.63737754770E+02  0.82734693416E+02  0.22628915802E+03  0.80638148441E+02 0.  0.
          5    1    3    3  501    0  0.17931798149E+01  0.24162033741E+01  0.68688912804E+02  0.68915239786E+02  0.47000000000E+01 0. -1.
        -11    1    4    4    0    0  0.37250580745E+02 -0.66078626851E+02  0.23553091716E+02  0.79427569658E+02  0.00000000000E+00 0.  1.
         12    1    4    4    0    0  0.16791083037E+03 -0.91067177701E+02  0.12958457361E+03  0.23082339467E+03  0.00000000000E+00 0. -1.
         -5    1    5    5    0  502 -0.23115690874E+02  0.90991846408E+02 -0.12983496869E+00  0.93999777311E+02  0.47000000000E+01 0.  1.
         13    1    6    6    0    0 -0.17553189648E+03  0.56247453641E+02  0.48966848687E+02  0.19071700238E+03  0.00000000000E+00 0. -1.
        -14    1    6    6    0    0 -0.83070035720E+01  0.74903011294E+01  0.33767844729E+02  0.35572155642E+02  0.00000000000E+00 0.  1.
</event>
<event>
12    1  0.1035051E+000  0.2019042E+03  0.7818608E-02  0.1148315E+00
         21   -1    0    0  503  502  0.00000000000E+00  0.00000000000E+00  0.44573569799E+03  0.44573569799E+03  0.00000000000E+00 0.  1.
         21   -1    0    0  501  503 -0.00000000000E+00 -0.00000000000E+00 -0.28590612659E+03  0.28590612659E+03  0.00000000000E+00 0.  1.
          6    2    1    2  501    0 -0.82168701610E+02 -0.72060283287E+02  0.38194731708E+03  0.43202900227E+03  0.16976726959E+03 0.  0.
         24    2    3    3    0    0  0.21696451449E+02 -0.33641296981E+02  0.19753192366E+03  0.21686600391E+03  0.80059539860E+02 0.  0.
         -6    2    1    2    0  502  0.82168701610E+02  0.72060283287E+02 -0.22211774569E+03  0.29961282231E+03  0.16878142786E+03 0.  0.
        -24    2    5    5    0    0  0.10954791382E+03  0.65559947184E+02 -0.22603751263E+03  0.27081472856E+03  0.77128516058E+02 0.  0.
          5    1    3    3  501    0 -0.10386515306E+03 -0.38418986306E+02  0.18441539343E+03  0.21516299836E+03  0.47000000000E+01 0. -1.
        -11    1    4    4    0    0  0.19653829527E+02  0.23934268997E+02  0.84543804695E+02  0.90037643016E+02  0.00000000000E+00 0.  1.
         12    1    4    4    0    0  0.20426219222E+01 -0.57575565978E+02  0.11298811896E+03  0.12682836090E+03  0.00000000000E+00 0. -1.
         -5    1    5    5    0  502 -0.27379212209E+02  0.65003361026E+01  0.39197669452E+01  0.28798093748E+02  0.47000000000E+01 0.  1.
         11    1    6    6    0    0  0.80727636847E+01  0.32984718360E+02 -0.21544315546E+02  0.40215900974E+02  0.00000000000E+00 0. -1.
        -12    1    6    6    0    0  0.10147515013E+03  0.32575228824E+02 -0.20449319709E+03  0.23059882758E+03  0.00000000000E+00 0.  1.
</event>
<event>
12    1  0.1035051E+000  0.2048684E+03  0.7818608E-02  0.1146108E+00
         21   -1    0    0  501  502  0.00000000000E+00  0.00000000000E+00  0.60116648469E+03  0.60116648469E+03  0.00000000000E+00 0.  1.
         21   -1    0    0  502  503 -0.00000000000E+00 -0.00000000000E+00 -0.69230231985E+02  0.69230231985E+02  0.00000000000E+00 0.  1.
         -6    2    1    2    0  503  0.80676919734E+02  0.72097000741E+02  0.27719293332E+03  0.34349427596E+03  0.17159735559E+03 0.  0.
        -24    2    3    3    0    0  0.47110169592E+02  0.10832183502E+03  0.15134943325E+03  0.20822549966E+03  0.80611536040E+02 0.  0.
          6    2    1    2  501    0 -0.80676919734E+02 -0.72097000741E+02  0.25474331939E+03  0.32690244071E+03  0.17396638778E+03 0.  0.
         24    2    5    5    0    0 -0.39440643582E+02 -0.45058308175E+01  0.22531941018E+03  0.24230425423E+03  0.79791278576E+02 0.  0.
          5    1    5    5  501    0 -0.41236276152E+02 -0.67591169924E+02  0.29423909205E+02  0.84598186479E+02  0.47000000000E+01 0. -1.
        -13    1    6    6    0    0 -0.71589298335E+01  0.36274847428E+02  0.87109897077E+02  0.94632177408E+02  0.00000000000E+00 0.  1.
         14    1    6    6    0    0 -0.32281713748E+02 -0.40780678246E+02  0.13820951310E+03  0.14767207682E+03  0.00000000000E+00 0. -1.
         -5    1    3    3    0  503  0.33566750143E+02 -0.36224834275E+02  0.12584350007E+03  0.13526877631E+03  0.47000000000E+01 0.  1.
         11    1    4    4    0    0 -0.91417136665E+01  0.77026080139E+02  0.69950057353E+02  0.10444902333E+03  0.00000000000E+00 0. -1.
        -12    1    4    4    0    0  0.56251883258E+02  0.31295754878E+02  0.81399375892E+02  0.10377647633E+03  0.00000000000E+00 0.  1.
</event>
<event>
12    1  0.1035051E+000  0.3992964E+03  0.7818608E-02  0.1044047E+00
         21   -1    0    0  503  502  0.00000000000E+00  0.00000000000E+00  0.36779004705E+03  0.36779004705E+03  0.00000000000E+00 0. -1.
         21   -1    0    0  501  503 -0.00000000000E+00 -0.00000000000E+00 -0.43635184812E+03  0.43635184812E+03  0.00000000000E+00 0. -1.
          6    2    1    2  501    0  0.36028499020E+03 -0.93839399094E+01 -0.14857823151E+00  0.39902714692E+03  0.17125801999E+03 0.  0.
         24    2    3    3    0    0  0.20499903189E+03  0.43739095490E+02  0.45121110779E+02  0.22871208451E+03  0.79596428405E+02 0.  0.
         -6    2    1    2    0  502 -0.36028499020E+03  0.93839399094E+01 -0.68413222839E+02  0.40511474826E+03  0.17188443124E+03 0.  0.
        -24    2    5    5    0    0 -0.23320776341E+03  0.63912871487E+02 -0.82911406743E+01  0.25425461200E+03  0.78140569821E+02 0.  0.
          5    1    3    3  501    0  0.15528595832E+03 -0.53123035399E+02 -0.45269689011E+02  0.17031506241E+03  0.47000000000E+01 0. -1.
        -11    1    4    4    0    0  0.59871910779E+02 -0.16926972679E+02  0.34292107926E+02  0.71043062789E+02  0.00000000000E+00 0.  1.
         12    1    4    4    0    0  0.14512712111E+03  0.60666068169E+02  0.10829002853E+02  0.15766902172E+03  0.00000000000E+00 0. -1.
         -5    1    5    5    0  502 -0.12707722679E+03 -0.54528931577E+02 -0.60122082165E+02  0.15086013626E+03  0.47000000000E+01 0.  1.
         11    1    6    6    0    0 -0.21391881880E+03  0.31643440393E+02 -0.28297737059E+01  0.21626505953E+03  0.00000000000E+00 0. -1.
        -12    1    6    6    0    0 -0.19288944615E+02  0.32269431094E+02 -0.54613669684E+01  0.37989552467E+02  0.00000000000E+00 0.  1.
</event>
<event>
12    1  0.1035051E+000  0.2789867E+03  0.7818608E-02  0.1096293E+00
         21   -1    0    0  501  502  0.00000000000E+00  0.00000000000E+00  0.59167467357E+03  0.59167467357E+03  0.00000000000E+00 0. -1.
         21   -1    0    0  502  503 -0.00000000000E+00 -0.00000000000E+00 -0.23562568823E+03  0.23562568823E+03  0.00000000000E+00 0.  1.
         -6    2    1    2    0  503 -0.12549846371E+03  0.17993335458E+03  0.45309915378E+03  0.53191532621E+03  0.17178240485E+03 0.  0.
        -24    2    3    3    0    0 -0.57793848277E+02  0.14351007890E+02  0.16791601165E+03  0.19523603810E+03  0.79845120573E+02 0.  0.
          6    2    1    2  501    0  0.12549846371E+03 -0.17993335458E+03 -0.97050168446E+02  0.29538503559E+03  0.17235923988E+03 0.  0.
         24    2    5    5    0    0  0.12574129621E+03 -0.16532606278E+03 -0.13097954098E+03  0.25814628881E+03  0.79625910764E+02 0.  0.
          5    1    5    5  501    0 -0.24283250259E+00 -0.14607291794E+02  0.33929372531E+02  0.37238746777E+02  0.47000000000E+01 0. -1.
        -11    1    6    6    0    0  0.32865386932E+02 -0.30147161408E+02 -0.70336535695E+02  0.83283931539E+02  0.00000000000E+00 0.  1.
         12    1    6    6    0    0  0.92875909282E+02 -0.13517890138E+03 -0.60643005282E+02  0.17486235728E+03  0.00000000000E+00 0. -1.
         -5    1    3    3    0  503 -0.67704615435E+02  0.16558234669E+03  0.28518314213E+03  0.33667928811E+03  0.47000000000E+01 0.  1.
         13    1    4    4    0    0 -0.43210996141E+02  0.17970900339E+02  0.17312074506E+03  0.17933470332E+03  0.00000000000E+00 0. -1.
        -14    1    4    4    0    0 -0.14582852136E+02 -0.36198924481E+01 -0.52047334125E+01  0.15901334776E+02  0.00000000000E+00 0.  1.
</event>
<event>
12    1  0.1035051E+000  0.1984311E+03  0.7818608E-02  0.1152271E+00
         21   -1    0    0  501  502  0.00000000000E+00  0.00000000000E+00  0.89149277911E+02  0.89149277911E+02  0.00000000000E+00 0.  1.
         21   -1    0    0  502  503 -0.00000000000E+00 -0.00000000000E+00 -0.42992943314E+03  0.42992943314E+03  0.00000000000E+00 0.  1.
         -6    2    1    2    0  503 -0.87557189911E+02  0.75320425636E+01 -0.16370404803E+03  0.25724291904E+03  0.17790983920E+03 0.  0.
        -24    2    3    3    0    0 -0.25968574641E+02 -0.29122974466E+02 -0.16171408398E+03  0.18539030767E+03  0.81826687025E+02 0.  0.
          6    2    1    2  501    0  0.87557189911E+02 -0.75320425636E+01 -0.17707610720E+03  0.26183579201E+03  0.17169461572E+03 0.  0.
         24    2    5    5    0    0 -0.16185765117E+02  0.24916862779E+02 -0.55394109114E+02  0.98605492026E+02  0.75971749289E+02 0.  0.
          5    1    5    5  501    0  0.10374295503E+03 -0.32448905342E+02 -0.12168199808E+03  0.16323029999E+03  0.47000000000E+01 0. -1.
        -13    1    6    6    0    0 -0.20182096022E+02 -0.13887870302E+02 -0.54310616854E+02  0.59580475362E+02  0.00000000000E+00 0.  1.
         14    1    6    6    0    0  0.39963309052E+01  0.38804733080E+02 -0.10834922607E+01  0.39025016664E+02  0.00000000000E+00 0. -1.
         -5    1    3    3    0  503 -0.61588615270E+02  0.36655017029E+02 -0.19899640538E+01  0.71852611374E+02  0.47000000000E+01 0.  1.
         11    1    4    4    0    0 -0.38994525492E+02  0.39232495465E+01 -0.31098118767E+02  0.50030569617E+02  0.00000000000E+00 0. -1.
        -12    1    4    4    0    0  0.13025950851E+02 -0.33046224012E+02 -0.13061596521E+03  0.13535973805E+03  0.00000000000E+00 0.  1.
</event>
<event>
12    1  0.1035051E+000  0.2436165E+03  0.7818608E-02  0.1117438E+00
         21   -1    0    0  501  502  0.00000000000E+00  0.00000000000E+00  0.82029753796E+03  0.82029753796E+03  0.00000000000E+00 0.  1.
         21   -1    0    0  502  503 -0.00000000000E+00 -0.00000000000E+00 -0.72318119327E+02  0.72318119327E+02  0.00000000000E+00 0.  1.
         -6    2    1    2    0  503 -0.17188649297E+03 -0.12206970826E+02  0.36592379537E+03  0.43960121897E+03  0.17220636196E+03 0.  0.
        -24    2    3    3    0    0 -0.72044658847E+02 -0.97058596841E+01  0.72316576981E+02  0.12943684950E+03  0.78990974939E+02 0.  0.
          6    2    1    2  501    0  0.17188649297E+03  0.12206970826E+02  0.38205562327E+03  0.45301443832E+03  0.17193488726E+03 0.  0.
         24    2    5    5    0    0  0.93021160985E+02  0.72166910906E+02  0.18423443720E+03  0.23172221826E+03  0.76758446859E+02 0.  0.
          5    1    5    5  501    0  0.78865331981E+02 -0.59959940079E+02  0.19782118607E+03  0.22129222007E+03  0.47000000000E+01 0. -1.
        -11    1    6    6    0    0  0.70858487681E+02  0.76341336115E+01  0.10818414913E+03  0.12954927787E+03  0.00000000000E+00 0.  1.
         12    1    6    6    0    0  0.22162673305E+02  0.64532777294E+02  0.76050288064E+02  0.10217294039E+03  0.00000000000E+00 0. -1.
         -5    1    3    3    0  503 -0.99841834120E+02 -0.25011111423E+01  0.29360721839E+03  0.31016436947E+03  0.47000000000E+01 0.  1.
         13    1    4    4    0    0 -0.59679205300E+01 -0.34867763305E+02  0.33773921123E+02  0.48908636674E+02  0.00000000000E+00 0. -1.
        -14    1    4    4    0    0 -0.66076738317E+02  0.25161903621E+02  0.38542655858E+02  0.80528212826E+02  0.00000000000E+00 0.  1.
</event>
<event>
12    1  0.1035051E+000  0.3106703E+03  0.7818608E-02  0.1080047E+00
         21   -1    0    0  501  502  0.00000000000E+00  0.00000000000E+00  0.11010237997E+04  0.11010237997E+04  0.00000000000E+00 0. -1.
         21   -1    0    0  502  503 -0.00000000000E+00 -0.00000000000E+00 -0.95634310301E+02  0.95634310301E+02  0.00000000000E+00 0. -1.
         -6    2    1    2    0  503  0.95414699166E+02 -0.24052166559E+03  0.32950606156E+03  0.45286892227E+03  0.17193423079E+03 0.  0.
        -24    2    3    3    0    0  0.71578606421E+02 -0.22228277510E+03  0.19347180827E+03  0.31348375623E+03  0.79420374107E+02 0.  0.
          6    2    1    2  501    0 -0.95414699166E+02  0.24052166559E+03  0.67588342782E+03  0.74378918771E+03  0.17160801648E+03 0.  0.
         24    2    5    5    0    0 -0.82109033891E+02  0.59802819459E+02  0.27620061770E+03  0.30492157581E+03  0.79825531703E+02 0.  0.
          5    1    5    5  501    0 -0.13305665275E+02  0.18071884613E+03  0.39968281012E+03  0.43886761191E+03  0.47000000000E+01 0. -1.
        -11    1    6    6    0    0 -0.91334270167E+02  0.42336998621E+02  0.26176750535E+03  0.28045783500E+03  0.00000000000E+00 0.  1.
         12    1    6    6    0    0  0.92252362762E+01  0.17465820838E+02  0.14433112359E+02  0.24463740807E+02  0.00000000000E+00 0. -1.
         -5    1    3    3    0  503  0.23836092746E+02 -0.18238890490E+02  0.13603425329E+03  0.13938516604E+03  0.47000000000E+01 0. -1.
         11    1    4    4    0    0  0.94940642722E+01 -0.93106015800E+02  0.35268109739E+02  0.10001353408E+03  0.00000000000E+00 0. -1.
        -12    1    4    4    0    0  0.62084542148E+02 -0.12917675930E+03  0.15820369853E+03  0.21347022215E+03  0.00000000000E+00 0.  1.
</event>
<event>
12    1  0.1035051E+000  0.1850445E+03  0.7818608E-02  0.1163419E+00
         21   -1    0    0  503  502  0.00000000000E+00  0.00000000000E+00  0.77640722026E+02  0.77640722026E+02  0.00000000000E+00 0. -1.
         21   -1    0    0  501  503 -0.00000000000E+00 -0.00000000000E+00 -0.51218324248E+03  0.51218324248E+03  0.00000000000E+00 0. -1.
          6    2    1    2  501    0 -0.38900337683E+02  0.52514423005E+02 -0.33124297182E+03  0.37942504713E+03  0.17311978256E+03 0.  0.
         24    2    3    3    0    0 -0.29192857979E+02  0.59213275129E+02 -0.86160256908E+02  0.13401368445E+03  0.78597982430E+02 0.  0.
         -6    2    1    2    0  502  0.38900337683E+02 -0.52514423005E+02 -0.10329954864E+03  0.21039891738E+03  0.17124808551E+03 0.  0.
        -24    2    5    5    0    0 -0.26474673729E+02 -0.35101687325E+02 -0.63421898148E+01  0.92077681285E+02  0.80653823326E+02 0.  0.
          5    1    3    3  501    0 -0.97074797040E+01 -0.66988521244E+01 -0.24508271491E+03  0.24541136267E+03  0.47000000000E+01 0. -1.
        -11    1    4    4    0    0 -0.47196608827E+02  0.29676500968E+02 -0.82022053715E+02  0.99175762614E+02  0.00000000000E+00 0.  1.
         12    1    4    4    0    0  0.18003750848E+02  0.29536774161E+02 -0.41382031926E+01  0.34837921840E+02  0.00000000000E+00 0. -1.
         -5    1    5    5    0  502  0.65375011411E+02 -0.17412735679E+02 -0.96957358820E+02  0.11832123609E+03  0.47000000000E+01 0.  1.
         11    1    6    6    0    0 -0.21155683305E+02  0.27294538259E+01 -0.37258046449E+02  0.42932212609E+02  0.00000000000E+00 0. -1.
        -12    1    6    6    0    0 -0.53189904239E+01 -0.37831141151E+02  0.30915856635E+02  0.49145468676E+02  0.00000000000E+00 0.  1.
</event>
<event>
12    1  0.1035051E+000  0.3265950E+03  0.7818608E-02  0.1072672E+00
         21   -1    0    0  501  502  0.00000000000E+00  0.00000000000E+00  0.80541383708E+02  0.80541383708E+02  0.00000000000E+00 0.  1.
         21   -1    0    0  502  503 -0.00000000000E+00 -0.00000000000E+00 -0.13566432481E+04  0.13566432481E+04  0.00000000000E+00 0.  1.
         -6    2    1    2    0  503  0.21189126931E+03 -0.17924235551E+03 -0.75021100141E+03  0.81821810466E+03  0.17215861333E+03 0.  0.
        -24    2    3    3    0    0  0.17589538120E+03 -0.19071120102E+03 -0.72012711186E+03  0.76969626640E+03  0.80866173070E+02 0.  0.
          6    2    1    2  501    0 -0.21189126931E+03  0.17924235551E+03 -0.52589086298E+03  0.61896652714E+03  0.17185060355E+03 0.  0.
         24    2    5    5    0    0 -0.81542831081E+02  0.13312020579E+03 -0.18140056409E+03  0.24773395304E+03  0.63997846425E+02 0.  0.
          5    1    5    5  501    0 -0.13034843823E+03  0.46122149715E+02 -0.34449029889E+03  0.37123257410E+03  0.47000000000E+01 0. -1.
        -13    1    6    6    0    0 -0.15631942720E+02  0.63749042286E+02 -0.39572334127E+02  0.76643771135E+02  0.00000000000E+00 0.  1.
         14    1    6    6    0    0 -0.65910888361E+02  0.69371163507E+02 -0.14182822996E+03  0.17109018191E+03  0.00000000000E+00 0. -1.
         -5    1    3    3    0  503  0.35995888113E+02  0.11468845509E+02 -0.30083889546E+02  0.48521838264E+02  0.47000000000E+01 0.  1.
         11    1    4    4    0    0  0.12639140924E+02 -0.40399080505E+02 -0.19611322553E+03  0.20062958610E+03  0.00000000000E+00 0. -1.
        -12    1    4    4    0    0  0.16325624027E+03 -0.15031212051E+03 -0.52401388633E+03  0.56906668030E+03  0.00000000000E+00 0.  1.
</event>
<event>
12    1  0.1035051E+000  0.2128449E+03  0.7818608E-02  0.1139544E+00
         21   -1    0    0  501  502  0.00000000000E+00  0.00000000000E+00  0.28066570427E+03  0.28066570427E+03  0.00000000000E+00 0. -1.
         21   -1    0    0  502  503 -0.00000000000E+00 -0.00000000000E+00 -0.18733784575E+03  0.18733784575E+03  0.00000000000E+00 0. -1.
         -6    2    1    2    0  503  0.12157946525E+03  0.24180902433E+02 -0.41856487897E+02  0.21585728293E+03  0.17168610487E+03 0.  0.
        -24    2    3    3    0    0  0.10128218878E+03 -0.40480891632E+02 -0.56076211638E+02  0.14644966385E+03  0.80038604303E+02 0.  0.
          6    2    1    2  501    0 -0.12157946525E+03 -0.24180902433E+02  0.13518434642E+03  0.25214626709E+03  0.17302210863E+03 0.  0.
         24    2    5    5    0    0 -0.39712134439E+02  0.41790739022E+02  0.17637264887E+02  0.94368183348E+02  0.72600009821E+02 0.  0.
          5    1    5    5  501    0 -0.81867330811E+02 -0.65971641456E+02  0.11754708154E+03  0.15777808374E+03  0.47000000000E+01 0. -1.
        -13    1    6    6    0    0 -0.40570976658E+02 -0.86640703973E+01  0.19807413005E+01  0.41533042255E+02  0.00000000000E+00 0.  1.
         14    1    6    6    0    0  0.85884221980E+00  0.50454809420E+02  0.15656523586E+02  0.52835141093E+02  0.00000000000E+00 0. -1.
         -5    1    3    3    0  503  0.20297276472E+02  0.64661794065E+02  0.14219723741E+02  0.69407619086E+02  0.47000000000E+01 0.  1.
         11    1    4    4    0    0  0.93345080334E+02 -0.59994908409E+02 -0.34280547190E+02  0.11613719892E+03  0.00000000000E+00 0. -1.
        -12    1    4    4    0    0  0.79371084434E+01  0.19514016778E+02 -0.21795664448E+02  0.30312464927E+02  0.00000000000E+00 0.  1.
</event>
<event>
12    1  0.1035051E+000  0.2265846E+03  0.7818608E-02  0.1129130E+00
         21   -1    0    0  501  502  0.00000000000E+00  0.00000000000E+00  0.87583262501E+02  0.87583262501E+02  0.00000000000E+00 0. -1.
         21   -1    0    0  502  503 -0.00000000000E+00 -0.00000000000E+00 -0.65344745405E+03  0.65344745405E+03  0.00000000000E+00 0. -1.
         -6    2    1    2    0  503 -0.14731229156E+03  0.35661558120E+01 -0.16346134717E+03  0.27939256722E+03  0.17212485552E+03 0.  0.
        -24    2    3    3    0    0 -0.11203920173E+03 -0.61047223109E+02 -0.13411958183E+03  0.20000674484E+03  0.75730374212E+02 0.  0.
          6    2    1    2  501    0  0.14731229156E+03 -0.35661558120E+01 -0.40240284438E+03  0.46163814933E+03  0.17166275962E+03 0.  0.
         24    2    5    5    0    0  0.83677037830E+02  0.40230205601E+02 -0.12761469925E+03  0.17615928585E+03  0.78270469681E+02 0.  0.
          5    1    5    5  501    0  0.63635253726E+02 -0.43796361413E+02 -0.27478814513E+03  0.28547886348E+03  0.47000000000E+01 0. -1.
        -13    1    6    6    0    0  0.57931260591E+02 -0.15560967420E+02 -0.63887630926E+02  0.87634491189E+02  0.00000000000E+00 0.  1.
         14    1    6    6    0    0  0.25745777239E+02  0.55791173020E+02 -0.63727068326E+02  0.88524794663E+02  0.00000000000E+00 0. -1.
         -5    1    3    3    0  503 -0.35273089823E+02  0.64613378921E+02 -0.29341765341E+02  0.79385822377E+02  0.47000000000E+01 0.  1.
         11    1    4    4    0    0 -0.77560730773E+01 -0.38553992581E+02 -0.21255266940E+02  0.44702946057E+02  0.00000000000E+00 0. -1.
        -12    1    4    4    0    0 -0.10428312866E+03 -0.22493230528E+02 -0.11286431489E+03  0.15530379878E+03  0.00000000000E+00 0.  1.
</event>
<event>
12    1  0.1035051E+000  0.2123123E+03  0.7818608E-02  0.1140078E+00
         21   -1    0    0  501  502  0.00000000000E+00  0.00000000000E+00  0.88610347978E+02  0.88610347978E+02  0.00000000000E+00 0.  1.
         21   -1    0    0  502  503 -0.00000000000E+00 -0.00000000000E+00 -0.50739703464E+03  0.50739703464E+03  0.00000000000E+00 0.  1.
         -6    2    1    2    0  503  0.92475810050E+02 -0.82203246059E+02 -0.18841505101E+03  0.28386044610E+03  0.17253223556E+03 0.  0.
        -24    2    3    3    0    0  0.89673399408E+02 -0.83427501444E+02 -0.21295000596E+03  0.25869288124E+03  0.81073023915E+02 0.  0.
          6    2    1    2  501    0 -0.92475810050E+02  0.82203246059E+02 -0.23037163566E+03  0.31214693652E+03  0.17045665242E+03 0.  0.
         24    2    5    5    0    0  0.83918685575E+01  0.65261321458E+01 -0.12047489538E+03  0.14481284650E+03  0.79646382443E+02 0.  0.
          5    1    5    5  501    0 -0.10086767861E+03  0.75677113913E+02 -0.10989674028E+03  0.16733409002E+03  0.47000000000E+01 0. -1.
        -11    1    6    6    0    0 -0.29633973101E+02  0.19426926504E+02 -0.81426756978E+02  0.88802559575E+02  0.00000000000E+00 0.  1.
         12    1    6    6    0    0  0.38025841658E+02 -0.12900794358E+02 -0.39048138405E+02  0.56010286928E+02  0.00000000000E+00 0. -1.
         -5    1    3    3    0  503  0.28024106420E+01  0.12242553854E+01  0.24534954953E+02  0.25167564864E+02  0.47000000000E+01 0.  1.
         11    1    4    4    0    0 -0.10389485054E+02 -0.30569869797E+02 -0.63440362554E+02  0.71183832014E+02  0.00000000000E+00 0. -1.
        -12    1    4    4    0    0  0.10006288446E+03 -0.52857631647E+02 -0.14950964340E+03  0.18750904922E+03  0.00000000000E+00 0.  1.
</event>
<event>
12    1  0.1035051E+000  0.1782996E+03  0.7818608E-02  0.1169650E+00
         21   -1    0    0  503  502  0.00000000000E+00  0.00000000000E+00  0.41070313025E+02  0.41070313025E+02  0.00000000000E+00 0. -1.
         21   -1    0    0  501  503 -0.00000000000E+00 -0.00000000000E+00 -0.80521907030E+03  0.80521907030E+03  0.00000000000E+00 0. -1.
          6    2    1    2  501    0  0.17300752191E+02 -0.42261910879E+02 -0.29524386271E+03  0.34490531202E+03  0.17235240251E+03 0.  0.
         24    2    3    3    0    0  0.62730552108E+02 -0.70031636198E+00 -0.11311522811E+03  0.15259264369E+03  0.80955836513E+02 0.  0.
         -6    2    1    2    0  502 -0.17300752191E+02  0.42261910879E+02 -0.46890489456E+03  0.50138407130E+03  0.17154824883E+03 0.  0.
        -24    2    5    5    0    0 -0.61658838593E+02 -0.49707070056E+01 -0.36017003281E+03  0.37471947411E+03  0.82859588715E+02 0.  0.
          5    1    3    3  501    0 -0.45429799918E+02 -0.41561594517E+02 -0.18212863460E+03  0.19231266833E+03  0.47000000000E+01 0. -1.
        -13    1    4    4    0    0  0.48793863785E+02  0.27355230666E+01 -0.11812216958E+02  0.50277755508E+02  0.00000000000E+00 0.  1.
         14    1    4    4    0    0  0.13936688324E+02 -0.34358394286E+01 -0.10130301115E+03  0.10231488818E+03  0.00000000000E+00 0. -1.
         -5    1    5    5    0  502  0.44358086402E+02  0.47232617885E+02 -0.10873486175E+03  0.12666459719E+03  0.47000000000E+01 0.  1.
         13    1    6    6    0    0  0.27185125499E+01 -0.28733892642E+02 -0.57129916040E+02  0.64006673118E+02  0.00000000000E+00 0. -1.
        -14    1    6    6    0    0 -0.64377351142E+02  0.23763185636E+02 -0.30304011677E+03  0.31071280100E+03  0.00000000000E+00 0.  1.
</event>
<event>
12    1  0.1035051E+000  0.2080287E+03  0.7818608E-02  0.1143148E+00
         21   -1    0    0  503  502  0.00000000000E+00  0.00000000000E+00  0.62103230155E+02  0.62103230155E+02  0.00000000000E+00 0.  1.
         21   -1    0    0  501  503 -0.00000000000E+00 -0.00000000000E+00 -0.75472365360E+03  0.75472365360E+03  0.00000000000E+00 0.  1.
          6    2    1    2  501    0  0.98428509429E+02 -0.63385137384E+02 -0.23297965415E+03  0.31230179416E+03  0.17189253701E+03 0.  0.
         24    2    3    3    0    0  0.12170808133E+03 -0.62247870451E+01 -0.17355265496E+03  0.22649443811E+03  0.79546221911E+02 0.  0.
         -6    2    1    2    0  502 -0.98428509429E+02  0.63385137384E+02 -0.45964076930E+03  0.50452508959E+03  0.17195953629E+03 0.  0.
        -24    2    5    5    0    0 -0.11845163322E+02  0.52083274279E+02 -0.12049428164E+03  0.15428683065E+03  0.80203359358E+02 0.  0.
          5    1    3    3  501    0 -0.23279571899E+02 -0.57160350339E+02 -0.59426999191E+02  0.85807356046E+02  0.47000000000E+01 0. -1.
        -11    1    4    4    0    0  0.95529138383E+01 -0.21766257455E+02 -0.66701744500E+02  0.70810669011E+02  0.00000000000E+00 0.  1.
         12    1    4    4    0    0  0.11215516749E+03  0.15541470410E+02 -0.10685091045E+03  0.15568376910E+03  0.00000000000E+00 0. -1.
         -5    1    5    5    0  502 -0.86583346106E+02  0.11301863105E+02 -0.33914648766E+03  0.35023825894E+03  0.47000000000E+01 0.  1.
         13    1    6    6    0    0 -0.20307159975E+02  0.38504881393E+02 -0.12901416537E+03  0.13616042562E+03  0.00000000000E+00 0. -1.
        -14    1    6    6    0    0  0.84619966525E+01  0.13578392886E+02  0.85198837355E+01  0.18126405038E+02  0.00000000000E+00 0.  1.
</event>
<event>
12    1  0.1035051E+000  0.1927058E+03  0.7818608E-02  0.1156160E+00
         21   -1    0    0  503  502  0.00000000000E+00  0.00000000000E+00  0.13142752701E+03  0.13142752701E+03  0.00000000000E+00 0.  1.
         21   -1    0    0  501  503 -0.00000000000E+00 -0.00000000000E+00 -0.28794286113E+03  0.28794286113E+03  0.00000000000E+00 0.  1.
          6    2    1    2  501    0 -0.83206495497E+02 -0.23591282854E+02 -0.47478401750E+02  0.19795540151E+03  0.17161664499E+03 0.  0.
         24    2    3    3    0    0 -0.28348305116E+02  0.42104684056E+02 -0.49496861131E+02  0.11221424863E+03  0.86980845653E+02 0.  0.
         -6    2    1    2    0  502  0.83206495497E+02  0.23591282854E+02 -0.10903693237E+03  0.22141498663E+03  0.17220822908E+03 0.  0.
        -24    2    5    5    0    0 -0.10145436994E+02 -0.14784748515E+02 -0.14037305226E+02  0.82727127606E+02  0.79531207858E+02 0.  0.
          5    1    3    3  501    0 -0.54858190381E+02 -0.65695966910E+02  0.20184593810E+01  0.85741152887E+02  0.47000000000E+01 0. -1.
        -11    1    4    4    0    0 -0.51002746904E+02 -0.18242570000E+01 -0.29062846742E+02  0.58730376860E+02  0.00000000000E+00 0.  1.
         12    1    4    4    0    0  0.22654441788E+02  0.43928941056E+02 -0.20434014389E+02  0.53483871766E+02  0.00000000000E+00 0. -1.
         -5    1    5    5    0  502  0.93351932491E+02  0.38376031369E+02 -0.94999627142E+02  0.13868785902E+03  0.47000000000E+01 0.  1.
         13    1    6    6    0    0  0.17489129529E+01  0.84391564972E+01 -0.42935625030E+02  0.43792076402E+02  0.00000000000E+00 0. -1.
        -14    1    6    6    0    0 -0.11894349947E+02 -0.23223905012E+02  0.28898319804E+02  0.38935051203E+02  0.00000000000E+00 0.  1.
</event>
<event>
12    1  0.1035051E+000  0.2158649E+03  0.7818608E-02  0.1137045E+00
         21   -1    0    0  503  502  0.00000000000E+00  0.00000000000E+00  0.21507972396E+04  0.21507972396E+04  0.00000000000E+00 0.  1.
         21   -1    0    0  501  503 -0.00000000000E+00 -0.00000000000E+00 -0.38772483273E+02  0.38772483273E+02  0.00000000000E+00 0. -1.
          6    2    1    2  501    0 -0.42424032183E+01 -0.12795670905E+03  0.17839719940E+04  0.17969846182E+04  0.17380082149E+03 0.  0.
         24    2    3    3    0    0 -0.51338807582E+02 -0.17081467760E+02  0.86198605555E+03  0.86715046578E+03  0.77475935867E+02 0.  0.
         -6    2    1    2    0  502  0.42424032183E+01  0.12795670905E+03  0.32805276233E+03  0.39258510461E+03  0.17353251024E+03 0.  0.
        -24    2    5    5    0    0  0.43481635514E+02  0.10377732355E+03  0.11960302855E+03  0.17904882771E+03  0.71366748267E+02 0.  0.
          5    1    3    3  501    0  0.47096404364E+02 -0.11087524129E+03  0.92198593842E+03  0.92983415246E+03  0.47000000000E+01 0. -1.
        -11    1    4    4    0    0 -0.17096904060E+02 -0.27992256376E+02  0.71794251528E+03  0.71869139817E+03  0.00000000000E+00 0.  1.
         12    1    4    4    0    0 -0.34241903523E+02  0.10910788616E+02  0.14404354027E+03  0.14845906762E+03  0.00000000000E+00 0. -1.
         -5    1    5    5    0  502 -0.39239232296E+02  0.24179385505E+02  0.20844973379E+03  0.21353627689E+03  0.47000000000E+01 0.  1.
         13    1    6    6    0    0  0.10789828056E+02  0.47106007685E+02  0.70157839830E+01  0.48832546261E+02  0.00000000000E+00 0. -1.
        -14    1    6    6    0    0  0.32691807458E+02  0.56671315862E+02  0.11258724457E+03  0.13021628145E+03  0.00000000000E+00 0.  1.
</event>
<event>
12    1  0.1035051E+000  0.2276641E+03  0.7818608E-02  0.1128489E+00
         21   -1    0    0  503  502  0.00000000000E+00  0.00000000000E+00  0.93925510737E+02  0.93925510737E+02  0.00000000000E+00 0.  1.
         21   -1    0    0  501  503 -0.00000000000E+00 -0.00000000000E+00 -0.55782917992E+03  0.55782917992E+03  0.00000000000E+00 0.  1.
          6    2    1    2  501    0  0.67796874306E+02 -0.13179682347E+03 -0.19196473821E+03  0.29779425912E+03  0.17281244517E+03 0.  0.
         24    2    3    3    0    0 -0.28177346408E+01 -0.74995508774E+02 -0.32449897032E+02  0.11427345129E+03  0.79832073055E+02 0.  0.
         -6    2    1    2    0  502 -0.67796874306E+02  0.13179682347E+03 -0.27193893097E+03  0.35396043154E+03  0.17137790428E+03 0.  0.
        -24    2    5    5    0    0 -0.11686103383E+02  0.12659009163E+03 -0.25009101216E+03  0.29333906380E+03  0.85677743189E+02 0.  0.
          5    1    3    3  501    0  0.70614608947E+02 -0.56801314691E+02 -0.15951484118E+03  0.18352080782E+03  0.47000000000E+01 0. -1.
        -11    1    4    4    0    0 -0.19739861640E+02  0.95066146435E+01 -0.14415629954E+02  0.26226861164E+02  0.00000000000E+00 0.  1.
         12    1    4    4    0    0  0.16922126999E+02 -0.84502123418E+02 -0.18034267077E+02  0.88046590129E+02  0.00000000000E+00 0. -1.
         -5    1    5    5    0  502 -0.56110770923E+02  0.52067318362E+01 -0.21847918809E+02  0.60621367737E+02  0.47000000000E+01 0.  1.
         13    1    6    6    0    0 -0.39929703584E+02  0.30622779032E+02 -0.11234650017E+03  0.12310106387E+03  0.00000000000E+00 0. -1.
        -14    1    6    6    0    0  0.28243600201E+02  0.95967312597E+02 -0.13774451198E+03  0.17023799993E+03  0.00000000000E+00 0.  1.
</event>
<event>
12    1  0.1035051E+000  0.2219287E+03  0.7818608E-02  0.1132565E+00
         21   -1    0    0  503  502  0.00000000000E+00  0.00000000000E+00  0.18427366905E+03  0.18427366905E+03  0.00000000000E+00 0.  1.
         21   -1    0    0  501  503 -0.00000000000E+00 -0.00000000000E+00 -0.27603446689E+03  0.27603446689E+03  0.00000000000E+00 0. -1.
          6    2    1    2  501    0 -0.20436543176E+02  0.13921232233E+03 -0.88484187837E+02  0.23835528247E+03  0.17083929935E+03 0.  0.
         24    2    3    3    0    0 -0.76266431554E+01  0.13398804729E+03 -0.12445295586E+03  0.19953223698E+03  0.79458246076E+02 0.  0.
         -6    2    1    2    0  502  0.20436543176E+02 -0.13921232233E+03 -0.32766099988E+01  0.22195285346E+03  0.17162345412E+03 0.  0.
        -24    2    5    5    0    0  0.59249132171E+02 -0.29502556510E+02 -0.78406322983E+01  0.10539569976E+03  0.81645070331E+02 0.  0.
          5    1    3    3  501    0 -0.12809900021E+02  0.52242750335E+01  0.35968768022E+02  0.38823045491E+02  0.47000000000E+01 0. -1.
        -13    1    4    4    0    0 -0.88377570854E+01  0.87119114343E+02 -0.27408231688E+02  0.91755420540E+02  0.00000000000E+00 0.  1.
         14    1    4    4    0    0  0.12111139300E+01  0.46868932952E+02 -0.97044724171E+02  0.10777681644E+03  0.00000000000E+00 0. -1.
         -5    1    5    5    0  502 -0.38812588994E+02 -0.10970976582E+03  0.45640222994E+01  0.11655715371E+03  0.47000000000E+01 0.  1.
         11    1    6    6    0    0  0.58329944786E+01 -0.41243220628E+02 -0.24372907567E+02  0.48260394690E+02  0.00000000000E+00 0. -1.
        -12    1    6    6    0    0  0.53416137692E+02  0.11740664118E+02  0.16532275268E+02  0.57135305070E+02  0.00000000000E+00 0.  1.
</event>
<event>
12    1  0.1035051E+000  0.3240792E+03  0.7818608E-02  0.1073966E+00
         21   -1    0    0  503  502  0.00000000000E+00  0.00000000000E+00  0.34183352737E+03  0.34183352737E+03  0.00000000000E+00 0.  1.
         21   -1    0    0  501  503 -0.00000000000E+00 -0.00000000000E+00 -0.34094836814E+03  0.34094836814E+03  0.00000000000E+00 0.  1.
          6    2    1    2  501    0 -0.20485522783E+03 -0.18193696248E+03 -0.10923931736E+03  0.34199499338E+03  0.17309137575E+03 0.  0.
         24    2    3    3    0    0 -0.15891716720E+03 -0.13286707987E+03 -0.14589787980E+03  0.26528711247E+03  0.78630361644E+02 0.  0.
         -6    2    1    2    0  502  0.20485522783E+03  0.18193696248E+03  0.11012447660E+03  0.34078690213E+03  0.17012227847E+03 0.  0.
        -24    2    5    5    0    0  0.17432951520E+03  0.13109509045E+03  0.13806889459E+03  0.27506251108E+03  0.94971904969E+02 0.  0.
          5    1    3    3  501    0 -0.45938060633E+02 -0.49069882612E+02  0.36658562436E+02  0.76707880913E+02  0.47000000000E+01 0. -1.
        -13    1    4    4    0    0 -0.70819798942E+02 -0.10952595869E+03 -0.86113330863E+02  0.15629102758E+03  0.00000000000E+00 0.  1.
         14    1    4    4    0    0 -0.88097368254E+02 -0.23341121179E+02 -0.59784548934E+02  0.10899608489E+03  0.00000000000E+00 0. -1.
         -5    1    5    5    0  502  0.30525712624E+02  0.50841872023E+02 -0.27944417992E+02  0.65724391050E+02  0.47000000000E+01 0.  1.
         11    1    6    6    0    0  0.14721208038E+03  0.74885431372E+02  0.61408812947E+02  0.17621085877E+03  0.00000000000E+00 0. -1.
        -12    1    6    6    0    0  0.27117434824E+02  0.56209659082E+02  0.76660081644E+02  0.98851652304E+02  0.00000000000E+00 0.  1.
</event>
<event>
12    1  0.1035051E+000  0.3093379E+03  0.7818608E-02  0.1080691E+00
         21   -1    0    0  503  502  0.00000000000E+00  0.00000000000E+00  0.13157093624E+04  0.13157093624E+04  0.00000000000E+00 0.  1.
         21   -1    0    0  501  503 -0.00000000000E+00 -0.00000000000E+00 -0.94123147586E+02  0.94123147586E+02  0.00000000000E+00 0.  1.
          6    2    1    2  501    0  0.24106434456E+02  0.25541798325E+03  0.27447361333E+03  0.41355256390E+03  0.17283082001E+03 0.  0.
         24    2    3    3    0    0  0.48719739830E+02  0.69334546990E+02  0.77343642473E+02  0.14131153933E+03  0.82498603989E+02 0.  0.
         -6    2    1    2    0  502 -0.24106434456E+02 -0.25541798325E+03  0.94711260145E+03  0.99627994605E+03  0.17242965153E+03 0.  0.
        -24    2    5    5    0    0 -0.49711993099E+01 -0.26858849326E+03  0.80750199764E+03  0.85467192984E+03  0.78994556375E+02 0.  0.
          5    1    3    3  501    0 -0.24613305374E+02  0.18608343626E+03  0.19712997086E+03  0.27224102458E+03  0.47000000000E+01 0. -1.
        -13    1    4    4    0    0 -0.23452002270E+02  0.18719413480E+02  0.17046614360E+02  0.34510866588E+02  0.00000000000E+00 0.  1.
         14    1    4    4    0    0  0.72171742100E+02  0.50615133511E+02  0.60297028114E+02  0.10680067274E+03  0.00000000000E+00 0. -1.
         -5    1    5    5    0  502 -0.19135235146E+02  0.13170510006E+02  0.13961060381E+03  0.14160801621E+03  0.47000000000E+01 0.  1.
         11    1    6    6    0    0  0.32088161314E+02 -0.60653168616E+02  0.18515687900E+03  0.19746272256E+03  0.00000000000E+00 0. -1.
        -12    1    6    6    0    0 -0.37059360624E+02 -0.20793532464E+03  0.62234511864E+03  0.65720920728E+03  0.00000000000E+00 0.  1.
</event>
<event>
12    1  0.1035051E+000  0.2492588E+03  0.7818608E-02  0.1113802E+00
         21   -1    0    0  503  502  0.00000000000E+00  0.00000000000E+00  0.30142252352E+03  0.30142252352E+03  0.00000000000E+00 0.  1.
         21   -1    0    0  501  503 -0.00000000000E+00 -0.00000000000E+00 -0.56557840902E+03  0.56557840902E+03  0.00000000000E+00 0.  1.
          6    2    1    2  501    0 -0.14117991149E+03 -0.11276742451E+03  0.21360222078E+03  0.32812920748E+03  0.17144855976E+03 0.  0.
         24    2    3    3    0    0 -0.95382424275E+01 -0.71194391028E+02  0.10417904281E+03  0.15190954903E+03  0.84045337434E+02 0.  0.
         -6    2    1    2    0  502  0.14117991149E+03  0.11276742451E+03 -0.47775810628E+03  0.53887172505E+03  0.17170226702E+03 0.  0.
        -24    2    5    5    0    0  0.16937869616E+03  0.81767594706E+02 -0.35699514830E+03  0.41095791452E+03  0.77883177517E+02 0.  0.
          5    1    3    3  501    0 -0.13164166906E+03 -0.41573033482E+02  0.10942317797E+03  0.17621965845E+03  0.47000000000E+01 0. -1.
        -11    1    4    4    0    0 -0.30992207589E+02 -0.53587005747E+02  0.22868624510E+02  0.65992864032E+02  0.00000000000E+00 0.  1.
         12    1    4    4    0    0  0.21453965161E+02 -0.17607385281E+02  0.81310418301E+02  0.85916685003E+02  0.00000000000E+00 0. -1.
         -5    1    5    5    0  502 -0.28198784663E+02  0.30999829804E+02 -0.12076295798E+03  0.12791381053E+03  0.47000000000E+01 0.  1.
         11    1    6    6    0    0  0.98503167790E+02  0.56475290268E+02 -0.28511199977E+03  0.30688953206E+03  0.00000000000E+00 0. -1.
        -12    1    6    6    0    0  0.70875528365E+02  0.25292304438E+02 -0.71883148531E+02  0.10406838246E+03  0.00000000000E+00 0.  1.
</event>
<event>
12    1  0.1035051E+000  0.3311728E+03  0.7818608E-02  0.1070895E+00
         21   -1    0    0  501  502  0.00000000000E+00  0.00000000000E+00  0.17970698709E+03  0.17970698709E+03  0.00000000000E+00 0.  1.
         21   -1    0    0  502  503 -0.00000000000E+00 -0.00000000000E+00 -0.90915023972E+03  0.90915023972E+03  0.00000000000E+00 0.  1.
         -6    2    1    2    0  503  0.10377002277E+03 -0.26000388149E+03 -0.67832651438E+03  0.75376269830E+03  0.17222400884E+03 0.  0.
        -24    2    3    3    0    0  0.92007780952E+02 -0.23283890104E+03 -0.67403242636E+03  0.72348373386E+03  0.80184884951E+02 0.  0.
          6    2    1    2  501    0 -0.10377002277E+03  0.26000388149E+03 -0.51116738259E+02  0.33509452851E+03  0.17693271628E+03 0.  0.
         24    2    5    5    0    0 -0.45026925159E+02  0.13518732584E+03  0.42516105251E+02  0.16830387090E+03  0.78838675138E+02 0.  0.
          5    1    5    5  501    0 -0.58743097615E+02  0.12481655565E+03 -0.93632843510E+02  0.16679065761E+03  0.47000000000E+01 0. -1.
        -11    1    6    6    0    0 -0.45297519206E+02  0.24255396647E+02  0.19824938319E+02  0.55074655624E+02  0.00000000000E+00 0.  1.
         12    1    6    6    0    0  0.27059404754E+00  0.11093192919E+03  0.22691166932E+02  0.11322921528E+03  0.00000000000E+00 0. -1.
         -5    1    3    3    0  503  0.11762241822E+02 -0.27164980455E+02 -0.42940880157E+01  0.30278964442E+02  0.47000000000E+01 0.  1.
         13    1    4    4    0    0  0.21416828470E+02 -0.12973820531E+03 -0.42475570020E+03  0.44464377575E+03  0.00000000000E+00 0. -1.
        -14    1    4    4    0    0  0.70590952482E+02 -0.10310069572E+03 -0.24927672616E+03  0.27883995810E+03  0.00000000000E+00 0.  1.
</event>
<event>
12    1  0.1035051E+000  0.2238010E+03  0.7818608E-02  0.1131186E+00
         21   -1    0    0  501  502  0.00000000000E+00  0.00000000000E+00  0.14924760580E+04  0.14924760580E+04  0.00000000000E+00 0. -1.
         21   -1    0    0  502  503 -0.00000000000E+00 -0.00000000000E+00 -0.33542005189E+02  0.33542005189E+02  0.00000000000E+00 0. -1.
         -6    2    1    2    0  503 -0.54756672614E+02 -0.13231176238E+03  0.76310254311E+03  0.79508140991E+03  0.17124328139E+03 0.  0.
        -24    2    3    3    0    0 -0.35946718472E+00 -0.26620172059E+02  0.15009898692E+03  0.17064148635E+03  0.76681472432E+02 0.  0.
          6    2    1    2  501    0  0.54756672614E+02  0.13231176238E+03  0.69583150970E+03  0.73093665328E+03  0.17199478352E+03 0.  0.
         24    2    5    5    0    0 -0.30841965656E+02  0.76545809566E+02  0.29741509039E+03  0.31960381780E+03  0.82948035265E+02 0.  0.
          5    1    5    5  501    0  0.85598638271E+02  0.55765952813E+02  0.39841641932E+03  0.41133283548E+03  0.47000000000E+01 0. -1.
        -11    1    6    6    0    0 -0.51155933349E+02  0.47704197674E+02  0.12158300037E+03  0.14026776526E+03  0.00000000000E+00 0.  1.
         12    1    6    6    0    0  0.20313967693E+02  0.28841611891E+02  0.17583209002E+03  0.17933605254E+03  0.00000000000E+00 0. -1.
         -5    1    3    3    0  503 -0.54397205430E+02 -0.10569159032E+03  0.61300355619E+03  0.62443992355E+03  0.47000000000E+01 0.  1.
         13    1    4    4    0    0  0.14000513261E+02  0.24383486643E+02  0.48755650917E+02  0.56282166703E+02  0.00000000000E+00 0. -1.
        -14    1    4    4    0    0 -0.14359980445E+02 -0.51003658702E+02  0.10134333600E+03  0.11435931965E+03  0.00000000000E+00 0.  1.
</event>
<event>
12    1  0.1035051E+000  0.2096987E+03  0.7818608E-02  0.1142257E+00
         21   -1    0    0  501  502  0.00000000000E+00  0.00000000000E+00  0.28237503144E+03  0.28237503144E+03  0.00000000000E+00 0. -1.
         21   -1    0    0  502  503 -0.00000000000E+00 -0.00000000000E+00 -0.15669464066E+03  0.15669464066E+03  0.00000000000E+00 0. -1.
         -6    2    1    2    0  503  0.54167232291E+01 -0.11783816394E+03  0.91710548542E+02  0.22887630655E+03  0.17337348475E+03 0.  0.
        -24    2    3    3    0    0 -0.49832543651E+02 -0.31537657462E+02  0.12638708655E+02  0.99359107799E+02  0.78959414266E+02 0.  0.
          6    2    1    2  501    0 -0.54167232291E+01  0.11783816394E+03  0.33969842235E+02  0.21019336555E+03  0.17062276216E+03 0.  0.
         24    2    5    5    0    0  0.25290894730E+02  0.13416803980E+03 -0.76151882927E+01  0.15577804224E+03  0.74619803608E+02 0.  0.
          5    1    5    5  501    0 -0.30707617959E+02 -0.16329875866E+02  0.41585030527E+02  0.54415323306E+02  0.47000000000E+01 0. -1.
        -13    1    6    6    0    0 -0.13557745590E+02  0.65336944770E+02 -0.30680052338E+02  0.73443818180E+02  0.00000000000E+00 0.  1.
         14    1    6    6    0    0  0.38848640321E+02  0.68831095034E+02  0.23064864045E+02  0.82334224061E+02  0.00000000000E+00 0. -1.
         -5    1    3    3    0  503  0.55249266880E+02 -0.86300506475E+02  0.79071839886E+02  0.12951719875E+03  0.47000000000E+01 0.  1.
         13    1    4    4    0    0  0.50475349767E+01  0.85619078165E+01 -0.21213525040E+02  0.23426427799E+02  0.00000000000E+00 0. -1.
        -14    1    4    4    0    0 -0.54880078628E+02 -0.40099565279E+02  0.33852233696E+02  0.75932680000E+02  0.00000000000E+00 0.  1.
</event>
<event>
12    1  0.1035051E+000  0.1774453E+03  0.7818608E-02  0.1170363E+00
         21   -1    0    0  501  502  0.00000000000E+00  0.00000000000E+00  0.22038935412E+03  0.22038935412E+03  0.00000000000E+00 0. -1.
         21   -1    0    0  502  503 -0.00000000000E+00 -0.00000000000E+00 -0.14997710875E+03  0.14997710875E+03  0.00000000000E+00 0. -1.
         -6    2    1    2    0  503 -0.42132935286E+02  0.16988710960E+02  0.76132962669E+02  0.19308818045E+03  0.17153138747E+03 0.  0.
        -24    2    3    3    0    0 -0.77668432546E+02  0.20901197540E+02  0.10265841579E+03  0.14832470449E+03  0.70655659061E+02 0.  0.
          6    2    1    2  501    0  0.42132935286E+02 -0.16988710960E+02 -0.57207172995E+01  0.17727828243E+03  0.17126313753E+03 0.  0.
         24    2    5    5    0    0 -0.41079420269E+01  0.48256414401E+02  0.17083670697E+02  0.93987975487E+02  0.78716777202E+02 0.  0.
          5    1    5    5  501    0  0.46240877313E+02 -0.65245125361E+02 -0.22804387996E+02  0.83290306939E+02  0.47000000000E+01 0. -1.
        -11    1    6    6    0    0 -0.11458309194E+02 -0.81784905872E+01  0.32166084697E+02  0.35111786662E+02  0.00000000000E+00 0.  1.
         12    1    6    6    0    0  0.73503671671E+01  0.56434904988E+02 -0.15082414000E+02  0.58876188825E+02  0.00000000000E+00 0. -1.
         -5    1    3    3    0  503  0.35535497260E+02 -0.39124865805E+01 -0.26525453118E+02  0.44763475958E+02  0.47000000000E+01 0.  1.
         11    1    4    4    0    0 -0.21605040553E+02  0.31440159619E+02  0.76674701334E+02  0.85640359871E+02  0.00000000000E+00 0. -1.
        -12    1    4    4    0    0 -0.56063391993E+02 -0.10538962079E+02  0.25983714452E+02  0.62684344618E+02  0.00000000000E+00 0.  1.
</event>
<event>
12    1  0.1035051E+000  0.2059491E+03  0.7818608E-02  0.1144972E+00
         21   -1    0    0  503  502  0.00000000000E+00  0.00000000000E+00  0.50567674333E+02  0.50567674333E+02  0.00000000000E+00 0.  1.
         21   -1    0    0  501  503 -0.00000000000E+00 -0.00000000000E+00 -0.84926641335E+03  0.84926641335E+03  0.00000000000E+00 0.  1.
          6    2    1    2  501    0 -0.98157513996E+02  0.53057066313E+02 -0.45563888137E+03  0.49970273990E+03  0.17218039437E+03 0.  0.
         24    2    3    3    0    0 -0.41255648492E+02  0.93992724801E+02 -0.23977129038E+03  0.27269071979E+03  0.79582008781E+02 0.  0.
         -6    2    1    2    0  502  0.98157513996E+02 -0.53057066313E+02 -0.34305985765E+03  0.40013134778E+03  0.17310424522E+03 0.  0.
        -24    2    5    5    0    0  0.13291657301E+03 -0.62383653591E+02 -0.25684273654E+03  0.30658638862E+03  0.80426903194E+02 0.  0.
          5    1    3    3  501    0 -0.56901865504E+02 -0.40935658488E+02 -0.21586759099E+03  0.22701202011E+03  0.47000000000E+01 0. -1.
        -13    1    4    4    0    0  0.10066652165E+02 -0.93383953658E+01 -0.35910284874E+02  0.38445957832E+02  0.00000000000E+00 0.  1.
         14    1    4    4    0    0 -0.51322300657E+02  0.10333112017E+03 -0.20386100550E+03  0.23424476196E+03  0.00000000000E+00 0. -1.
         -5    1    5    5    0  502 -0.34759059010E+02  0.93265872781E+01 -0.86217121106E+02  0.93544959165E+02  0.47000000000E+01 0.  1.
         11    1    6    6    0    0  0.12568250630E+03 -0.45113592274E+02 -0.25490350468E+03  0.28776227219E+03  0.00000000000E+00 0. -1.
        -12    1    6    6    0    0  0.72340667077E+01 -0.17270061317E+02 -0.19392318572E+01  0.18824116426E+02  0.00000000000E+00 0.  1.
</event>
<event>
12    1  0.1035051E+000  0.2342220E+03  0.7818608E-02  0.1123906E+00
         21   -1    0    0  503  502  0.00000000000E+00  0.00000000000E+00  0.18369204185E+03  0.18369204185E+03  0.00000000000E+00 0.  1.
         21   -1    0    0  501  503 -0.00000000000E+00 -0.00000000000E+00 -0.11277200696E+04  0.11277200696E+04  0.00000000000E+00 0. -1.
          6    2    1    2  501    0 -0.95805434447E+02 -0.12418743739E+03  0.91025340376E+02  0.25018856498E+03  0.17235865102E+03 0.  0.
         24    2    3    3    0    0 -0.61494868635E+01 -0.92933832460E+02  0.98514325132E+02  0.15483054669E+03  0.74785777587E+02 0.  0.
         -6    2    1    2    0  502  0.95805434447E+02  0.12418743739E+03 -0.10350533681E+04  0.10612235465E+04  0.17395039477E+03 0.  0.
        -24    2    5    5    0    0  0.96059332478E+02  0.64579016396E+02 -0.41210573286E+03  0.43541281262E+03  0.79720371455E+02 0.  0.
          5    1    3    3  501    0 -0.89655947584E+02 -0.31253604927E+02 -0.74889847565E+01  0.95358018283E+02  0.47000000000E+01 0. -1.
        -11    1    4    4    0    0  0.26640306384E+02 -0.71369569398E+01  0.23871304351E+02  0.36475762501E+02  0.00000000000E+00 0.  1.
         12    1    4    4    0    0 -0.32789793248E+02 -0.85796875520E+02  0.74643020781E+02  0.11835478419E+03  0.00000000000E+00 0. -1.
         -5    1    5    5    0  502 -0.25389803021E+00  0.59608420992E+02 -0.62294763525E+03  0.62581073384E+03  0.47000000000E+01 0.  1.
         13    1    6    6    0    0  0.73601453767E+00  0.10622642189E+02 -0.18767403255E+01  0.10812233753E+02  0.00000000000E+00 0. -1.
        -14    1    6    6    0    0  0.95323317940E+02  0.53956374207E+02 -0.41022899253E+03  0.42460057887E+03  0.00000000000E+00 0.  1.
</event>
<event>
12    1  0.1035051E+000  0.2221743E+03  0.7818608E-02  0.1132341E+00
         21   -1    0    0  503  502  0.00000000000E+00  0.00000000000E+00  0.41486073630E+03  0.41486073630E+03  0.00000000000E+00 0. -1.
         21   -1    0    0  501  503 -0.00000000000E+00 -0.00000000000E+00 -0.12231847119E+03  0.12231847119E+03  0.00000000000E+00 0. -1.
          6    2    1    2  501    0  0.12399835411E+03 -0.67512240648E+02  0.10072416544E+03  0.24394009490E+03  0.17154567303E+03 0.  0.
         24    2    3    3    0    0  0.75699203897E+02 -0.32126991605E+02 -0.12614919751E+02  0.11567177460E+03  0.80363612273E+02 0.  0.
         -6    2    1    2    0  502 -0.12399835411E+03  0.67512240648E+02  0.19181809968E+03  0.29323911259E+03  0.17105992906E+03 0.  0.
        -24    2    5    5    0    0 -0.50047143468E+01 -0.73521060281E+01  0.72484789983E+02  0.10877587639E+03  0.80616660042E+02 0.  0.
          5    1    3    3  501    0  0.48299150215E+02 -0.35385249043E+02  0.11333908519E+03  0.12826832030E+03  0.47000000000E+01 0. -1.
        -11    1    4    4    0    0  0.32217206643E+02 -0.20196345144E+02  0.33862754531E+02  0.50916862683E+02  0.00000000000E+00 0.  1.
         12    1    4    4    0    0  0.43481997254E+02 -0.11930646461E+02 -0.46477674282E+02  0.64754911913E+02  0.00000000000E+00 0. -1.
         -5    1    5    5    0  502 -0.11899363977E+03  0.74864346676E+02  0.11933330970E+03  0.18446323621E+03  0.47000000000E+01 0.  1.
         13    1    6    6    0    0  0.12966189411E+02 -0.19828459893E+02  0.81678705623E+02  0.85045287005E+02  0.00000000000E+00 0. -1.
        -14    1    6    6    0    0 -0.17970903757E+02  0.12476353865E+02 -0.91939156404E+01  0.23730589382E+02  0.00000000000E+00 0.  1.
</event>
<event>
12    1  0.1035051E+000  0.2420729E+03  0.7818608E-02  0.1118600E+00
         21   -1    0    0  501  502  0.00000000000E+00  0.00000000000E+00  0.49770970049E+03  0.49770970049E+03  0.00000000000E+00 0.  1.
         21   -1    0    0  502  503 -0.00000000000E+00 -0.00000000000E+00 -0.24838337747E+03  0.24838337747E+03  0.00000000000E+00 0.  1.
         -6    2    1    2    0  503 -0.12048662454E+03 -0.11868923465E+03  0.39589582890E+03  0.46403965857E+03  0.17319103982E+03 0.  0.
        -24    2    3    3    0    0 -0.11857985181E+03 -0.11576732391E+03  0.21503015611E+03  0.28307929015E+03  0.80203877313E+02 0.  0.
          6    2    1    2  501    0  0.12048662454E+03  0.11868923465E+03 -0.14656950588E+03  0.28205341938E+03  0.17166056687E+03 0.  0.
         24    2    5    5    0    0  0.54833959732E+02 -0.24868889396E+01 -0.91837771000E+02  0.13369042492E+03  0.80162371321E+02 0.  0.
          5    1    5    5  501    0  0.65652664809E+02  0.12117612359E+03 -0.54731734881E+02  0.14836299447E+03  0.47000000000E+01 0. -1.
        -13    1    6    6    0    0  0.13165321314E+02 -0.56822042689E+01  0.13914187043E+02  0.19980433722E+02  0.00000000000E+00 0.  1.
         14    1    6    6    0    0  0.41668638419E+02  0.31953153293E+01 -0.10575195804E+03  0.11370999120E+03  0.00000000000E+00 0. -1.
         -5    1    3    3    0  503 -0.19067727295E+01 -0.29219107393E+01  0.18086567280E+03  0.18096036842E+03  0.47000000000E+01 0.  1.
         13    1    4    4    0    0 -0.14294143338E+02  0.11987303462E+02  0.28925291098E+02  0.34419332404E+02  0.00000000000E+00 0. -1.
        -14    1    4    4    0    0 -0.10428570847E+03 -0.12775462737E+03  0.18610486501E+03  0.24865995775E+03  0.00000000000E+00 0.  1.
</event>
<event>
12    1  0.1035051E+000  0.1803208E+03  0.7818608E-02  0.1167752E+00
         21   -1    0    0  501  502  0.00000000000E+00  0.00000000000E+00  0.24774845698E+03  0.24774845698E+03  0.00000000000E+00 0. -1.
         21   -1    0    0  502  503 -0.00000000000E+00 -0.00000000000E+00 -0.17980927439E+03  0.17980927439E+03  0.00000000000E+00 0. -1.
         -6    2    1    2    0  503  0.46657951067E+02  0.17378473926E+02  0.14602888624E+03  0.23203451634E+03  0.17331071924E+03 0.  0.
        -24    2    3    3    0    0 -0.30339579039E+02 -0.78853472266E+01  0.31052522253E+02  0.91291720512E+02  0.79920274891E+02 0.  0.
          6    2    1    2  501    0 -0.46657951067E+02 -0.17378473926E+02 -0.78089703643E+02  0.19552321503E+03  0.17219857737E+03 0.  0.
         24    2    5    5    0    0 -0.61846697105E+02 -0.70470794712E+02 -0.53292533096E+02  0.13480680704E+03  0.80880370237E+02 0.  0.
          5    1    5    5  501    0  0.15188746038E+02  0.53092320785E+02 -0.24797170547E+02  0.60716407994E+02  0.47000000000E+01 0. -1.
        -11    1    6    6    0    0 -0.55188753891E+02 -0.44720648482E+01 -0.36704237114E+02  0.66430406759E+02  0.00000000000E+00 0.  1.
         12    1    6    6    0    0 -0.66579432144E+01 -0.65998729863E+02 -0.16588295982E+02  0.68376400278E+02  0.00000000000E+00 0. -1.
         -5    1    3    3    0  503  0.76997530106E+02  0.25263821153E+02  0.11497636398E+03  0.14074279583E+03  0.47000000000E+01 0.  1.
         11    1    4    4    0    0 -0.36633439832E+00 -0.33809967311E+02  0.38209108921E+02  0.51021408202E+02  0.00000000000E+00 0. -1.
        -12    1    4    4    0    0 -0.29973244641E+02  0.25924620084E+02 -0.71565866677E+01  0.40270312310E+02  0.00000000000E+00 0.  1.
</event>
<event>
12    1  0.1035051E+000  0.2006917E+03  0.7818608E-02  0.1150342E+00
         21   -1    0    0  503  502  0.00000000000E+00  0.00000000000E+00  0.81598087404E+02  0.81598087404E+02  0.00000000000E+00 0. -1.
         21   -1    0    0  501  503 -0.00000000000E+00 -0.00000000000E+00 -0.52126986464E+03  0.52126986464E+03  0.00000000000E+00 0. -1.
          6    2    1    2  501    0 -0.36216542527E+02  0.95868383870E+02 -0.30745873172E+03  0.36716212453E+03  0.17255366991E+03 0.  0.
         24    2    3    3    0    0  0.22969296855E+02  0.16007627904E+02 -0.21839727924E+03  0.23361536775E+03  0.78070069317E+02 0.  0.
         -6    2    1    2    0  502  0.36216542527E+02 -0.95868383870E+02 -0.13221304552E+03  0.23570582752E+03  0.16605590246E+03 0.  0.
        -24    2    5    5    0    0  0.76418857832E+02 -0.10371737767E+03 -0.87529220263E+02  0.17490642703E+03  0.79584907830E+02 0.  0.
          5    1    3    3  501    0 -0.59185839382E+02  0.79860755967E+02 -0.89061452478E+02  0.13354675677E+03  0.47000000000E+01 0. -1.
        -11    1    4    4    0    0  0.33672916607E+02  0.32823743716E+02 -0.72844783350E+02  0.86704243989E+02  0.00000000000E+00 0.  1.
         12    1    4    4    0    0 -0.10703619752E+02 -0.16816115812E+02 -0.14555249589E+03  0.14691112376E+03  0.00000000000E+00 0. -1.
         -5    1    5    5    0  502 -0.40202315305E+02  0.78489938016E+01 -0.44683825258E+02  0.60799400484E+02  0.47000000000E+01 0.  1.
         13    1    6    6    0    0 -0.14250858822E+02 -0.33159248088E+02 -0.15313639777E+02  0.39206252998E+02  0.00000000000E+00 0. -1.
        -14    1    6    6    0    0  0.90669716654E+02 -0.70558129584E+02 -0.72215580485E+02  0.13570017404E+03  0.00000000000E+00 0.  1.
</event>
<event>
12    1  0.1035051E+000  0.3115023E+03  0.7818608E-02  0.1079869E+00
         21   -1    0    0  501  502  0.00000000000E+00  0.00000000000E+00  0.14368035666E+03  0.14368035666E+03  0.00000000000E+00 0.  1.
         21   -1    0    0  502  503 -0.00000000000E+00 -0.00000000000E+00 -0.10852848476E+04  0.10852848476E+04  0.00000000000E+00 0.  1.
         -6    2    1    2    0  503  0.25842017076E+03 -0.25259078101E+02 -0.85140383294E+03  0.90659923961E+03  0.17208918857E+03 0.  0.
        -24    2    3    3    0    0  0.77506152189E+02  0.47619462142E+01 -0.19063297207E+03  0.22083589516E+03  0.79985516122E+02 0.  0.
          6    2    1    2  501    0 -0.25842017076E+03  0.25259078101E+02 -0.90200658005E+02  0.32236596467E+03  0.16841808331E+03 0.  0.
         24    2    5    5    0    0 -0.18791577043E+02  0.18149710609E+01 -0.20632516430E+02  0.71700240233E+02  0.66021255877E+02 0.  0.
          5    1    5    5  501    0 -0.23962859372E+03  0.23444107040E+02 -0.69568141575E+02  0.25066572443E+03  0.47000000000E+01 0. -1.
        -13    1    6    6    0    0 -0.30081694459E+02  0.16948294145E+02 -0.34084823911E+02  0.48517298327E+02  0.00000000000E+00 0.  1.
         14    1    6    6    0    0  0.11290117416E+02 -0.15133323084E+02  0.13452307482E+02  0.23182941906E+02  0.00000000000E+00 0. -1.
         -5    1    3    3    0  503  0.18091401858E+03 -0.30021024315E+02 -0.66077086087E+03  0.68576334445E+03  0.47000000000E+01 0.  1.
         13    1    4    4    0    0  0.88157629267E+02  0.19805912900E+02 -0.17375102247E+03  0.19584039316E+03  0.00000000000E+00 0. -1.
        -14    1    4    4    0    0 -0.10651477079E+02 -0.15043966686E+02 -0.16881949601E+02  0.24995501994E+02  0.00000000000E+00 0.  1.
</event>
<event>
12    1  0.1035051E+000  0.1904235E+03  0.7818608E-02  0.1158225E+00
         21   -1    0    0  503  502  0.00000000000E+00  0.00000000000E+00  0.30366146244E+03  0.30366146244E+03  0.00000000000E+00 0. -1.
         21   -1    0    0  501  503 -0.00000000000E+00 -0.00000000000E+00 -0.15709788587E+03  0.15709788587E+03  0.00000000000E+00 0. -1.
          6    2    1    2  501    0 -0.42998845106E+02 -0.67453404942E+02 -0.40062115207E+02  0.19459213587E+03  0.17280701302E+03 0.  0.
         24    2    3    3    0    0 -0.30261750515E+02 -0.26282935953E+02 -0.91023218265E+02  0.12768649246E+03  0.80075263514E+02 0.  0.
         -6    2    1    2    0  502  0.42998845106E+02  0.67453404942E+02  0.18662569177E+03  0.26616721244E+03  0.17209582688E+03 0.  0.
        -24    2    5    5    0    0 -0.44219775639E+01 -0.11229421735E+02  0.14266957557E+03  0.16421648028E+03  0.80416359058E+02 0.  0.
          5    1    3    3  501    0 -0.12737094591E+02 -0.41170468989E+02  0.50961103058E+02  0.66905643411E+02  0.47000000000E+01 0. -1.
        -11    1    4    4    0    0 -0.39413087475E+02 -0.57674668101E+01 -0.66626341724E+01  0.40386208436E+02  0.00000000000E+00 0.  1.
         12    1    4    4    0    0  0.91513369601E+01 -0.20515469143E+02 -0.84360584092E+02  0.87300284024E+02  0.00000000000E+00 0. -1.
         -5    1    5    5    0  502  0.47420822670E+02  0.78682826677E+02  0.43956116200E+02  0.10195073216E+03  0.47000000000E+01 0.  1.
         13    1    6    6    0    0 -0.41937188236E+02  0.18711165536E+00  0.68487073393E+02  0.80307172717E+02  0.00000000000E+00 0. -1.
        -14    1    6    6    0    0  0.37515210672E+02 -0.11416533390E+02  0.74182502177E+02  0.83909307563E+02  0.00000000000E+00 0.  1.
</event>
<event>
12    1  0.1035051E+000  0.2538196E+03  0.7818608E-02  0.1111049E+00
         21   -1    0    0  501  502  0.00000000000E+00  0.00000000000E+00  0.19670254059E+03  0.19670254059E+03  0.00000000000E+00 0.  1.
         21   -1    0    0  502  503 -0.00000000000E+00 -0.00000000000E+00 -0.35283108713E+03  0.35283108713E+03  0.00000000000E+00 0.  1.
         -6    2    1    2    0  503  0.51936732238E+02  0.17747421411E+03 -0.29913087222E+01  0.25383724744E+03  0.17386741911E+03 0.  0.
        -24    2    3    3    0    0  0.85779815825E+02  0.14299754920E+03  0.34290853638E+02  0.19263231005E+03  0.90138051637E+02 0.  0.
          6    2    1    2  501    0 -0.51936732238E+02 -0.17747421411E+03 -0.15313723782E+03  0.29569638028E+03  0.17260015897E+03 0.  0.
         24    2    5    5    0    0 -0.52319983777E+02 -0.12514505985E+03 -0.27221886821E+02  0.15925865499E+03  0.78889931926E+02 0.  0.
          5    1    5    5  501    0  0.38325153970E+00 -0.52329154264E+02 -0.12591535100E+03  0.13643772530E+03  0.47000000000E+01 0. -1.
        -11    1    6    6    0    0 -0.51685434892E+02 -0.30260956683E+02  0.21479857201E+01  0.59930989663E+02  0.00000000000E+00 0.  1.
         12    1    6    6    0    0 -0.63454888575E+00 -0.94884103164E+02 -0.29369872541E+02  0.99327665324E+02  0.00000000000E+00 0. -1.
         -5    1    3    3    0  503 -0.33843083587E+02  0.34476664911E+02 -0.37282162361E+02  0.61204937386E+02  0.47000000000E+01 0.  1.
         11    1    4    4    0    0  0.59269386372E+02  0.13924686467E+03  0.28862007834E+01  0.15136340257E+03  0.00000000000E+00 0. -1.
        -12    1    4    4    0    0  0.26510429453E+02  0.37506845296E+01  0.31404652855E+02  0.41268907487E+02  0.00000000000E+00 0.  1.
</event>
<event>
12    1  0.1035051E+000  0.1848562E+03  0.7818608E-02  0.1163685E+00
         21   -1    0    0  501  502  0.00000000000E+00  0.00000000000E+00  0.91599307007E+02  0.91599307007E+02  0.00000000000E+00 0.  1.
         21   -1    0    0  502  503 -0.00000000000E+00 -0.00000000000E+00 -0.38810171008E+03  0.38810171008E+03  0.00000000000E+00 0.  1.
         -6    2    1    2    0  503  0.25543383845E+02 -0.63350085035E+02 -0.93910732371E+02  0.20544712902E+03  0.16948038069E+03 0.  0.
        -24    2    3    3    0    0 -0.49984320427E+01 -0.63154846318E+02  0.69089585643E+01  0.99997896139E+02  0.77060538458E+02 0.  0.
          6    2    1    2  501    0 -0.25543383845E+02  0.63350085035E+02 -0.20259167070E+03  0.27425388806E+03  0.17177343318E+03 0.  0.
         24    2    5    5    0    0  0.42524702686E+02  0.13635225029E+02 -0.14779604511E+03  0.17360855884E+03  0.79385080798E+02 0.  0.
          5    1    5    5  501    0 -0.68068086531E+02  0.49714860005E+02 -0.54795625591E+02  0.10064532922E+03  0.47000000000E+01 0. -1.
        -13    1    6    6    0    0 -0.23714483493E+02  0.25381738378E+01 -0.41812400948E+02  0.48136222607E+02  0.00000000000E+00 0.  1.
         14    1    6    6    0    0  0.66239186179E+02  0.11097051192E+02 -0.10598364416E+03  0.12547233623E+03  0.00000000000E+00 0. -1.
         -5    1    3    3    0  503  0.30541815887E+02 -0.19523871636E+00 -0.10081969093E+03  0.10544923289E+03  0.47000000000E+01 0.  1.
         13    1    4    4    0    0  0.20066586953E+02 -0.64022420318E+02  0.22143762988E+02  0.70653269242E+02  0.00000000000E+00 0. -1.
        -14    1    4    4    0    0 -0.25065018996E+02  0.86757399925E+00 -0.15234804424E+02  0.29344626897E+02  0.00000000000E+00 0.  1.
</event>
<event>
12    1  0.1052840E+000  0.4637685E+03  0.7818608E-02  0.1023696E+00
         21   -1    0    0  501  502  0.00000000000E+00  0.00000000000E+00  0.10359150023E+04  0.10359150023E+04  0.00000000000E+00 0.  1.
         21   -1    0    0  502  503 -0.00000000000E+00 -0.00000000000E+00 -0.47531747801E+03  0.47531747801E+03  0.00000000000E+00 0. -1.
         -6    2    1    2    0  503 -0.38627763560E+03 -0.19053489628E+03  0.84736877947E+03  0.96596280794E+03  0.17186139602E+03 0.  0.
        -24    2    3    3    0    0 -0.39031494690E+03 -0.15915279771E+03  0.75250796105E+03  0.86585386297E+03  0.75890116442E+02 0.  0.
          6    2    1    2  501    0  0.38627763560E+03  0.19053489628E+03 -0.28677125522E+03  0.54526967233E+03  0.17195145909E+03 0.  0.
         24    2    5    5    0    0  0.38603526155E+03  0.14976810816E+03 -0.25055828382E+03  0.49053888524E+03  0.79970212939E+02 0.  0.
          5    1    5    5  501    0  0.24237404629E+00  0.40766788115E+02 -0.36212971399E+02  0.54730787094E+02  0.47000000000E+01 0. -1.
        -11    1    6    6    0    0  0.21298328704E+03  0.52851471076E+02 -0.98099516395E+02  0.24037194859E+03  0.00000000000E+00 0.  1.
         12    1    6    6    0    0  0.17305197451E+03  0.96916637086E+02 -0.15245876742E+03  0.25016693664E+03  0.00000000000E+00 0. -1.
         -5    1    3    3    0  503  0.40373113033E+01 -0.31382098563E+02  0.94860818413E+02  0.10010894497E+03  0.47000000000E+01 0.  1.
         11    1    4    4    0    0 -0.16500587772E+03 -0.10648110451E+03  0.32410769324E+03  0.37896037011E+03  0.00000000000E+00 0. -1.
        -12    1    4    4    0    0 -0.22530906919E+03 -0.52671693202E+02  0.42840026782E+03  0.48689349286E+03  0.00000000000E+00 0.  1.
</event>
<event>
12    1  0.1035051E+000  0.1890859E+03  0.7818608E-02  0.1159631E+00
         21   -1    0    0  503  502  0.00000000000E+00  0.00000000000E+00  0.73112342080E+02  0.73112342080E+02  0.00000000000E+00 0. -1.
         21   -1    0    0  501  503 -0.00000000000E+00 -0.00000000000E+00 -0.58202133958E+03  0.58202133958E+03  0.00000000000E+00 0. -1.
          6    2    1    2  501    0  0.62261852680E+02 -0.47481832667E+02 -0.12165827623E+03  0.22484260240E+03  0.17211158284E+03 0.  0.
         24    2    3    3    0    0  0.32093298458E+02 -0.52945183198E+02  0.31551279069E+01  0.96232860485E+02  0.73604594798E+02 0.  0.
         -6    2    1    2    0  502 -0.62261852680E+02  0.47481832667E+02 -0.38725072126E+03  0.43029107925E+03  0.17045887784E+03 0.  0.
        -24    2    5    5    0    0 -0.10343712526E+03  0.18522512527E+02 -0.31952518044E+03  0.34577549386E+03  0.80137562132E+02 0.  0.
          5    1    3    3  501    0  0.30168554222E+02  0.54633505309E+01 -0.12481340414E+03  0.12860974192E+03  0.47000000000E+01 0. -1.
        -13    1    4    4    0    0 -0.11932061074E+01 -0.54639556567E+02 -0.17058223652E+02  0.57252841648E+02  0.00000000000E+00 0.  1.
         14    1    4    4    0    0  0.33286504565E+02  0.16943733687E+01  0.20213351559E+02  0.38980018837E+02  0.00000000000E+00 0. -1.
         -5    1    5    5    0  502  0.41175272580E+02  0.28959320140E+02 -0.67725540819E+02  0.84515585392E+02  0.47000000000E+01 0.  1.
         11    1    6    6    0    0 -0.58762906619E+02 -0.28358995058E+02 -0.19137629775E+03  0.20219346956E+03  0.00000000000E+00 0. -1.
        -12    1    6    6    0    0 -0.44674218641E+02  0.46881507585E+02 -0.12814888270E+03  0.14358202430E+03  0.00000000000E+00 0.  1.
</event>
<event>
12    1  0.1035051E+000  0.1871678E+03  0.7818608E-02  0.1161945E+00
         21   -1    0    0  503  502  0.00000000000E+00  0.00000000000E+00  0.90195026773E+02  0.90195026773E+02  0.00000000000E+00 0.  1.
         21   -1    0    0  501  503 -0.00000000000E+00 -0.00000000000E+00 -0.40446472580E+03  0.40446472580E+03  0.00000000000E+00 0.  1.
          6    2    1    2  501    0 -0.46716988452E+02 -0.56662121081E+02 -0.98325985614E+02  0.21142322735E+03  0.17215896328E+03 0.  0.
         24    2    3    3    0    0 -0.90810687946E+02 -0.29243871535E+02 -0.98733432177E+02  0.15928618911E+03  0.80758989248E+02 0.  0.
         -6    2    1    2    0  502  0.46716988452E+02  0.56662121081E+02 -0.21594371341E+03  0.28323652522E+03  0.16792310408E+03 0.  0.
        -24    2    5    5    0    0 -0.16091005914E+02  0.68463130803E+02 -0.78575463292E+02  0.13165739036E+03  0.78825403603E+02 0.  0.
          5    1    3    3  501    0  0.44093699494E+02 -0.27418249546E+02  0.40744656245E+00  0.52137038235E+02  0.47000000000E+01 0. -1.
        -13    1    4    4    0    0 -0.91843301624E+02 -0.93198947261E+01 -0.46484714776E+02  0.10335802436E+03  0.00000000000E+00 0.  1.
         14    1    4    4    0    0  0.10326136774E+01 -0.19923976809E+02 -0.52248717400E+02  0.55928164755E+02  0.00000000000E+00 0. -1.
         -5    1    5    5    0  502  0.62807994366E+02 -0.11801009722E+02 -0.13736825012E+03  0.15157913487E+03  0.47000000000E+01 0.  1.
         13    1    6    6    0    0  0.20468504392E+02  0.22271970549E+02  0.36921746236E+01  0.30473472031E+02  0.00000000000E+00 0. -1.
        -14    1    6    6    0    0 -0.36559510306E+02  0.46191160254E+02 -0.82267637916E+02  0.10118391833E+03  0.00000000000E+00 0.  1.
</event>
<event>
12    1  0.1035051E+000  0.2347336E+03  0.7818608E-02  0.1124119E+00
         21   -1    0    0  501  502  0.00000000000E+00  0.00000000000E+00  0.22527135968E+03  0.22527135968E+03  0.00000000000E+00 0. -1.
         21   -1    0    0  502  503 -0.00000000000E+00 -0.00000000000E+00 -0.24595920987E+03  0.24595920987E+03  0.00000000000E+00 0. -1.
         -6    2    1    2    0  503  0.15558206520E+03 -0.14379213375E+02  0.26247068347E+02  0.23619645063E+03  0.17517794925E+03 0.  0.
        -24    2    3    3    0    0  0.66770076012E+02 -0.37284617760E+02 -0.45515063623E+02  0.11964551516E+03  0.79969009679E+02 0.  0.
          6    2    1    2  501    0 -0.15558206520E+03  0.14379213375E+02 -0.46934918531E+02  0.23503411892E+03  0.16919104494E+03 0.  0.
         24    2    5    5    0    0 -0.18321126863E+03  0.16907272459E+02 -0.50507409188E+02  0.20666835338E+03  0.79426601905E+02 0.  0.
          5    1    5    5  501    0  0.27629203429E+02 -0.25280590839E+01  0.35724906568E+01  0.28365765534E+02  0.47000000000E+01 0. -1.
        -11    1    6    6    0    0 -0.14478692674E+03  0.44337076384E+02 -0.49968174568E+02  0.15945484930E+03  0.00000000000E+00 0.  1.
         12    1    6    6    0    0 -0.38424341898E+02 -0.27429803925E+02 -0.53923462009E+00  0.47213504081E+02  0.00000000000E+00 0. -1.
         -5    1    3    3    0  503  0.88811989193E+02  0.22905404385E+02  0.71762131969E+02  0.11655093547E+03  0.47000000000E+01 0.  1.
         13    1    4    4    0    0  0.23200370077E+02 -0.57008595655E+02 -0.16561585369E+02  0.63737926388E+02  0.00000000000E+00 0. -1.
        -14    1    4    4    0    0  0.43569705935E+02  0.19723977895E+02 -0.28953478254E+02  0.55907588772E+02  0.00000000000E+00 0.  1.
</event>
<event>
12    1  0.1035051E+000  0.2316687E+03  0.7818608E-02  0.1125609E+00
         21   -1    0    0  503  502  0.00000000000E+00  0.00000000000E+00  0.86332750908E+02  0.86332750908E+02  0.00000000000E+00 0.  1.
         21   -1    0    0  501  503 -0.00000000000E+00 -0.00000000000E+00 -0.16174313751E+04  0.16174313751E+04  0.00000000000E+00 0. -1.
          6    2    1    2  501    0  0.11295720587E+02  0.15446634399E+03 -0.95924474650E+02  0.25001200193E+03  0.17122222853E+03 0.  0.
         24    2    3    3    0    0  0.15811337695E+02  0.97814055008E+01 -0.23751488190E+02  0.88193732880E+02  0.82875370496E+02 0.  0.
         -6    2    1    2    0  502 -0.11295720587E+02 -0.15446634399E+03 -0.14351741495E+04  0.14537521241E+04  0.17228741690E+03 0.  0.
        -24    2    5    5    0    0  0.14578631657E+02 -0.32256315940E+02 -0.89653341565E+03  0.90079579373E+03  0.80049298659E+02 0.  0.
          5    1    3    3  501    0 -0.45156171082E+01  0.14468493849E+03 -0.72172986460E+02  0.16181826905E+03  0.47000000000E+01 0. -1.
        -11    1    4    4    0    0  0.18323499575E+02  0.29778810467E+02  0.19816489733E+02  0.40189817800E+02  0.00000000000E+00 0.  1.
         12    1    4    4    0    0 -0.25121618796E+01 -0.19997404966E+02 -0.43567977923E+02  0.48003915080E+02  0.00000000000E+00 0. -1.
         -5    1    5    5    0  502 -0.25874352244E+02 -0.12221002805E+03 -0.53864073387E+03  0.55295633033E+03  0.47000000000E+01 0.  1.
         13    1    6    6    0    0  0.18251009500E+02 -0.58333301545E+02 -0.60970782674E+03  0.61276382678E+03  0.00000000000E+00 0. -1.
        -14    1    6    6    0    0 -0.36723778425E+01  0.26076985604E+02 -0.28682558891E+03  0.28803196696E+03  0.00000000000E+00 0.  1.
</event>
<event>
12    1  0.1035051E+000  0.1783060E+03  0.7818608E-02  0.1169763E+00
         21   -1    0    0  501  502  0.00000000000E+00  0.00000000000E+00  0.30775535271E+03  0.30775535271E+03  0.00000000000E+00 0.  1.
         21   -1    0    0  502  503 -0.00000000000E+00 -0.00000000000E+00 -0.11949195839E+03  0.11949195839E+03  0.00000000000E+00 0.  1.
         -6    2    1    2    0  503 -0.13150749920E+02 -0.45163571660E+02  0.17479419740E+03  0.24969186601E+03  0.17198931966E+03 0.  0.
        -24    2    3    3    0    0 -0.80394015240E+02 -0.46314295318E+02  0.10313365875E+03  0.15130333164E+03  0.60398137053E+02 0.  0.
          6    2    1    2  501    0  0.13150749920E+02  0.45163571660E+02  0.13469196919E+02  0.17755544509E+03  0.17068048039E+03 0.  0.
         24    2    5    5    0    0  0.57665609236E+02 -0.16490909365E+02 -0.30966740068E+01  0.99585157093E+02  0.79437658218E+02 0.  0.
          5    1    5    5  501    0 -0.44514859316E+02  0.61654481026E+02  0.16565870925E+02  0.77970287995E+02  0.47000000000E+01 0. -1.
        -11    1    6    6    0    0  0.39887130372E+02 -0.48084344410E+02 -0.80688521257E+01  0.62993600637E+02  0.00000000000E+00 0.  1.
         12    1    6    6    0    0  0.17778478864E+02  0.31593435045E+02  0.49721781190E+01  0.36591556456E+02  0.00000000000E+00 0. -1.
         -5    1    3    3    0  503  0.67243265321E+02  0.11507236572E+01  0.71660538652E+02  0.98388534371E+02  0.47000000000E+01 0.  1.
         13    1    4    4    0    0 -0.11005415462E+02 -0.39178008716E+02  0.33077109914E+02  0.52441688919E+02  0.00000000000E+00 0. -1.
        -14    1    4    4    0    0 -0.69388599778E+02 -0.71362866019E+01  0.70056548839E+02  0.98861642718E+02  0.00000000000E+00 0.  1.
</event>
<event>
12    1  0.1035051E+000  0.3663995E+03  0.7818608E-02  0.1056278E+00
         21   -1    0    0  501  502  0.00000000000E+00  0.00000000000E+00  0.10267650229E+03  0.10267650229E+03  0.00000000000E+00 0. -1.
         21   -1    0    0  502  503 -0.00000000000E+00 -0.00000000000E+00 -0.20321875672E+04  0.20321875672E+04  0.00000000000E+00 0. -1.
         -6    2    1    2    0  503 -0.27115497391E+03 -0.17269227090E+03 -0.32584350546E+03  0.49032906399E+03  0.17578669072E+03 0.  0.
        -24    2    3    3    0    0 -0.50889876903E+02 -0.38336688054E+02 -0.54077950537E+02  0.11556681610E+03  0.79823449100E+02 0.  0.
          6    2    1    2  501    0  0.27115497391E+03  0.17269227090E+03 -0.16036675595E+04  0.16445350056E+04  0.17145874955E+03 0.  0.
         24    2    5    5    0    0  0.21384927266E+03  0.19184539059E+03 -0.12055103498E+04  0.12417918628E+04  0.79092741569E+02 0.  0.
          5    1    5    5  501    0  0.57305701255E+02 -0.19153119685E+02 -0.39815720967E+03  0.40274314271E+03  0.47000000000E+01 0. -1.
        -11    1    6    6    0    0  0.11356197553E+03  0.81115013188E+02 -0.73505718210E+03  0.74818782976E+03  0.00000000000E+00 0.  1.
         12    1    6    6    0    0  0.10028729713E+03  0.11073037740E+03 -0.47045316774E+03  0.49360403308E+03  0.00000000000E+00 0. -1.
         -5    1    3    3    0  503 -0.22026509701E+03 -0.13435558285E+03 -0.27176555492E+03  0.37476224789E+03  0.47000000000E+01 0.  1.
         11    1    4    4    0    0 -0.23058654831E+02 -0.47873087588E+02 -0.65203954096E+02  0.84113552461E+02  0.00000000000E+00 0. -1.
        -12    1    4    4    0    0 -0.27831222072E+02  0.95363995339E+01  0.11126003560E+02  0.31453263635E+02  0.00000000000E+00 0.  1.
</event>
<event>
12    1  0.1035051E+000  0.6279583E+03  0.7818608E-02  0.9849177E-01
         21   -1    0    0  501  502  0.00000000000E+00  0.00000000000E+00  0.83357349785E+03  0.83357349785E+03  0.00000000000E+00 0.  1.
         21   -1    0    0  502  503 -0.00000000000E+00 -0.00000000000E+00 -0.47459701197E+03  0.47459701197E+03  0.00000000000E+00 0.  1.
         -6    2    1    2    0  503  0.59846656549E+03 -0.83079084426E+02  0.13988124725E+03  0.64334935510E+03  0.17107678127E+03 0.  0.
        -24    2    3    3    0    0  0.18802250411E+03  0.17324643569E+02  0.58947708211E+02  0.21309644824E+03  0.79263223642E+02 0.  0.
          6    2    1    2  501    0 -0.59846656549E+03  0.83079084426E+02  0.21909523863E+03  0.66482115472E+03  0.17005904826E+03 0.  0.
         24    2    5    5    0    0 -0.19868735749E+03  0.50888368654E+02  0.12291290389E+03  0.25234959347E+03  0.80662527152E+02 0.  0.
          5    1    5    5  501    0 -0.39977920800E+03  0.32190715772E+02  0.96182334735E+02  0.41247156126E+03  0.47000000000E+01 0. -1.
        -11    1    6    6    0    0 -0.16954243167E+03  0.43799210733E+02  0.64360842173E+02  0.18656185302E+03  0.00000000000E+00 0.  1.
         12    1    6    6    0    0 -0.29144925829E+02  0.70891579209E+01  0.58552061722E+02  0.65787740450E+02  0.00000000000E+00 0. -1.
         -5    1    3    3    0  503  0.41044406138E+03 -0.10040372799E+03  0.80933539035E+02  0.43025290686E+03  0.47000000000E+01 0.  1.
         11    1    4    4    0    0  0.15346523601E+03  0.44241891076E+02  0.55792232110E+02  0.16917948089E+03  0.00000000000E+00 0. -1.
        -12    1    4    4    0    0  0.34557268097E+02 -0.26917247507E+02  0.31554761007E+01  0.43916967349E+02  0.00000000000E+00 0.  1.
</event>
<event>
12    1  0.1035051E+000  0.3674191E+03  0.7818608E-02  0.1055924E+00
         21   -1    0    0  501  502  0.00000000000E+00  0.00000000000E+00  0.55442170669E+03  0.55442170669E+03  0.00000000000E+00 0. -1.
         21   -1    0    0  502  503 -0.00000000000E+00 -0.00000000000E+00 -0.30920709365E+03  0.30920709365E+03  0.00000000000E+00 0.  1.
         -6    2    1    2    0  503 -0.17884613087E+03 -0.27064621154E+03 -0.78607922583E+02  0.37573390593E+03  0.17251507825E+03 0.  0.
        -24    2    3    3    0    0 -0.16248150194E+03 -0.20446708192E+03 -0.11747423496E+03  0.29711992171E+03  0.79202436421E+02 0.  0.
          6    2    1    2  501    0  0.17884613087E+03  0.27064621154E+03  0.32382253562E+03  0.48789489441E+03  0.16716782905E+03 0.  0.
         24    2    5    5    0    0  0.80889028545E+02  0.22659624745E+03  0.19932228800E+03  0.32340053314E+03  0.83484346108E+02 0.  0.
          5    1    5    5  501    0  0.97957102329E+02  0.44049964091E+02  0.12450024762E+03  0.16449436128E+03  0.47000000000E+01 0. -1.
        -13    1    6    6    0    0  0.13488154715E+02  0.10318992445E+03  0.13030801207E+03  0.16676411135E+03  0.00000000000E+00 0.  1.
         14    1    6    6    0    0  0.67400873829E+02  0.12340632299E+03  0.69014275934E+02  0.15663642179E+03  0.00000000000E+00 0. -1.
         -5    1    3    3    0  503 -0.16364628933E+02 -0.66179129616E+02  0.38866312376E+02  0.78613984217E+02  0.47000000000E+01 0.  1.
         13    1    4    4    0    0 -0.19775952081E+02 -0.82336504692E+02 -0.29120086197E+02  0.89545338827E+02  0.00000000000E+00 0. -1.
        -14    1    4    4    0    0 -0.14270554986E+03 -0.12213057723E+03 -0.88354148762E+02  0.20757458288E+03  0.00000000000E+00 0.  1.
</event>
<event>
12    1  0.1035051E+000  0.2130233E+03  0.7818608E-02  0.1139315E+00
         21   -1    0    0  501  502  0.00000000000E+00  0.00000000000E+00  0.42051973031E+03  0.42051973031E+03  0.00000000000E+00 0. -1.
         21   -1    0    0  502  503 -0.00000000000E+00 -0.00000000000E+00 -0.11416424244E+03  0.11416424244E+03  0.00000000000E+00 0. -1.
         -6    2    1    2    0  503  0.11045449488E+03  0.60539225366E+02  0.21708299562E+03  0.30371100798E+03  0.17102677022E+03 0.  0.
        -24    2    3    3    0    0  0.14640947727E+03  0.56926535118E+02  0.17290978549E+03  0.24644692863E+03  0.78497957166E+02 0.  0.
          6    2    1    2  501    0 -0.11045449488E+03 -0.60539225366E+02  0.89272492240E+02  0.23097296477E+03  0.17179563248E+03 0.  0.
         24    2    5    5    0    0 -0.21129958598E+02 -0.23309585085E+02 -0.17707529786E+02  0.86640937802E+02  0.78760926765E+02 0.  0.
          5    1    5    5  501    0 -0.89324536280E+02 -0.37229640281E+02  0.10698002203E+03  0.14433202697E+03  0.47000000000E+01 0. -1.
        -11    1    6    6    0    0 -0.41537096611E+02 -0.64772337214E+01 -0.35281315180E+02  0.54882202510E+02  0.00000000000E+00 0.  1.
         12    1    6    6    0    0  0.20407138013E+02 -0.16832351363E+02  0.17573785394E+02  0.31758735292E+02  0.00000000000E+00 0. -1.
         -5    1    3    3    0  503 -0.35954982393E+02  0.36126902479E+01  0.44173210133E+02  0.57264079344E+02  0.47000000000E+01 0.  1.
         13    1    4    4    0    0  0.74730414428E+02  0.52632517714E+02  0.50230568291E+02  0.10429729983E+03  0.00000000000E+00 0. -1.
        -14    1    4    4    0    0  0.71679062842E+02  0.42940174039E+01  0.12267921720E+03  0.14214962880E+03  0.00000000000E+00 0.  1.
</event>
<event>
12    1  0.1035051E+000  0.1767857E+03  0.7818608E-02  0.1171421E+00
         21   -1    0    0  501  502  0.00000000000E+00  0.00000000000E+00  0.57474693302E+02  0.57474693302E+02  0.00000000000E+00 0.  1.
         21   -1    0    0  502  503 -0.00000000000E+00 -0.00000000000E+00 -0.72143183861E+03  0.72143183861E+03  0.00000000000E+00 0.  1.
         -6    2    1    2    0  503  0.11083118771E+01 -0.94042877058E+01 -0.52703624346E+03  0.55529857586E+03  0.17464145397E+03 0.  0.
        -24    2    3    3    0    0 -0.22113342805E+02  0.22700829081E+02 -0.50007313417E+03  0.50714171723E+03  0.78200091225E+02 0.  0.
          6    2    1    2  501    0 -0.11083118771E+01  0.94042877058E+01 -0.13692090184E+03  0.22360795605E+03  0.17653191118E+03 0.  0.
         24    2    5    5    0    0 -0.26451476096E+02 -0.46325872931E+02 -0.12828845832E+03  0.16160202199E+03  0.82531920386E+02 0.  0.
          5    1    5    5  501    0  0.25343164219E+02  0.55730160637E+02 -0.86324435187E+01  0.62005934057E+02  0.47000000000E+01 0. -1.
        -13    1    6    6    0    0  0.13227893913E+02 -0.12887311438E+01  0.59451680532E+01  0.14559636964E+02  0.00000000000E+00 0.  1.
         14    1    6    6    0    0 -0.39679370009E+02 -0.45037141787E+02 -0.13423362638E+03  0.14704238503E+03  0.00000000000E+00 0. -1.
         -5    1    3    3    0  503  0.23221654682E+02 -0.32105116787E+02 -0.26963109292E+02  0.48156858626E+02  0.47000000000E+01 0.  1.
         11    1    4    4    0    0  0.12788163374E+02 -0.22468360384E+02 -0.20245154178E+03  0.20409554407E+03  0.00000000000E+00 0. -1.
        -12    1    4    4    0    0 -0.34901506179E+02  0.45169189464E+02 -0.29762159239E+03  0.30304617316E+03  0.00000000000E+00 0.  1.
</event>
<event>
12    1  0.1035051E+000  0.2530392E+03  0.7818608E-02  0.1111506E+00
         21   -1    0    0  501  502  0.00000000000E+00  0.00000000000E+00  0.16112690383E+03  0.16112690383E+03  0.00000000000E+00 0. -1.
         21   -1    0    0  502  503 -0.00000000000E+00 -0.00000000000E+00 -0.42927845557E+03  0.42927845557E+03  0.00000000000E+00 0. -1.
         -6    2    1    2    0  503 -0.14426297627E+03 -0.11638541090E+03 -0.52090575795E+02  0.25767243077E+03  0.17124334527E+03 0.  0.
        -24    2    3    3    0    0 -0.11268819747E+03 -0.14217382402E+03 -0.74174402762E+02  0.21106991665E+03  0.78336719394E+02 0.  0.
          6    2    1    2  501    0  0.14426297627E+03  0.11638541090E+03 -0.21606097594E+03  0.33273292863E+03  0.17225413284E+03 0.  0.
         24    2    5    5    0    0  0.12218629656E+03  0.51841811488E+02 -0.21356356726E+03  0.26431083379E+03  0.81447867470E+02 0.  0.
          5    1    5    5  501    0  0.22076679714E+02  0.64543599411E+02 -0.24974086819E+01  0.68422094839E+02  0.47000000000E+01 0. -1.
        -11    1    6    6    0    0  0.97310091430E+02  0.54898329018E+02 -0.10650630457E+03  0.15435891078E+03  0.00000000000E+00 0.  1.
         12    1    6    6    0    0  0.24876205129E+02 -0.30565175302E+01 -0.10705726268E+03  0.10995192301E+03  0.00000000000E+00 0. -1.
         -5    1    3    3    0  503 -0.31574778806E+02  0.25788413125E+02  0.22083826968E+02  0.46602514114E+02  0.47000000000E+01 0.  1.
         11    1    4    4    0    0  0.14806028652E+00 -0.13298195983E+02 -0.32012957555E+02  0.34665449509E+02  0.00000000000E+00 0. -1.
        -12    1    4    4    0    0 -0.11283625775E+03 -0.12887562804E+03 -0.42161445207E+02  0.17640446714E+03  0.00000000000E+00 0.  1.
</event>
<event>
12    1  0.1035051E+000  0.1871586E+03  0.7818608E-02  0.1161566E+00
         21   -1    0    0  501  502  0.00000000000E+00  0.00000000000E+00  0.14424732137E+02  0.14424732137E+02  0.00000000000E+00 0. -1.
         21   -1    0    0  502  503 -0.00000000000E+00 -0.00000000000E+00 -0.24107910629E+04  0.24107910629E+04  0.00000000000E+00 0. -1.
         -6    2    1    2    0  503 -0.26377332200E+01 -0.65787658970E+02 -0.12884905791E+04  0.13020124128E+04  0.17519525376E+03 0.  0.
        -24    2    3    3    0    0 -0.58447140998E+02 -0.75355517726E+02 -0.71131910552E+03  0.72205100561E+03  0.79298565405E+02 0.  0.
          6    2    1    2  501    0  0.26377332200E+01  0.65787658970E+02 -0.11078757517E+04  0.11232033823E+04  0.17280677950E+03 0.  0.
         24    2    5    5    0    0  0.44659113788E+02  0.96449668558E+02 -0.77864106502E+03  0.78985142988E+03  0.79286809300E+02 0.  0.
          5    1    5    5  501    0 -0.42021380568E+02 -0.30662009589E+02 -0.32923468668E+03  0.33335195240E+03  0.47000000000E+01 0. -1.
        -11    1    6    6    0    0  0.21349814290E+02  0.76376392685E+02 -0.71258095908E+03  0.71698032831E+03  0.00000000000E+00 0.  1.
         12    1    6    6    0    0  0.23309299498E+02  0.20073275873E+02 -0.66060105938E+02  0.72871101569E+02  0.00000000000E+00 0. -1.
         -5    1    3    3    0  503  0.55809407778E+02  0.95678587567E+01 -0.57717147354E+03  0.57996140716E+03  0.47000000000E+01 0.  1.
         13    1    4    4    0    0 -0.40015433871E+02 -0.90099620618E+01 -0.44813153967E+03  0.45000476799E+03  0.00000000000E+00 0. -1.
        -14    1    4    4    0    0 -0.18431707126E+02 -0.66345555664E+02 -0.26318756585E+03  0.27204623761E+03  0.00000000000E+00 0.  1.
</event>
<event>
12    1  0.1035051E+000  0.2128570E+03  0.7818608E-02  0.1139615E+00
         21   -1    0    0  501  502  0.00000000000E+00  0.00000000000E+00  0.12366664900E+03  0.12366664900E+03  0.00000000000E+00 0.  1.
         21   -1    0    0  502  503 -0.00000000000E+00 -0.00000000000E+00 -0.37008220292E+03  0.37008220292E+03  0.00000000000E+00 0.  1.
         -6    2    1    2    0  503 -0.52483995231E+02 -0.11091523185E+03 -0.15579248817E+03  0.26377909429E+03  0.17392916030E+03 0.  0.
        -24    2    3    3    0    0  0.19651342736E+02 -0.10144619467E+03 -0.60271453895E+02  0.14361450867E+03  0.79466806032E+02 0.  0.
          6    2    1    2  501    0  0.52483995231E+02  0.11091523185E+03 -0.90623065753E+02  0.22996975763E+03  0.17209529617E+03 0.  0.
         24    2    5    5    0    0  0.81656323789E+02  0.71517968108E+02 -0.11658730958E+03  0.17429749253E+03  0.70742067893E+02 0.  0.
          5    1    5    5  501    0 -0.29172328557E+02  0.39397263740E+02  0.25964243826E+02  0.55672265098E+02  0.47000000000E+01 0. -1.
        -11    1    6    6    0    0 -0.10563470351E+02  0.66285269829E+01 -0.28828641793E+02  0.31410426031E+02  0.00000000000E+00 0.  1.
         12    1    6    6    0    0  0.92219794140E+02  0.64889441125E+02 -0.87758667786E+02  0.14288706650E+03  0.00000000000E+00 0. -1.
         -5    1    3    3    0  503 -0.72135337967E+02 -0.94690371757E+01 -0.95521034279E+02  0.12016458562E+03  0.47000000000E+01 0.  1.
         13    1    4    4    0    0 -0.11102927533E+02  0.64743342114E+01  0.50049482113E+01  0.13792806454E+02  0.00000000000E+00 0. -1.
        -14    1    4    4    0    0  0.30754270268E+02 -0.10792052888E+03 -0.65276402106E+02  0.12982170222E+03  0.00000000000E+00 0.  1.
</event>
<event>
12    1  0.1035051E+000  0.1891508E+03  0.7818608E-02  0.1159327E+00
         21   -1    0    0  503  502  0.00000000000E+00  0.00000000000E+00  0.65945961756E+02  0.65945961756E+02  0.00000000000E+00 0.  1.
         21   -1    0    0  501  503 -0.00000000000E+00 -0.00000000000E+00 -0.54695746550E+03  0.54695746550E+03  0.00000000000E+00 0.  1.
          6    2    1    2  501    0 -0.34378122297E+02 -0.68096787371E+02 -0.20962652208E+03  0.28234960579E+03  0.17308666439E+03 0.  0.
         24    2    3    3    0    0 -0.28062163970E+02 -0.52859499456E+01 -0.20284307067E+03  0.21868487584E+03  0.76565901600E+02 0.  0.
         -6    2    1    2    0  502  0.34378122297E+02  0.68096787371E+02 -0.27138498167E+03  0.33055382147E+03  0.17261805487E+03 0.  0.
        -24    2    5    5    0    0  0.26636383908E+02 -0.19463314037E+02 -0.69610242164E+02  0.11041331775E+03  0.79102448647E+02 0.  0.
          5    1    3    3  501    0 -0.63159583277E+01 -0.62810837425E+02 -0.67834514093E+01  0.63664729958E+02  0.47000000000E+01 0. -1.
        -11    1    4    4    0    0 -0.47144203037E+02  0.51624345104E+00 -0.70276791398E+02  0.84626649446E+02  0.00000000000E+00 0.  1.
         12    1    4    4    0    0  0.19082039068E+02 -0.58021933967E+01 -0.13256627927E+03  0.13405822639E+03  0.00000000000E+00 0. -1.
         -5    1    5    5    0  502  0.77417383889E+01  0.87560101408E+02 -0.20177473951E+03  0.22014050371E+03  0.47000000000E+01 0.  1.
         13    1    6    6    0    0  0.35120452245E+02 -0.31431800769E+01  0.31149273022E+01  0.35398142875E+02  0.00000000000E+00 0. -1.
        -14    1    6    6    0    0 -0.84840683369E+01 -0.16320133960E+02 -0.72725169466E+02  0.75015174878E+02  0.00000000000E+00 0.  1.
</event>
<event>
12    1  0.1035051E+000  0.1827703E+03  0.7818608E-02  0.1165368E+00
         21   -1    0    0  503  502  0.00000000000E+00  0.00000000000E+00  0.64348077108E+02  0.64348077108E+02  0.00000000000E+00 0. -1.
         21   -1    0    0  501  503 -0.00000000000E+00 -0.00000000000E+00 -0.52340396483E+03  0.52340396483E+03  0.00000000000E+00 0. -1.
          6    2    1    2  501    0 -0.29915655647E+02 -0.53487000127E+02 -0.19521992828E+03  0.26679348608E+03  0.17120788003E+03 0.  0.
         24    2    3    3    0    0 -0.33567020105E+02  0.13426664096E+02 -0.17685406446E+03  0.19715035379E+03  0.79270938775E+02 0.  0.
         -6    2    1    2    0  502  0.29915655647E+02  0.53487000127E+02 -0.26383595944E+03  0.32095855585E+03  0.17218935927E+03 0.  0.
        -24    2    5    5    0    0  0.43674813798E+02  0.14886447180E+02 -0.53741566895E+02  0.10685329926E+03  0.80002349222E+02 0.  0.
          5    1    3    3  501    0  0.36513644580E+01 -0.66913664223E+02 -0.18365863819E+02  0.69643132296E+02  0.47000000000E+01 0. -1.
        -13    1    4    4    0    0  0.16972052764E+01 -0.16800598024E+02 -0.13029842042E+03  0.13138804727E+03  0.00000000000E+00 0.  1.
         14    1    4    4    0    0 -0.35264225382E+02  0.30227262121E+02 -0.46555644037E+02  0.65762306520E+02  0.00000000000E+00 0. -1.
         -5    1    5    5    0  502 -0.13759158151E+02  0.38600552947E+02 -0.21009439254E+03  0.21410525659E+03  0.47000000000E+01 0.  1.
         11    1    6    6    0    0 -0.16895560656E+02 -0.16743403485E+02 -0.17293485176E+02  0.29408606897E+02  0.00000000000E+00 0. -1.
        -12    1    6    6    0    0  0.60570374453E+02  0.31629850665E+02 -0.36448081720E+02  0.77444692365E+02  0.00000000000E+00 0.  1.
</event>
<event>
12    1  0.1035051E+000  0.3150712E+03  0.7818608E-02  0.1077970E+00
         21   -1    0    0  501  502  0.00000000000E+00  0.00000000000E+00  0.11126431207E+04  0.11126431207E+04  0.00000000000E+00 0.  1.
         21   -1    0    0  502  503 -0.00000000000E+00 -0.00000000000E+00 -0.90532918555E+02  0.90532918555E+02  0.00000000000E+00 0.  1.
         -6    2    1    2    0  503 -0.20438371484E+03  0.16692526726E+03  0.43644275314E+03  0.53813754957E+03  0.17167701578E+03 0.  0.
        -24    2    3    3    0    0 -0.10321109917E+03  0.48633335010E+02  0.11587601068E+03  0.18174730592E+03  0.81160957929E+02 0.  0.
          6    2    1    2  501    0  0.20438371484E+03 -0.16692526726E+03  0.58566744899E+03  0.66503848967E+03  0.17214262747E+03 0.  0.
         24    2    5    5    0    0  0.36293613946E+02 -0.28918652947E+02  0.12377164871E+03  0.15448004254E+03  0.79944653472E+02 0.  0.
          5    1    5    5  501    0  0.16809010090E+03 -0.13800661431E+03  0.46189580028E+03  0.51055844712E+03  0.47000000000E+01 0. -1.
        -13    1    6    6    0    0  0.53189346103E+02 -0.12185742221E+02  0.40705974625E+02  0.68077714581E+02  0.00000000000E+00 0.  1.
         14    1    6    6    0    0 -0.16895732157E+02 -0.16732910726E+02  0.83065674082E+02  0.86402327962E+02  0.00000000000E+00 0. -1.
         -5    1    3    3    0  503 -0.10117261567E+03  0.11829193225E+03  0.32056674246E+03  0.35639024365E+03  0.47000000000E+01 0.  1.
         13    1    4    4    0    0 -0.87476582518E+02  0.50392346149E+01  0.99526876489E+02  0.13260145368E+03  0.00000000000E+00 0. -1.
        -14    1    4    4    0    0 -0.15734516653E+02  0.43594100395E+02  0.16349134190E+02  0.49145852240E+02  0.00000000000E+00 0.  1.
</event>
<event>
12    1  0.1035051E+000  0.2422341E+03  0.7818608E-02  0.1118354E+00
         21   -1    0    0  501  502  0.00000000000E+00  0.00000000000E+00  0.18931855141E+03  0.18931855141E+03  0.00000000000E+00 0. -1.
         21   -1    0    0  502  503 -0.00000000000E+00 -0.00000000000E+00 -0.47299785156E+03  0.47299785156E+03  0.00000000000E+00 0. -1.
         -6    2    1    2    0  503 -0.15180727903E+02 -0.16934652105E+03 -0.33641630100E+03  0.41440809302E+03  0.17219013124E+03 0.  0.
        -24    2    3    3    0    0 -0.69579640182E+02 -0.15118541648E+03 -0.25780387399E+03  0.31698596486E+03  0.79491559230E+02 0.  0.
          6    2    1    2  501    0  0.15180727903E+02  0.16934652105E+03  0.52737000844E+02  0.24790830994E+03  0.17253590986E+03 0.  0.
         24    2    5    5    0    0  0.40841518330E+02  0.18783205315E+03  0.55533167841E+02  0.21581314501E+03  0.80885542689E+02 0.  0.
          5    1    5    5  501    0 -0.25660790427E+02 -0.18485532104E+02 -0.27961669969E+01  0.32095164938E+02  0.47000000000E+01 0. -1.
        -13    1    6    6    0    0 -0.12065871506E+02  0.36398267677E+02 -0.14214258854E+02  0.40895773618E+02  0.00000000000E+00 0.  1.
         14    1    6    6    0    0  0.52907389837E+02  0.15143378548E+03  0.69747426695E+02  0.17491737139E+03  0.00000000000E+00 0. -1.
         -5    1    3    3    0  503  0.54398912279E+02 -0.18161104568E+02 -0.78612427007E+02  0.97422128165E+02  0.47000000000E+01 0.  1.
         11    1    4    4    0    0 -0.32075271631E+02 -0.59205773929E+01 -0.64641083052E+02  0.72404046192E+02  0.00000000000E+00 0. -1.
        -12    1    4    4    0    0 -0.37504368551E+02 -0.14526483909E+03 -0.19316279094E+03  0.24458191867E+03  0.00000000000E+00 0.  1.
</event>
<event>
12    1  0.1035051E+000  0.1827613E+03  0.7818608E-02  0.1166125E+00
         21   -1    0    0  501  502  0.00000000000E+00  0.00000000000E+00  0.11363638217E+03  0.11363638217E+03  0.00000000000E+00 0. -1.
         21   -1    0    0  502  503 -0.00000000000E+00 -0.00000000000E+00 -0.32783843924E+03  0.32783843924E+03  0.00000000000E+00 0. -1.
         -6    2    1    2    0  503  0.42952976403E+02  0.22345525300E+02 -0.28614175348E+02  0.18100493613E+03  0.17204573575E+03 0.  0.
        -24    2    3    3    0    0  0.72774169585E+02  0.65574590866E+02 -0.13347822341E+02  0.12611224803E+03  0.78294495444E+02 0.  0.
          6    2    1    2  501    0 -0.42952976403E+02 -0.22345525300E+02 -0.18558788173E+03  0.26046988528E+03  0.17623115108E+03 0.  0.
         24    2    5    5    0    0 -0.94551883083E+02 -0.24915715956E+02 -0.15236731876E+03  0.19886835239E+03  0.82291981738E+02 0.  0.
          5    1    5    5  501    0  0.51598906681E+02  0.25701906556E+01 -0.33220562966E+02  0.61601532890E+02  0.47000000000E+01 0. -1.
        -11    1    6    6    0    0 -0.64743406079E+02 -0.48919822910E+02 -0.13342890320E+03  0.15616699367E+03  0.00000000000E+00 0.  1.
         12    1    6    6    0    0 -0.29808477004E+02  0.24004106954E+02 -0.18938415564E+02  0.42701358715E+02  0.00000000000E+00 0. -1.
         -5    1    3    3    0  503 -0.29821193182E+02 -0.43229065566E+02 -0.15266353007E+02  0.54892688098E+02  0.47000000000E+01 0.  1.
         11    1    4    4    0    0  0.26074083750E+02  0.32763956497E+01  0.27627474682E+02  0.38129646853E+02  0.00000000000E+00 0. -1.
        -12    1    4    4    0    0  0.46700085835E+02  0.62298195217E+02 -0.40975297024E+02  0.87982601180E+02  0.00000000000E+00 0.  1.
</event>
<event>
12    1  0.1035051E+000  0.1983058E+03  0.7818608E-02  0.1151386E+00
         21   -1    0    0  503  502  0.00000000000E+00  0.00000000000E+00  0.30625423851E+02  0.30625423851E+02  0.00000000000E+00 0.  1.
         21   -1    0    0  501  503 -0.00000000000E+00 -0.00000000000E+00 -0.12801380759E+04  0.12801380759E+04  0.00000000000E+00 0.  1.
          6    2    1    2  501    0  0.40471380837E+02 -0.89326228308E+02 -0.59479072778E+03  0.62666847859E+03  0.17123161061E+03 0.  0.
         24    2    3    3    0    0 -0.27342561276E+02 -0.38051834758E+01 -0.34404837799E+03  0.35316089947E+03  0.74774590878E+02 0.  0.
         -6    2    1    2    0  502 -0.40471380837E+02  0.89326228308E+02 -0.65472192426E+03  0.68409502116E+03  0.17236035546E+03 0.  0.
        -24    2    5    5    0    0 -0.41094220028E+01  0.73312157922E+02 -0.62534165030E+03  0.63445700147E+03  0.78050927391E+02 0.  0.
          5    1    3    3  501    0  0.67813942114E+02 -0.85521044832E+02 -0.25074234979E+03  0.27350757912E+03  0.47000000000E+01 0. -1.
        -11    1    4    4    0    0 -0.47123964693E+02 -0.25970501023E+01 -0.31149005200E+03  0.31504517964E+03  0.00000000000E+00 0.  1.
         12    1    4    4    0    0  0.19781403417E+02 -0.12081333735E+01 -0.32558325991E+02  0.38115719837E+02  0.00000000000E+00 0. -1.
         -5    1    5    5    0  502 -0.36361958835E+02  0.16014070386E+02 -0.29380273966E+02  0.49638019692E+02  0.47000000000E+01 0.  1.
         13    1    6    6    0    0 -0.33630929241E+02  0.36522477739E+02 -0.45514073807E+03  0.45784060789E+03  0.00000000000E+00 0. -1.
        -14    1    6    6    0    0  0.29521507238E+02  0.36789680183E+02 -0.17020091223E+03  0.17661639358E+03  0.00000000000E+00 0.  1.
</event>
<event>
12    1  0.1035051E+000  0.1938046E+03  0.7818608E-02  0.1155213E+00
         21   -1    0    0  503  502  0.00000000000E+00  0.00000000000E+00  0.18682110401E+04  0.18682110401E+04  0.00000000000E+00 0. -1.
         21   -1    0    0  501  503 -0.00000000000E+00 -0.00000000000E+00 -0.20060364149E+02  0.20060364149E+02  0.00000000000E+00 0. -1.
          6    2    1    2  501    0 -0.14191271038E+02  0.88949005431E+02  0.95319200717E+03  0.97256880122E+03  0.17088520363E+03 0.  0.
         24    2    3    3    0    0 -0.16507105269E+02  0.11968543802E+03  0.89209557250E+03  0.90397612154E+03  0.82104989073E+02 0.  0.
         -6    2    1    2    0  502  0.14191271038E+02 -0.88949005431E+02  0.89495866878E+03  0.91570260303E+03  0.17160105081E+03 0.  0.
        -24    2    5    5    0    0  0.31405875240E+02  0.80940846929E+01  0.26199707513E+03  0.27509650489E+03  0.77354873291E+02 0.  0.
          5    1    3    3  501    0  0.23158342313E+01 -0.30736432587E+02  0.61096434669E+02  0.68592679680E+02  0.47000000000E+01 0. -1.
        -11    1    4    4    0    0  0.21773610333E+02  0.21492061927E+02  0.37522348705E+03  0.37646867608E+03  0.00000000000E+00 0.  1.
         12    1    4    4    0    0 -0.38280715602E+02  0.98193376090E+02  0.51687208545E+03  0.52750744546E+03  0.00000000000E+00 0. -1.
         -5    1    5    5    0  502 -0.17214604202E+02 -0.97043090123E+02  0.63296159365E+03  0.64060609814E+03  0.47000000000E+01 0.  1.
         11    1    6    6    0    0 -0.15145984470E+02  0.21639155060E+02  0.15997139765E+03  0.16213729350E+03  0.00000000000E+00 0. -1.
        -12    1    6    6    0    0  0.46551859710E+02 -0.13545070367E+02  0.10202567748E+03  0.11295921139E+03  0.00000000000E+00 0.  1.
</event>
<event>
12    1  0.1035051E+000  0.3060325E+03  0.7818608E-02  0.1082414E+00
         21   -1    0    0  503  502  0.00000000000E+00  0.00000000000E+00  0.38727481323E+03  0.38727481323E+03  0.00000000000E+00 0. -1.
         21   -1    0    0  501  503 -0.00000000000E+00 -0.00000000000E+00 -0.24396625218E+03  0.24396625218E+03  0.00000000000E+00 0.  1.
          6    2    1    2  501    0  0.10705203184E+03  0.22769782036E+03  0.10712668074E+03  0.32307712152E+03  0.17203565272E+03 0.  0.
         24    2    3    3    0    0  0.96566521828E+02  0.76631486508E+02  0.18271240826E+02  0.14744010280E+03  0.78786215857E+02 0.  0.
         -6    2    1    2    0  502 -0.10705203184E+03 -0.22769782036E+03  0.36181880300E+02  0.30816394389E+03  0.17421094380E+03 0.  0.
        -24    2    5    5    0    0  0.10627106213E+02 -0.64646814400E+02  0.71701930050E+01  0.10494539633E+03  0.81669936598E+02 0.  0.
          5    1    3    3  501    0  0.10485510010E+02  0.15106633385E+03  0.88855439919E+02  0.17563701872E+03  0.47000000000E+01 0. -1.
        -13    1    4    4    0    0 -0.13279464385E+02  0.15140705339E+02  0.56874387370E+01  0.20926827087E+02  0.00000000000E+00 0.  1.
         14    1    4    4    0    0  0.10984598621E+03  0.61490781169E+02  0.12583802089E+02  0.12651327571E+03  0.00000000000E+00 0. -1.
         -5    1    5    5    0  502 -0.11767913805E+03 -0.16305100596E+03  0.29011687295E+02  0.20321854757E+03  0.47000000000E+01 0.  1.
         11    1    6    6    0    0 -0.79472777843E+01 -0.73113134693E+02 -0.14732833860E+02  0.75004973718E+02  0.00000000000E+00 0. -1.
        -12    1    6    6    0    0  0.18574383997E+02  0.84663202927E+01  0.21903026865E+02  0.29940422609E+02  0.00000000000E+00 0.  1.
</event>
<event>
12    1  0.1035051E+000  0.1771259E+03  0.7818608E-02  0.1170904E+00
         21   -1    0    0  503  502  0.00000000000E+00  0.00000000000E+00  0.28317483017E+03  0.28317483017E+03  0.00000000000E+00 0.  1.
         21   -1    0    0  501  503 -0.00000000000E+00 -0.00000000000E+00 -0.11203560918E+03  0.11203560918E+03  0.00000000000E+00 0.  1.
          6    2    1    2  501    0 -0.77987341314E+01  0.45713020493E+02  0.11207375241E+03  0.20960464281E+03  0.17094759376E+03 0.  0.
         24    2    3    3    0    0 -0.18616363736E+02 -0.39483820763E+02  0.35076542637E+02  0.94165554184E+02  0.75704997528E+02 0.  0.
         -6    2    1    2    0  502  0.77987341314E+01 -0.45713020493E+02  0.59065468592E+02  0.18560579654E+03  0.16973591733E+03 0.  0.
        -24    2    5    5    0    0 -0.56749520222E+02 -0.34982810046E+02  0.64146116686E+02  0.11980672709E+03  0.76122418020E+02 0.  0.
          5    1    3    3  501    0  0.10817629604E+02  0.85196841256E+02  0.76997209769E+02  0.11543908862E+03  0.47000000000E+01 0. -1.
        -13    1    4    4    0    0 -0.14786958485E+02 -0.36650285962E+02 -0.16167947684E+02  0.42700118673E+02  0.00000000000E+00 0.  1.
         14    1    4    4    0    0 -0.38294052507E+01 -0.28335348007E+01  0.51244490322E+02  0.51465435511E+02  0.00000000000E+00 0. -1.
         -5    1    5    5    0  502  0.64548254353E+02 -0.10730210447E+02 -0.50806480934E+01  0.65799069456E+02  0.47000000000E+01 0.  1.
         11    1    6    6    0    0 -0.33806222372E+02 -0.56323372763E+02  0.26518150791E+02  0.70840633197E+02  0.00000000000E+00 0. -1.
        -12    1    6    6    0    0 -0.22943297850E+02  0.21340562717E+02  0.37627965895E+02  0.48966093889E+02  0.00000000000E+00 0.  1.
</event>
<event>
12    1  0.1035051E+000  0.3253364E+03  0.7818608E-02  0.1075098E+00
         21   -1    0    0  503  502  0.00000000000E+00  0.00000000000E+00  0.12998802371E+04  0.12998802371E+04  0.00000000000E+00 0. -1.
         21   -1    0    0  501  503 -0.00000000000E+00 -0.00000000000E+00 -0.78705343309E+02  0.78705343309E+02  0.00000000000E+00 0. -1.
          6    2    1    2  501    0  0.25769144522E+03  0.57160398185E+02  0.50696433514E+03  0.59376679784E+03  0.16085391214E+03 0.  0.
         24    2    3    3    0    0  0.16011212538E+03  0.82301412611E+02  0.25221630298E+03  0.31977328668E+03  0.78946033300E+02 0.  0.
         -6    2    1    2    0  502 -0.25769144522E+03 -0.57160398185E+02  0.71421055862E+03  0.78481878255E+03  0.19018834698E+03 0.  0.
        -24    2    5    5    0    0 -0.69645822006E+02 -0.18178667423E+02  0.12247102558E+03  0.16267852770E+03  0.79272610614E+02 0.  0.
          5    1    3    3  501    0  0.97579319842E+02 -0.25141014427E+02  0.25474803216E+03  0.27399351116E+03  0.47000000000E+01 0. -1.
        -11    1    4    4    0    0  0.72085310055E+02 -0.29627277178E+01  0.11539483941E+03  0.13609202271E+03  0.00000000000E+00 0.  1.
         12    1    4    4    0    0  0.88026815322E+02  0.85264140329E+02  0.13682146357E+03  0.18368126398E+03  0.00000000000E+00 0. -1.
         -5    1    5    5    0  502 -0.18804562321E+03 -0.38981730762E+02  0.59173953304E+03  0.62214025485E+03  0.47000000000E+01 0.  1.
         11    1    6    6    0    0 -0.19404879273E+02 -0.14596443552E+02  0.10738972995E+03  0.11010067939E+03  0.00000000000E+00 0. -1.
        -12    1    6    6    0    0 -0.50240942733E+02 -0.35822238710E+01  0.15081295639E+02  0.52577848308E+02  0.00000000000E+00 0.  1.
</event>
<event>
12    1  0.1035051E+000  0.1945134E+03  0.7818608E-02  0.1154675E+00
         21   -1    0    0  501  502  0.00000000000E+00  0.00000000000E+00  0.66412135721E+03  0.66412135721E+03  0.00000000000E+00 0. -1.
         21   -1    0    0  502  503 -0.00000000000E+00 -0.00000000000E+00 -0.60329703380E+02  0.60329703380E+02  0.00000000000E+00 0. -1.
         -6    2    1    2    0  503  0.74568932771E+02 -0.48439027069E+02  0.39031974718E+03  0.43565056507E+03  0.17185762925E+03 0.  0.
        -24    2    3    3    0    0  0.74431275110E+02 -0.79511805402E+02  0.19153271370E+03  0.23439472992E+03  0.79962285390E+02 0.  0.
          6    2    1    2  501    0 -0.74568932771E+02  0.48439027069E+02  0.21347190664E+03  0.28880049551E+03  0.17299886186E+03 0.  0.
         24    2    5    5    0    0 -0.99470548651E+02 -0.49308740216E+01  0.10511530385E+03  0.16538380221E+03  0.79899132432E+02 0.  0.
          5    1    5    5  501    0  0.24901615880E+02  0.53369901091E+02  0.10835660279E+03  0.12341669330E+03  0.47000000000E+01 0. -1.
        -11    1    6    6    0    0 -0.85105748896E+02  0.25959103413E+02  0.94277978817E+02  0.12963487507E+03  0.00000000000E+00 0.  1.
         12    1    6    6    0    0 -0.14364799755E+02 -0.30889977435E+02  0.10837325036E+02  0.35748927142E+02  0.00000000000E+00 0. -1.
         -5    1    3    3    0  503  0.13765766125E+00  0.31072778332E+02  0.19878703348E+03  0.20125583515E+03  0.47000000000E+01 0.  1.
         11    1    4    4    0    0  0.18369976688E+02  0.84756001611E+01  0.52739769978E+01  0.20907096283E+02  0.00000000000E+00 0. -1.
        -12    1    4    4    0    0  0.56061298422E+02 -0.87987405563E+02  0.18625873670E+03  0.21348763364E+03  0.00000000000E+00 0.  1.
</event>
<event>
12    1  0.1035051E+000  0.2364368E+03  0.7818608E-02  0.1122255E+00
         21   -1    0    0  501  502  0.00000000000E+00  0.00000000000E+00  0.27378208371E+02  0.27378208371E+02  0.00000000000E+00 0. -1.
         21   -1    0    0  502  503 -0.00000000000E+00 -0.00000000000E+00 -0.26831543349E+04  0.26831543349E+04  0.00000000000E+00 0. -1.
         -6    2    1    2    0  503 -0.75425468955E+02  0.14275890804E+03 -0.66443071337E+03  0.70524500819E+03  0.17272301961E+03 0.  0.
        -24    2    3    3    0    0 -0.35664745261E+02  0.82160765971E+01 -0.17273624179E+03  0.19390536369E+03  0.80137399962E+02 0.  0.
          6    2    1    2  501    0  0.75425468955E+02 -0.14275890804E+03 -0.19913454131E+04  0.20052875351E+04  0.17219882893E+03 0.  0.
         24    2    5    5    0    0  0.45540985775E+02 -0.21236174678E+02 -0.12400544348E+04  0.12436307349E+04  0.79733600865E+02 0.  0.
          5    1    5    5  501    0  0.29884483179E+02 -0.12152273336E+03 -0.75129097834E+03  0.76165680014E+03  0.47000000000E+01 0. -1.
        -13    1    6    6    0    0  0.32446435386E+02 -0.40530109540E+02 -0.41338136841E+03  0.41662887165E+03  0.00000000000E+00 0.  1.
         14    1    6    6    0    0  0.13094550389E+02  0.19293934862E+02 -0.82667306639E+03  0.82700186328E+03  0.00000000000E+00 0. -1.
         -5    1    3    3    0  503 -0.39760723694E+02  0.13454283144E+03 -0.49169447159E+03  0.51133964449E+03  0.47000000000E+01 0.  1.
         13    1    4    4    0    0 -0.52212218366E+02 -0.15288946250E+02 -0.79460996428E+02  0.96301181599E+02  0.00000000000E+00 0. -1.
        -14    1    4    4    0    0  0.16547473105E+02  0.23505022847E+02 -0.93275245358E+02  0.97604182091E+02  0.00000000000E+00 0.  1.
</event>
<event>
12    1  0.1035051E+000  0.1847235E+03  0.7818608E-02  0.1163369E+00
         21   -1    0    0  503  502  0.00000000000E+00  0.00000000000E+00  0.36777628936E+02  0.36777628936E+02  0.00000000000E+00 0. -1.
         21   -1    0    0  501  503 -0.00000000000E+00 -0.00000000000E+00 -0.11052543091E+04  0.11052543091E+04  0.00000000000E+00 0. -1.
          6    2    1    2  501    0  0.65814302414E+02  0.11519035175E+02 -0.76355682378E+03  0.78552264095E+03  0.17193773794E+03 0.  0.
         24    2    3    3    0    0  0.91187872051E+02  0.34628992624E+02 -0.71491217529E+03  0.72580430209E+03  0.78600708736E+02 0.  0.
         -6    2    1    2    0  502 -0.65814302414E+02 -0.11519035175E+02 -0.30491985642E+03  0.35650929712E+03  0.17221657737E+03 0.  0.
        -24    2    5    5    0    0  0.21626324212E+02 -0.39523596285E+02 -0.17806091776E+03  0.19983958420E+03  0.78742341974E+02 0.  0.
          5    1    3    3  501    0 -0.25373569637E+02 -0.23109957449E+02 -0.48644648487E+02  0.59718338857E+02  0.47000000000E+01 0. -1.
        -13    1    4    4    0    0  0.48203246395E+02  0.14951378645E+02 -0.59147127710E+03  0.59362055921E+03  0.00000000000E+00 0.  1.
         14    1    4    4    0    0  0.42984625656E+02  0.19677613980E+02 -0.12344089819E+03  0.13218374288E+03  0.00000000000E+00 0. -1.
         -5    1    5    5    0  502 -0.87440626626E+02  0.28004561110E+02 -0.12685893867E+03  0.15666971292E+03  0.47000000000E+01 0.  1.
         11    1    6    6    0    0 -0.17082804786E+02 -0.41881006341E+02 -0.13250591735E+03  0.14001306741E+03  0.00000000000E+00 0. -1.
        -12    1    6    6    0    0  0.38709128998E+02  0.23574100560E+01 -0.45555000405E+02  0.59826516796E+02  0.00000000000E+00 0.  1.
</event>
<event>
12    1  0.1035051E+000  0.2149839E+03  0.7818608E-02  0.1137781E+00
         21   -1    0    0  501  502  0.00000000000E+00  0.00000000000E+00  0.74468508470E+03  0.74468508470E+03  0.00000000000E+00 0. -1.
         21   -1    0    0  502  503 -0.00000000000E+00 -0.00000000000E+00 -0.80435787498E+02  0.80435787498E+02  0.00000000000E+00 0. -1.
         -6    2    1    2    0  503  0.12087903500E+03  0.44367747346E+02  0.13381845514E+03  0.25277922466E+03  0.17149262193E+03 0.  0.
        -24    2    3    3    0    0  0.91731497792E+02  0.71228205784E+02  0.15325754163E+03  0.20838292711E+03  0.80295985316E+02 0.  0.
          6    2    1    2  501    0 -0.12087903500E+03 -0.44367747346E+02  0.53043084207E+03  0.57234164754E+03  0.17215645555E+03 0.  0.
         24    2    5    5    0    0 -0.75004562849E+02 -0.31205589558E+02  0.14836124308E+03  0.18727414949E+03  0.80380814553E+02 0.  0.
          5    1    5    5  501    0 -0.45874472155E+02 -0.13162157789E+02  0.38206959898E+03  0.38506749806E+03  0.47000000000E+01 0. -1.
        -11    1    6    6    0    0 -0.83985946681E+02 -0.46256510408E+02  0.13306569903E+03  0.16401153695E+03  0.00000000000E+00 0.  1.
         12    1    6    6    0    0  0.89813838319E+01  0.15050920851E+02  0.15295544057E+02  0.23262612536E+02  0.00000000000E+00 0. -1.
         -5    1    3    3    0  503  0.29147537211E+02 -0.26860458438E+02 -0.19439086488E+02  0.44396297553E+02  0.47000000000E+01 0.  1.
         13    1    4    4    0    0  0.99267009797E+01 -0.14035195031E+02  0.33645058450E+01  0.17517020052E+02  0.00000000000E+00 0. -1.
        -14    1    4    4    0    0  0.81804796812E+02  0.85263400816E+02  0.14989303578E+03  0.19086590706E+03  0.00000000000E+00 0.  1.
</event>
<event>
12    1  0.1035051E+000  0.1827264E+03  0.7818608E-02  0.1165208E+00
         21   -1    0    0  501  502  0.00000000000E+00  0.00000000000E+00  0.46174689104E+02  0.46174689104E+02  0.00000000000E+00 0.  1.
         21   -1    0    0  502  503 -0.00000000000E+00 -0.00000000000E+00 -0.72734918385E+03  0.72734918385E+03  0.00000000000E+00 0.  1.
         -6    2    1    2    0  503  0.48102938909E+01  0.60590926987E+02 -0.37123938896E+03  0.41377243883E+03  0.17232106040E+03 0.  0.
        -24    2    3    3    0    0 -0.50402255116E+02  0.28784216181E+02 -0.30559032168E+03  0.32216467467E+03  0.83879165918E+02 0.  0.
          6    2    1    2  501    0 -0.48102938909E+01 -0.60590926987E+02 -0.30993510578E+03  0.35975143412E+03  0.17224089293E+03 0.  0.
         24    2    5    5    0    0 -0.53708973222E+01 -0.96805987423E+02 -0.29447961166E+03  0.32009280105E+03  0.79629855351E+02 0.  0.
          5    1    5    5  501    0  0.56060343135E+00  0.36215060436E+02 -0.15455494126E+02  0.39658633074E+02  0.47000000000E+01 0. -1.
        -13    1    6    6    0    0  0.30086227233E+02 -0.81339953267E+02 -0.19923701029E+03  0.21729416775E+03  0.00000000000E+00 0.  1.
         14    1    6    6    0    0 -0.35457124555E+02 -0.15466034156E+02 -0.95242601362E+02  0.10279863330E+03  0.00000000000E+00 0. -1.
         -5    1    3    3    0  503  0.55212549007E+02  0.31806710806E+02 -0.65649067282E+02  0.91607764164E+02  0.47000000000E+01 0.  1.
         13    1    4    4    0    0  0.20898223097E+02  0.18740525703E+02 -0.60094417044E+02  0.66327083399E+02  0.00000000000E+00 0. -1.
        -14    1    4    4    0    0 -0.71300478213E+02  0.10043690477E+02 -0.24549590464E+03  0.25583759127E+03  0.00000000000E+00 0.  1.
</event>
<event>
12    1  0.1035051E+000  0.3609683E+03  0.7818608E-02  0.1058254E+00
         21   -1    0    0  503  502  0.00000000000E+00  0.00000000000E+00  0.16835738499E+03  0.16835738499E+03  0.00000000000E+00 0. -1.
         21   -1    0    0  501  503 -0.00000000000E+00 -0.00000000000E+00 -0.77415320850E+03  0.77415320850E+03  0.00000000000E+00 0.  1.
          6    2    1    2  501    0  0.18539166204E+03 -0.25753176421E+03 -0.32250861370E+03  0.48365358875E+03  0.17092779198E+03 0.  0.
         24    2    3    3    0    0  0.57129279590E+02 -0.12246482340E+03 -0.22260591944E+03  0.27223704358E+03  0.79361356912E+02 0.  0.
         -6    2    1    2    0  502 -0.18539166204E+03  0.25753176421E+03 -0.28328720980E+03  0.45885700473E+03  0.17206228413E+03 0.  0.
        -24    2    5    5    0    0 -0.15368796564E+03  0.20020167736E+03 -0.13661128140E+03  0.29814676487E+03  0.80796960311E+02 0.  0.
          5    1    3    3  501    0  0.12826238245E+03 -0.13506694081E+03 -0.99902694259E+02  0.21141654517E+03  0.47000000000E+01 0. -1.
        -13    1    4    4    0    0 -0.19293692016E+02 -0.13321359232E+02 -0.35232590698E+02  0.42320687739E+02  0.00000000000E+00 0.  1.
         14    1    4    4    0    0  0.76422971606E+02 -0.10914346417E+03 -0.18737332874E+03  0.22991635584E+03  0.00000000000E+00 0. -1.
         -5    1    5    5    0  502 -0.31703696399E+02  0.57330086853E+02 -0.14667592840E+03  0.16071023986E+03  0.47000000000E+01 0.  1.
         13    1    6    6    0    0  0.73207153322E+01  0.28865105949E+02 -0.18132515971E+02  0.34865102178E+02  0.00000000000E+00 0. -1.
        -14    1    6    6    0    0 -0.16100868098E+03  0.17133657141E+03 -0.11847876543E+03  0.26328166269E+03  0.00000000000E+00 0.  1.
</event>
<event>
12    1  0.1035051E+000  0.2793518E+03  0.7818608E-02  0.1096250E+00
         21   -1    0    0  501  502  0.00000000000E+00  0.00000000000E+00  0.32612119650E+03  0.32612119650E+03  0.00000000000E+00 0.  1.
         21   -1    0    0  502  503 -0.00000000000E+00 -0.00000000000E+00 -0.45685386080E+03  0.45685386080E+03  0.00000000000E+00 0.  1.
         -6    2    1    2    0  503  0.95221774348E+02 -0.19959150020E+03 -0.33623102028E+03  0.43617975923E+03  0.16821869723E+03 0.  0.
        -24    2    3    3    0    0 -0.75932643472E+00 -0.60871689043E+02 -0.17661366245E+03  0.20389685276E+03  0.81704355452E+02 0.  0.
          6    2    1    2  501    0 -0.95221774348E+02  0.19959150020E+03  0.20549835599E+03  0.34679529807E+03  0.17068524009E+03 0.  0.
         24    2    5    5    0    0 -0.12138380078E+02  0.23274852659E+02  0.75805296592E+02  0.11263127381E+03  0.79058850298E+02 0.  0.
          5    1    5    5  501    0 -0.83083394270E+02  0.17631664754E+03  0.12969305940E+03  0.23416402426E+03  0.47000000000E+01 0. -1.
        -13    1    6    6    0    0  0.15861044748E+02  0.23554136607E+02 -0.34213928284E+01  0.28602028262E+02  0.00000000000E+00 0.  1.
         14    1    6    6    0    0 -0.27999424826E+02 -0.27928394839E+00  0.79226689420E+02  0.84029245544E+02  0.00000000000E+00 0. -1.
         -5    1    3    3    0  503  0.95981100783E+02 -0.13871981115E+03 -0.15961735784E+03  0.23228290647E+03  0.47000000000E+01 0.  1.
         11    1    4    4    0    0 -0.15039788775E+02 -0.74338202212E+02 -0.10426212432E+03  0.12893003577E+03  0.00000000000E+00 0. -1.
        -12    1    4    4    0    0  0.14280462340E+02  0.13466513168E+02 -0.72351538123E+02  0.74966816995E+02  0.00000000000E+00 0.  1.
</event>
<event>
12    1  0.1035051E+000  0.2599073E+03  0.7818608E-02  0.1108063E+00
         21   -1    0    0  501  502  0.00000000000E+00  0.00000000000E+00  0.57099252877E+03  0.57099252877E+03  0.00000000000E+00 0.  1.
         21   -1    0    0  502  503 -0.00000000000E+00 -0.00000000000E+00 -0.12371254380E+03  0.12371254380E+03  0.00000000000E+00 0.  1.
         -6    2    1    2    0  503 -0.17290081353E+03  0.43415174316E+02  0.31415829995E+03  0.40773428043E+03  0.18913549993E+03 0.  0.
        -24    2    3    3    0    0 -0.77925299732E+02  0.66394271813E+02  0.27240623693E+03  0.30136834646E+03  0.78340096152E+02 0.  0.
          6    2    1    2  501    0  0.17290081353E+03 -0.43415174316E+02  0.13312168502E+03  0.28697079213E+03  0.18124923126E+03 0.  0.
         24    2    5    5    0    0  0.19770515203E+03 -0.12070940555E+02  0.10846953107E+03  0.23977402431E+03  0.80578587839E+02 0.  0.
          5    1    5    5  501    0 -0.24804338499E+02 -0.31344233762E+02  0.24652153952E+02  0.47196767823E+02  0.47000000000E+01 0. -1.
        -11    1    6    6    0    0  0.46049320877E+02  0.30632442539E+02  0.38467546877E+02  0.67369419263E+02  0.00000000000E+00 0.  1.
         12    1    6    6    0    0  0.15165583115E+03 -0.42703383094E+02  0.70001984195E+02  0.17240460505E+03  0.00000000000E+00 0. -1.
         -5    1    3    3    0  503 -0.94975513798E+02 -0.22979097496E+02  0.41752063019E+02  0.10636593397E+03  0.47000000000E+01 0.  1.
         11    1    4    4    0    0 -0.52249440885E+02  0.41638069707E+01  0.66118915851E+02  0.84374477151E+02  0.00000000000E+00 0. -1.
        -12    1    4    4    0    0 -0.25675858847E+02  0.62230464842E+02  0.20628732108E+03  0.21699386931E+03  0.00000000000E+00 0.  1.
</event>
<event>
12    1  0.1035051E+000  0.1763874E+03  0.7818608E-02  0.1171729E+00
         21   -1    0    0  503  502  0.00000000000E+00  0.00000000000E+00  0.23966607993E+02  0.23966607993E+02  0.00000000000E+00 0.  1.
         21   -1    0    0  501  503 -0.00000000000E+00 -0.00000000000E+00 -0.14162552535E+04  0.14162552535E+04  0.00000000000E+00 0.  1.
          6    2    1    2  501    0 -0.11746973585E+02  0.39790686917E+02 -0.91102127955E+03  0.92764912694E+03  0.16985829615E+03 0.  0.
         24    2    3    3    0    0  0.15695199064E+02 -0.40042699398E+02 -0.41397941120E+03  0.42346746196E+03  0.78076766033E+02 0.  0.
         -6    2    1    2    0  502  0.11746973585E+02 -0.39790686917E+02 -0.48126736597E+03  0.51257273456E+03  0.17143873692E+03 0.  0.
        -24    2    5    5    0    0 -0.61854902715E+02 -0.27589213779E+02 -0.31659249825E+03  0.33172469283E+03  0.72272181196E+02 0.  0.
          5    1    3    3  501    0 -0.27442172648E+02  0.79833386315E+02 -0.49704186835E+03  0.50418166498E+03  0.47000000000E+01 0. -1.
        -13    1    4    4    0    0  0.30195824341E+02 -0.43521693735E+02 -0.15020156887E+03  0.15926844296E+03  0.00000000000E+00 0.  1.
         14    1    4    4    0    0 -0.14500625277E+02  0.34789943369E+01 -0.26377784234E+03  0.26419901900E+03  0.00000000000E+00 0. -1.
         -5    1    5    5    0  502  0.73601876299E+02 -0.12201473138E+02 -0.16467486771E+03  0.18084804173E+03  0.47000000000E+01 0.  1.
         13    1    6    6    0    0 -0.35362602873E+02  0.10035523474E+02 -0.55243778056E+02  0.66355862041E+02  0.00000000000E+00 0. -1.
        -14    1    6    6    0    0 -0.26492299841E+02 -0.37624737252E+02 -0.26134872020E+03  0.26536883079E+03  0.00000000000E+00 0.  1.
</event>
<event>
12    1  0.1035051E+000  0.3709390E+03  0.7818608E-02  0.1054337E+00
         21   -1    0    0  503  502  0.00000000000E+00  0.00000000000E+00  0.61977370098E+03  0.61977370098E+03  0.00000000000E+00 0. -1.
         21   -1    0    0  501  503 -0.00000000000E+00 -0.00000000000E+00 -0.25125071371E+03  0.25125071371E+03  0.00000000000E+00 0. -1.
          6    2    1    2  501    0 -0.15423797859E+03 -0.29100740215E+03  0.33288200817E+03  0.49840365388E+03  0.17064908053E+03 0.  0.
         24    2    3    3    0    0 -0.77193517236E+01 -0.99700580312E+02  0.12953051975E+03  0.18306268612E+03  0.82060937102E+02 0.  0.
         -6    2    1    2    0  502  0.15423797859E+03  0.29100740215E+03  0.35640979104E+02  0.37262076081E+03  0.17059100166E+03 0.  0.
        -24    2    5    5    0    0  0.10184092211E+03  0.70139709183E+02  0.26101515998E+02  0.14537402116E+03  0.71841246297E+02 0.  0.
          5    1    3    3  501    0 -0.14651862687E+03 -0.19130682184E+03  0.20335148843E+03  0.31534096776E+03  0.47000000000E+01 0. -1.
        -11    1    4    4    0    0 -0.31909514145E+02 -0.95445697899E+02  0.12025050541E+03  0.15680651259E+03  0.00000000000E+00 0.  1.
         12    1    4    4    0    0  0.24190162421E+02 -0.42548824130E+01  0.92800143432E+01  0.26256173531E+02  0.00000000000E+00 0. -1.
         -5    1    5    5    0  502  0.52397056476E+02  0.22086769297E+03  0.95394631060E+01  0.22724673965E+03  0.47000000000E+01 0.  1.
         13    1    6    6    0    0  0.33888663159E+02  0.68533770678E+01 -0.21815029416E+02  0.40881606822E+02  0.00000000000E+00 0. -1.
        -14    1    6    6    0    0  0.67952258954E+02  0.63286332115E+02  0.47916545414E+02  0.10449241434E+03  0.00000000000E+00 0.  1.
</event>
<event>
12    1  0.1035051E+000  0.2523499E+03  0.7818608E-02  0.1111930E+00
         21   -1    0    0  501  502  0.00000000000E+00  0.00000000000E+00  0.63214122012E+02  0.63214122012E+02  0.00000000000E+00 0.  1.
         21   -1    0    0  502  503 -0.00000000000E+00 -0.00000000000E+00 -0.17830293865E+04  0.17830293865E+04  0.00000000000E+00 0.  1.
         -6    2    1    2    0  503 -0.13000875673E+03  0.13216458064E+03 -0.14703999446E+04  0.14918969347E+04  0.17120371925E+03 0.  0.
        -24    2    3    3    0    0 -0.77928757167E+02  0.56313722824E+02 -0.44109978515E+03  0.45848192260E+03  0.79953275861E+02 0.  0.
          6    2    1    2  501    0  0.13000875673E+03 -0.13216458064E+03 -0.24941531990E+03  0.35434657383E+03  0.17024611414E+03 0.  0.
         24    2    5    5    0    0  0.11921853533E+02 -0.97864692412E+02 -0.10407567892E+03  0.16390839415E+03  0.79464370113E+02 0.  0.
          5    1    5    5  501    0  0.11808690319E+03 -0.34299888230E+02 -0.14533964098E+03  0.19043817968E+03  0.47000000000E+01 0. -1.
        -11    1    6    6    0    0  0.21231428621E+02 -0.10284743111E+03 -0.65167274132E+02  0.12359264243E+03  0.00000000000E+00 0.  1.
         12    1    6    6    0    0 -0.93095750880E+01  0.49827386935E+01 -0.38908404786E+02  0.40315751713E+02  0.00000000000E+00 0. -1.
         -5    1    3    3    0  503 -0.52079999558E+02  0.75850857818E+02 -0.10293001595E+04  0.10334150121E+04  0.47000000000E+01 0.  1.
         11    1    4    4    0    0 -0.68941695658E+02  0.23432948007E+02 -0.39202695766E+03  0.39873198515E+03  0.00000000000E+00 0. -1.
        -12    1    4    4    0    0 -0.89870615090E+01  0.32880774817E+02 -0.49072827491E+02  0.59749937449E+02  0.00000000000E+00 0.  1.
</event>
<event>
12    1  0.1035051E+000  0.3702846E+03  0.7818608E-02  0.1054590E+00
         21   -1    0    0  501  502  0.00000000000E+00  0.00000000000E+00  0.72660540536E+03  0.72660540536E+03  0.00000000000E+00 0.  1.
         21   -1    0    0  502  503 -0.00000000000E+00 -0.00000000000E+00 -0.19920140141E+03  0.19920140141E+03  0.00000000000E+00 0. -1.
         -6    2    1    2    0  503 -0.14157038589E+03  0.29574541504E+03  0.37016732109E+03  0.52357858464E+03  0.17205570032E+03 0.  0.
        -24    2    3    3    0    0 -0.24555070638E+02  0.20506705894E+03  0.23751063310E+03  0.32474439458E+03  0.79951052639E+02 0.  0.
          6    2    1    2  501    0  0.14157038589E+03 -0.29574541504E+03  0.15723668287E+03  0.40222822214E+03  0.17192045709E+03 0.  0.
         24    2    5    5    0    0  0.15148046706E+03 -0.18539663618E+03  0.14093273827E+03  0.29014356076E+03  0.83683956238E+02 0.  0.
          5    1    5    5  501    0 -0.99100811661E+01 -0.11034877886E+03  0.16303944594E+02  0.11208466137E+03  0.47000000000E+01 0. -1.
        -13    1    6    6    0    0  0.12394000497E+02 -0.65703718694E+02  0.17899778795E+02  0.69216991985E+02  0.00000000000E+00 0.  1.
         14    1    6    6    0    0  0.13908646656E+03 -0.11969291748E+03  0.12303295948E+03  0.22092656878E+03  0.00000000000E+00 0. -1.
         -5    1    3    3    0  503 -0.11701531525E+03  0.90678356096E+02  0.13265668799E+03  0.19883419006E+03  0.47000000000E+01 0.  1.
         13    1    4    4    0    0 -0.12848454685E+02  0.72234813496E+01 -0.83585017293E+00  0.14763472360E+02  0.00000000000E+00 0. -1.
        -14    1    4    4    0    0 -0.11706615952E+02  0.19784357759E+03  0.23834648327E+03  0.30998092222E+03  0.00000000000E+00 0.  1.
</event>
<event>
12    1  0.1035051E+000  0.2001035E+03  0.7818608E-02  0.1149699E+00
         21   -1    0    0  503  502  0.00000000000E+00  0.00000000000E+00  0.12515798708E+04  0.12515798708E+04  0.00000000000E+00 0.  1.
         21   -1    0    0  501  503 -0.00000000000E+00 -0.00000000000E+00 -0.32115059879E+02  0.32115059879E+02  0.00000000000E+00 0.  1.
          6    2    1    2  501    0  0.43708575673E+02  0.95337461697E+02  0.56433336826E+03  0.59868500276E+03  0.17015261032E+03 0.  0.
         24    2    3    3    0    0  0.80371690329E+02  0.27087872929E+02  0.40452876219E+03  0.42102861400E+03  0.80176136735E+02 0.  0.
         -6    2    1    2    0  502 -0.43708575673E+02 -0.95337461697E+02  0.65513144271E+03  0.68500992797E+03  0.17041632260E+03 0.  0.
        -24    2    5    5    0    0  0.10238868938E+02 -0.97744779749E+02  0.33434489042E+03  0.35967590871E+03  0.89002118811E+02 0.  0.
          5    1    3    3  501    0 -0.36663114656E+02  0.68249588768E+02  0.15980460608E+03  0.17765638876E+03  0.47000000000E+01 0. -1.
        -13    1    4    4    0    0  0.70416358800E+01  0.89856057709E+01  0.21432060628E+01  0.11615467238E+02  0.00000000000E+00 0.  1.
         14    1    4    4    0    0  0.73330054450E+02  0.18102267158E+02  0.40238555612E+03  0.40941314676E+03  0.00000000000E+00 0. -1.
         -5    1    5    5    0  502 -0.53947444611E+02  0.24073180518E+01  0.32078655229E+03  0.32533401926E+03  0.47000000000E+01 0.  1.
         11    1    6    6    0    0 -0.13082007895E+02 -0.10593865326E+03  0.28810789298E+03  0.30724631028E+03  0.00000000000E+00 0. -1.
        -12    1    6    6    0    0  0.23320876833E+02  0.81938735084E+01  0.46236997442E+02  0.52429598433E+02  0.00000000000E+00 0.  1.
</event>
<event>
12    1  0.1035051E+000  0.1938647E+03  0.7818608E-02  0.1155273E+00
         21   -1    0    0  503  502  0.00000000000E+00  0.00000000000E+00  0.13140651295E+03  0.13140651295E+03  0.00000000000E+00 0. -1.
         21   -1    0    0  501  503 -0.00000000000E+00 -0.00000000000E+00 -0.35886890270E+03  0.35886890270E+03  0.00000000000E+00 0. -1.
          6    2    1    2  501    0 -0.85533419789E+02  0.83026392015E+01 -0.22725497191E+01  0.19387799563E+03  0.17377748125E+03 0.  0.
         24    2    3    3    0    0 -0.28968363402E+02 -0.51822609426E+02  0.26469281480E+02  0.10634038093E+03  0.84159995422E+02 0.  0.
         -6    2    1    2    0  502  0.85533419789E+02 -0.83026392015E+01 -0.22518984004E+03  0.29639742002E+03  0.17249946903E+03 0.  0.
        -24    2    5    5    0    0  0.82327765855E+02 -0.32129955469E+02 -0.68614506381E+02  0.13791731929E+03  0.80641437263E+02 0.  0.
          5    1    3    3  501    0 -0.56565056387E+02  0.60125248628E+02 -0.28741831199E+02  0.87537614699E+02  0.47000000000E+01 0. -1.
        -13    1    4    4    0    0 -0.53616001376E+01  0.21277678197E+02 -0.62941371526E+01  0.22827669789E+02  0.00000000000E+00 0.  1.
         14    1    4    4    0    0 -0.23606763265E+02 -0.73100287623E+02  0.32763418633E+02  0.83512711146E+02  0.00000000000E+00 0. -1.
         -5    1    5    5    0  502  0.32056539337E+01  0.23827316268E+02 -0.15657533366E+03  0.15848010073E+03  0.47000000000E+01 0.  1.
         11    1    6    6    0    0  0.32779212532E+02 -0.46881685201E+02 -0.64264712988E+02  0.86036750967E+02  0.00000000000E+00 0. -1.
        -12    1    6    6    0    0  0.49548553323E+02  0.14751729732E+02 -0.43497933932E+01  0.51880568319E+02  0.00000000000E+00 0.  1.
</event>
<event>
12    1  0.1035051E+000  0.3039141E+03  0.7818608E-02  0.1083635E+00
         21   -1    0    0  503  502  0.00000000000E+00  0.00000000000E+00  0.15413681504E+04  0.15413681504E+04  0.00000000000E+00 0. -1.
         21   -1    0    0  501  503 -0.00000000000E+00 -0.00000000000E+00 -0.80898905790E+02  0.80898905790E+02  0.00000000000E+00 0. -1.
          6    2    1    2  501    0 -0.14622028270E+03 -0.19922010990E+03  0.11508880006E+04  0.11903390098E+04  0.17690320834E+03 0.  0.
         24    2    3    3    0    0 -0.63793150668E+02 -0.16351156931E+03  0.55642075559E+03  0.58910467335E+03  0.81453419436E+02 0.  0.
         -6    2    1    2    0  502  0.14622028270E+03  0.19922010990E+03  0.30958124404E+03  0.43192804640E+03  0.17219833723E+03 0.  0.
        -24    2    5    5    0    0  0.12509857684E+03  0.15922997339E+03  0.14502459088E+03  0.26120511421E+03  0.78690160601E+02 0.  0.
          5    1    3    3  501    0 -0.82427132036E+02 -0.35708540580E+02  0.59446724500E+03  0.60123433646E+03  0.47000000000E+01 0. -1.
        -13    1    4    4    0    0 -0.95469043804E+01 -0.22760046401E+02  0.20765009045E+03  0.20911174802E+03  0.00000000000E+00 0.  1.
         14    1    4    4    0    0 -0.54246246288E+02 -0.14075152291E+03  0.34877066515E+03  0.37999292534E+03  0.00000000000E+00 0. -1.
         -5    1    5    5    0  502  0.21121705861E+02  0.39990136506E+02  0.16455665316E+03  0.17072293219E+03  0.47000000000E+01 0.  1.
         11    1    6    6    0    0  0.15921394589E+02  0.64044403414E+01  0.45541531709E+02  0.48667635777E+02  0.00000000000E+00 0. -1.
        -12    1    6    6    0    0  0.10917718225E+03  0.15282553305E+03  0.99483059175E+02  0.21253747843E+03  0.00000000000E+00 0.  1.
</event>
<event>
12    1  0.1035051E+000  0.4613520E+03  0.7818608E-02  0.1024635E+00
         21   -1    0    0  501  502  0.00000000000E+00  0.00000000000E+00  0.10136822593E+04  0.10136822593E+04  0.00000000000E+00 0.  1.
         21   -1    0    0  502  503 -0.00000000000E+00 -0.00000000000E+00 -0.22698011904E+03  0.22698011904E+03  0.00000000000E+00 0.  1.
         -6    2    1    2    0  503 -0.42763515346E+03 -0.89986889430E+00  0.21473147736E+03  0.50581810409E+03  0.16391983655E+03 0.  0.
        -24    2    3    3    0    0 -0.42282169809E+03  0.43057317213E+01  0.17417061682E+03  0.46437487740E+03  0.80696315266E+02 0.  0.
          6    2    1    2  501    0  0.42763515346E+03  0.89986889430E+00  0.57197066294E+03  0.73484427430E+03  0.17312721903E+03 0.  0.
         24    2    5    5    0    0  0.36180268437E+03  0.27073541643E+02  0.38579288430E+03  0.53558757958E+03  0.79898352606E+02 0.  0.
          5    1    5    5  501    0  0.65832469092E+02 -0.26173672748E+02  0.18617777864E+03  0.19925669472E+03  0.47000000000E+01 0. -1.
        -13    1    6    6    0    0  0.84686335640E+02 -0.12964428622E+02  0.53273001246E+02  0.10088540289E+03  0.00000000000E+00 0.  1.
         14    1    6    6    0    0  0.27711634873E+03  0.40037970265E+02  0.33251988305E+03  0.43470217669E+03  0.00000000000E+00 0. -1.
         -5    1    3    3    0  503 -0.48134553715E+01 -0.52056006156E+01  0.40560860543E+02  0.41443226689E+02  0.47000000000E+01 0.  1.
         11    1    4    4    0    0 -0.28466681452E+03  0.19293083420E+02  0.15316248295E+03  0.32383045648E+03  0.00000000000E+00 0. -1.
        -12    1    4    4    0    0 -0.13815488356E+03 -0.14987351699E+02  0.21008133867E+02  0.14054442092E+03  0.00000000000E+00 0.  1.
</event>
<event>
12    1  0.1035051E+000  0.2199806E+03  0.7818608E-02  0.1134115E+00
         21   -1    0    0  503  502  0.00000000000E+00  0.00000000000E+00  0.45162749642E+03  0.45162749642E+03  0.00000000000E+00 0.  1.
         21   -1    0    0  501  503 -0.00000000000E+00 -0.00000000000E+00 -0.10659053518E+03  0.10659053518E+03  0.00000000000E+00 0.  1.
          6    2    1    2  501    0 -0.35618427953E+02  0.12936902586E+03  0.16989217105E+03  0.27702919437E+03  0.17284908876E+03 0.  0.
         24    2    3    3    0    0 -0.35127494971E+02  0.86385513782E+02  0.19231735091E+03  0.22831777869E+03  0.80291012647E+02 0.  0.
         -6    2    1    2    0  502  0.35618427953E+02 -0.12936902586E+03  0.17514479019E+03  0.28118883724E+03  0.17431708865E+03 0.  0.
        -24    2    5    5    0    0  0.29030326049E+02 -0.24641889945E+02  0.14833343962E+03  0.17278166680E+03  0.80004453007E+02 0.  0.
          5    1    3    3  501    0 -0.49093298230E+00  0.42983512077E+02 -0.22425179856E+02  0.48711415677E+02  0.47000000000E+01 0. -1.
        -13    1    4    4    0    0 -0.28579368392E+02  0.97897462171E+02  0.13332929561E+03  0.16786123574E+03  0.00000000000E+00 0.  1.
         14    1    4    4    0    0 -0.65481265793E+01 -0.11511948390E+02  0.58988055296E+02  0.60456542946E+02  0.00000000000E+00 0. -1.
         -5    1    5    5    0  502  0.65881019045E+01 -0.10472713591E+03  0.26811350569E+02  0.10840717044E+03  0.47000000000E+01 0.  1.
         13    1    6    6    0    0  0.50194393344E+02 -0.38139491109E+02  0.97797089993E+02  0.11635449590E+03  0.00000000000E+00 0. -1.
        -14    1    6    6    0    0 -0.21164067295E+02  0.13497601165E+02  0.50536349626E+02  0.56427170895E+02  0.00000000000E+00 0.  1.
</event>
<event>
12    1  0.1035051E+000  0.4705140E+03  0.7818608E-02  0.1021778E+00
         21   -1    0    0  503  502  0.00000000000E+00  0.00000000000E+00  0.17881643930E+04  0.17881643930E+04  0.00000000000E+00 0. -1.
         21   -1    0    0  501  503 -0.00000000000E+00 -0.00000000000E+00 -0.13514603795E+03  0.13514603795E+03  0.00000000000E+00 0. -1.
          6    2    1    2  501    0 -0.40410348166E+03 -0.16831275170E+03  0.11051749834E+04  0.12011499266E+04  0.17239662359E+03 0.  0.
         24    2    3    3    0    0 -0.90913712502E+02 -0.74881126551E+02  0.29517976915E+03  0.32769034695E+03  0.79858506939E+02 0.  0.
         -6    2    1    2    0  502  0.40410348166E+03  0.16831275170E+03  0.54784337164E+03  0.72216050440E+03  0.17249529847E+03 0.  0.
        -24    2    5    5    0    0  0.17850443866E+03  0.96840123876E+02  0.17267199805E+03  0.27856281021E+03  0.80868882203E+02 0.  0.
          5    1    3    3  501    0 -0.31318976916E+03 -0.93431625147E+02  0.80999521428E+03  0.87345957963E+03  0.47000000000E+01 0. -1.
        -11    1    4    4    0    0 -0.63606567304E+02 -0.48497497260E+02  0.27127528437E+03  0.28282164442E+03  0.00000000000E+00 0.  1.
         12    1    4    4    0    0 -0.27307145198E+02 -0.26383629291E+02  0.23904484785E+02  0.44868702525E+02  0.00000000000E+00 0. -1.
         -5    1    5    5    0  502  0.22559904301E+03  0.71472627822E+02  0.37517137359E+03  0.44359769419E+03  0.47000000000E+01 0.  1.
         11    1    6    6    0    0  0.63645715309E+02  0.72724225518E+02  0.50072484132E+02  0.10884320705E+03  0.00000000000E+00 0. -1.
        -12    1    6    6    0    0  0.11485872335E+03  0.24115898358E+02  0.12259951392E+03  0.16971960316E+03  0.00000000000E+00 0.  1.
</event>
<event>
12    1  0.1035051E+000  0.2101626E+03  0.7818608E-02  0.1141739E+00
         21   -1    0    0  501  502  0.00000000000E+00  0.00000000000E+00  0.10909656050E+03  0.10909656050E+03  0.00000000000E+00 0. -1.
         21   -1    0    0  502  503 -0.00000000000E+00 -0.00000000000E+00 -0.61528147837E+03  0.61528147837E+03  0.00000000000E+00 0. -1.
         -6    2    1    2    0  503  0.39814315486E+02 -0.11202377344E+03 -0.46576850719E+03  0.51036450799E+03  0.17145589285E+03 0.  0.
        -24    2    3    3    0    0 -0.33101435819E+02 -0.37860629836E+02 -0.22813434219E+03  0.25092479432E+03  0.91590621625E+02 0.  0.
          6    2    1    2  501    0 -0.39814315486E+02  0.11202377344E+03 -0.40416410681E+02  0.21401353088E+03  0.17330262437E+03 0.  0.
         24    2    5    5    0    0  0.71376783708E+01  0.33666831955E+02 -0.76801634255E+02  0.11557433898E+03  0.79211961096E+02 0.  0.
          5    1    5    5  501    0 -0.46951993857E+02  0.78356941486E+02  0.36385223573E+02  0.98439191894E+02  0.47000000000E+01 0. -1.
        -13    1    6    6    0    0  0.94578492691E+01  0.36405006645E+02  0.10615567754E+01  0.37628477572E+02  0.00000000000E+00 0.  1.
         14    1    6    6    0    0 -0.23201708983E+01 -0.27381746894E+01 -0.77863191030E+02  0.77945861410E+02  0.00000000000E+00 0. -1.
         -5    1    3    3    0  503  0.72915751306E+02 -0.74163143605E+02 -0.23763416500E+03  0.25943971368E+03  0.47000000000E+01 0.  1.
         13    1    4    4    0    0 -0.23541887154E+02 -0.49831135466E+02 -0.22904145627E+03  0.23557875797E+03  0.00000000000E+00 0. -1.
        -14    1    4    4    0    0 -0.95595486656E+01  0.11970505630E+02  0.90711407988E+00  0.15346036351E+02  0.00000000000E+00 0.  1.
</event>
<event>
12    1  0.1035051E+000  0.2069145E+03  0.7818608E-02  0.1144038E+00
         21   -1    0    0  501  502  0.00000000000E+00  0.00000000000E+00  0.11611171859E+04  0.11611171859E+04  0.00000000000E+00 0. -1.
         21   -1    0    0  502  503 -0.00000000000E+00 -0.00000000000E+00 -0.53415401428E+02  0.53415401428E+02  0.00000000000E+00 0. -1.
         -6    2    1    2    0  503 -0.95814544263E+02 -0.63059891587E+02  0.89186954478E+03  0.91555715208E+03  0.17221102461E+03 0.  0.
        -24    2    3    3    0    0 -0.17087644043E+02 -0.42328622109E+01  0.19269755967E+03  0.20949617811E+03  0.80289441633E+02 0.  0.
          6    2    1    2  501    0  0.95814544263E+02  0.63059891587E+02  0.21583223969E+03  0.29897543524E+03  0.17217949463E+03 0.  0.
         24    2    5    5    0    0  0.12157629099E+03  0.91368329093E+02  0.16954369720E+03  0.23872799219E+03  0.71533369151E+02 0.  0.
          5    1    5    5  501    0 -0.25761746731E+02 -0.28308437506E+02  0.46288542489E+02  0.60247443053E+02  0.47000000000E+01 0. -1.
        -13    1    6    6    0    0  0.61535346783E+02  0.72250667757E+01  0.85025590115E+02  0.10520528251E+03  0.00000000000E+00 0.  1.
         14    1    6    6    0    0  0.60040944210E+02  0.84143262318E+02  0.84518107081E+02  0.13352270968E+03  0.00000000000E+00 0. -1.
         -5    1    3    3    0  503 -0.78726900219E+02 -0.58827029376E+02  0.69917198511E+03  0.70606097397E+03  0.47000000000E+01 0.  1.
         11    1    4    4    0    0  0.51779540975E+01 -0.34616542784E+02  0.14250732257E+03  0.14674281321E+03  0.00000000000E+00 0. -1.
        -12    1    4    4    0    0 -0.22265598141E+02  0.30383680573E+02  0.50190237100E+02  0.62753364897E+02  0.00000000000E+00 0.  1.
</event>
<event>
12    1  0.1035051E+000  0.3766175E+03  0.7818608E-02  0.1052193E+00
         21   -1    0    0  503  502  0.00000000000E+00  0.00000000000E+00  0.60013429995E+03  0.60013429995E+03  0.00000000000E+00 0. -1.
         21   -1    0    0  501  503 -0.00000000000E+00 -0.00000000000E+00 -0.87985715903E+03  0.87985715903E+03  0.00000000000E+00 0. -1.
          6    2    1    2  501    0 -0.16558737192E+03 -0.29140268192E+03  0.49299422585E+03  0.62039025044E+03  0.17177326728E+03 0.  0.
         24    2    3    3    0    0 -0.15546680408E+03 -0.18589211298E+03  0.42037866122E+03  0.49182113954E+03  0.80274589066E+02 0.  0.
         -6    2    1    2    0  502  0.16558737192E+03  0.29140268192E+03 -0.77271708493E+03  0.85960120854E+03  0.17172024809E+03 0.  0.
        -24    2    5    5    0    0  0.14417053809E+03  0.16148438344E+03 -0.56817416213E+03  0.61629616888E+03  0.10068137427E+03 0.  0.
          5    1    3    3  501    0 -0.10120567843E+02 -0.10551056894E+03  0.72615564632E+02  0.12856911091E+03  0.47000000000E+01 0. -1.
        -13    1    4    4    0    0 -0.36087573323E+02 -0.53141635591E+02  0.52695435608E+02  0.83085229227E+02  0.00000000000E+00 0.  1.
         14    1    4    4    0    0 -0.11937923075E+03 -0.13275047739E+03  0.36768322561E+03  0.40873591031E+03  0.00000000000E+00 0. -1.
         -5    1    5    5    0  502  0.21416833828E+02  0.12991829848E+03 -0.20454292281E+03  0.24330503966E+03  0.47000000000E+01 0.  1.
         13    1    6    6    0    0  0.10960713823E+03  0.12585053485E+03 -0.52368750991E+03  0.54963687095E+03  0.00000000000E+00 0. -1.
        -14    1    6    6    0    0  0.34563399859E+02  0.35633848594E+02 -0.44486652212E+02  0.66659297930E+02  0.00000000000E+00 0.  1.
</event>
<event>
12    1  0.1035051E+000  0.2164566E+03  0.7818608E-02  0.1136766E+00
         21   -1    0    0  503  502  0.00000000000E+00  0.00000000000E+00  0.12706455335E+03  0.12706455335E+03  0.00000000000E+00 0.  1.
         21   -1    0    0  501  503 -0.00000000000E+00 -0.00000000000E+00 -0.45290582107E+03  0.45290582107E+03  0.00000000000E+00 0.  1.
          6    2    1    2  501    0 -0.54306983126E+02  0.11777861609E+03 -0.36162111818E+02  0.21835254620E+03  0.17189847374E+03 0.  0.
         24    2    3    3    0    0 -0.83747790900E+02  0.77294480054E+02 -0.72068848026E+02  0.15656978049E+03  0.79574167788E+02 0.  0.
         -6    2    1    2    0  502  0.54306983126E+02 -0.11777861609E+03 -0.28967915590E+03  0.36161782822E+03  0.17329855595E+03 0.  0.
        -24    2    5    5    0    0  0.39244250980E+02 -0.12014966204E+03 -0.30494937501E+03  0.33953214620E+03  0.79447494989E+02 0.  0.
          5    1    3    3  501    0  0.29440807775E+02  0.40484136041E+02  0.35906736208E+02  0.61782765708E+02  0.47000000000E+01 0. -1.
        -11    1    4    4    0    0 -0.72881144930E+02  0.43990434145E+02 -0.10555187458E+02  0.85780135025E+02  0.00000000000E+00 0.  1.
         12    1    4    4    0    0 -0.10866645970E+02  0.33304045908E+02 -0.61513660567E+02  0.70789645464E+02  0.00000000000E+00 0. -1.
         -5    1    5    5    0  502  0.15062732146E+02  0.23710459423E+01  0.15270219108E+02  0.22085682017E+02  0.47000000000E+01 0.  1.
         13    1    6    6    0    0 -0.96336539855E+01 -0.82318615318E+02 -0.21474484124E+03  0.23018364093E+03  0.00000000000E+00 0. -1.
        -14    1    6    6    0    0  0.48877904965E+02 -0.37831046720E+02 -0.90204533777E+02  0.10934850526E+03  0.00000000000E+00 0.  1.
</event>
<event>
12    1  0.1035051E+000  0.2479338E+03  0.7818608E-02  0.1114658E+00
         21   -1    0    0  501  502  0.00000000000E+00  0.00000000000E+00  0.14136939376E+03  0.14136939376E+03  0.00000000000E+00 0.  1.
         21   -1    0    0  502  503 -0.00000000000E+00 -0.00000000000E+00 -0.47768972430E+03  0.47768972430E+03  0.00000000000E+00 0.  1.
         -6    2    1    2    0  503  0.10767867760E+03 -0.14317485122E+03 -0.75038463290E+02  0.25904037604E+03  0.17139839501E+03 0.  0.
        -24    2    3    3    0    0  0.10490903604E+03 -0.31399507560E+02 -0.27681754588E+02  0.13752434325E+03  0.78452728008E+02 0.  0.
          6    2    1    2  501    0 -0.10767867760E+03  0.14317485122E+03 -0.26128186725E+03  0.36001874203E+03  0.17103083005E+03 0.  0.
         24    2    5    5    0    0 -0.12435098434E+03  0.59343474708E+02 -0.19738499722E+03  0.25319849348E+03  0.78510029162E+02 0.  0.
          5    1    5    5  501    0  0.16672306739E+02  0.83831376512E+02 -0.63896870031E+02  0.10682024855E+03  0.47000000000E+01 0. -1.
        -13    1    6    6    0    0  0.11782572731E+01  0.27182589121E+02 -0.50191807054E+02  0.57092021657E+02  0.00000000000E+00 0.  1.
         14    1    6    6    0    0 -0.12552924161E+03  0.32160885587E+02 -0.14719319016E+03  0.19610647183E+03  0.00000000000E+00 0. -1.
         -5    1    3    3    0  503  0.27696415645E+01 -0.11177534366E+03 -0.47356708702E+02  0.12151603279E+03  0.47000000000E+01 0.  1.
         13    1    4    4    0    0  0.83827524872E+02 -0.15909069672E+02 -0.53548100857E+02  0.10073505611E+03  0.00000000000E+00 0. -1.
        -14    1    4    4    0    0  0.21081511165E+02 -0.15490437888E+02  0.25866346269E+02  0.36789287140E+02  0.00000000000E+00 0.  1.
</event>
<event>
12    1  0.1035051E+000  0.2155213E+03  0.7818608E-02  0.1137722E+00
         21   -1    0    0  503  502  0.00000000000E+00  0.00000000000E+00  0.20826771281E+02  0.20826771281E+02  0.00000000000E+00 0.  1.
         21   -1    0    0  501  503 -0.00000000000E+00 -0.00000000000E+00 -0.22379569875E+04  0.22379569875E+04  0.00000000000E+00 0.  1.
          6    2    1    2  501    0 -0.11179949424E+03 -0.60434714352E+02 -0.12498501741E+04  0.12682960612E+04  0.17406309071E+03 0.  0.
         24    2    3    3    0    0 -0.10880063319E+03  0.15625113225E+02 -0.67209721798E+03  0.68553139271E+03  0.78465903584E+02 0.  0.
         -6    2    1    2    0  502  0.11179949424E+03  0.60434714352E+02 -0.96728004213E+03  0.99048769759E+03  0.17112485958E+03 0.  0.
        -24    2    5    5    0    0  0.69498480733E+01  0.66698331984E+02 -0.38756562853E+03  0.40131575957E+03  0.79688484672E+02 0.  0.
          5    1    3    3  501    0 -0.29988610570E+01 -0.76059827577E+02 -0.57775295609E+03  0.58276466847E+03  0.47000000000E+01 0. -1.
        -11    1    4    4    0    0 -0.20458205622E+02  0.25452074331E+02 -0.34597552133E+03  0.34751317619E+03  0.00000000000E+00 0.  1.
         12    1    4    4    0    0 -0.88342427564E+02 -0.98269611061E+01 -0.32612169665E+03  0.33801821652E+03  0.00000000000E+00 0. -1.
         -5    1    5    5    0  502  0.10484964617E+03 -0.62636176322E+01 -0.57971441361E+03  0.58917193802E+03  0.47000000000E+01 0.  1.
         13    1    6    6    0    0  0.28899161174E+02  0.20006304248E+02 -0.58630675021E+02  0.68359123602E+02  0.00000000000E+00 0. -1.
        -14    1    6    6    0    0 -0.21949313101E+02  0.46692027736E+02 -0.32893495351E+03  0.33295663597E+03  0.00000000000E+00 0.  1.
</event>
<event>
12    1  0.1035051E+000  0.1818992E+03  0.7818608E-02  0.1166132E+00
         21   -1    0    0  503  502  0.00000000000E+00  0.00000000000E+00  0.12826294307E+03  0.12826294307E+03  0.00000000000E+00 0. -1.
         21   -1    0    0  501  503 -0.00000000000E+00 -0.00000000000E+00 -0.26114934634E+03  0.26114934634E+03  0.00000000000E+00 0. -1.
          6    2    1    2  501    0 -0.33408529521E+02 -0.53055256785E+02 -0.41935118080E+02  0.18604206464E+03  0.17006500396E+03 0.  0.
         24    2    3    3    0    0 -0.75131705122E+01 -0.62822303933E+02 -0.85715855012E+02  0.13403429835E+03  0.81332009267E+02 0.  0.
         -6    2    1    2    0  502  0.33408529521E+02  0.53055256785E+02 -0.90951285190E+02  0.20337022478E+03  0.17075222379E+03 0.  0.
        -24    2    5    5    0    0  0.31133661242E+02 -0.24870308511E+02 -0.87200291175E+02  0.12517988836E+03  0.80487741685E+02 0.  0.
          5    1    3    3  501    0 -0.25895359008E+02  0.97670471488E+01  0.43780736932E+02  0.52007766290E+02  0.47000000000E+01 0. -1.
        -13    1    4    4    0    0 -0.25579115805E+02 -0.22258497484E+02 -0.82869525108E+02  0.89538204512E+02  0.00000000000E+00 0.  1.
         14    1    4    4    0    0  0.18065945293E+02 -0.40563806449E+02 -0.28463299040E+01  0.44496093839E+02  0.00000000000E+00 0. -1.
         -5    1    5    5    0  502  0.22748682780E+01  0.77925565296E+02 -0.37509940155E+01  0.78190336414E+02  0.47000000000E+01 0.  1.
         13    1    6    6    0    0  0.80333770210E+01 -0.45817456404E+02 -0.19110296064E+02  0.50288943848E+02  0.00000000000E+00 0. -1.
        -14    1    6    6    0    0  0.23100284222E+02  0.20947147893E+02 -0.68089995111E+02  0.74890944514E+02  0.00000000000E+00 0.  1.
</event>
<event>
12    1  0.1035051E+000  0.3099712E+03  0.7818608E-02  0.1080475E+00
         21   -1    0    0  501  502  0.00000000000E+00  0.00000000000E+00  0.13139611866E+04  0.13139611866E+04  0.00000000000E+00 0.  1.
         21   -1    0    0  502  503 -0.00000000000E+00 -0.00000000000E+00 -0.72898262669E+02  0.72898262669E+02  0.00000000000E+00 0.  1.
         -6    2    1    2    0  503 -0.48004453357E+02  0.25219924450E+03  0.62298928030E+03  0.69584320700E+03  0.17370445844E+03 0.  0.
        -24    2    3    3    0    0  0.17073515914E+02  0.21019309579E+03  0.39303767975E+03  0.45315104147E+03  0.79966281730E+02 0.  0.
          6    2    1    2  501    0  0.48004453357E+02 -0.25219924450E+03  0.61807364363E+03  0.69101624227E+03  0.17198701017E+03 0.  0.
         24    2    5    5    0    0  0.66450529763E+02 -0.17320799300E+03  0.54705819910E+03  0.58310350479E+03  0.79500580856E+02 0.  0.
          5    1    5    5  501    0 -0.18446076406E+02 -0.78991251498E+02  0.71015444528E+02  0.10791273748E+03  0.47000000000E+01 0. -1.
        -11    1    6    6    0    0  0.25843950233E+02 -0.20556325901E+01  0.71671786667E+02  0.76216667422E+02  0.00000000000E+00 0.  1.
         12    1    6    6    0    0  0.40606579530E+02 -0.17115236041E+03  0.47538641243E+03  0.50688683737E+03  0.00000000000E+00 0. -1.
         -5    1    3    3    0  503 -0.65077969271E+02  0.42006148711E+02  0.22995160055E+03  0.24269216553E+03  0.47000000000E+01 0.  1.
         13    1    4    4    0    0 -0.61026975535E+01  0.64443957064E+02  0.19966523759E+03  0.20989634018E+03  0.00000000000E+00 0. -1.
        -14    1    4    4    0    0  0.23176213468E+02  0.14574913873E+03  0.19337244217E+03  0.24325470129E+03  0.00000000000E+00 0.  1.
</event>
<event>
12    1  0.1035051E+000  0.2036171E+03  0.7818608E-02  0.1147252E+00
         21   -1    0    0  501  502  0.00000000000E+00  0.00000000000E+00  0.59050798383E+02  0.59050798383E+02  0.00000000000E+00 0. -1.
         21   -1    0    0  502  503 -0.00000000000E+00 -0.00000000000E+00 -0.88851075720E+03  0.88851075720E+03  0.00000000000E+00 0. -1.
         -6    2    1    2    0  503 -0.71479180757E+02 -0.83393108839E+02 -0.19472252341E+03  0.28173882412E+03  0.17145325897E+03 0.  0.
        -24    2    3    3    0    0 -0.82574252738E+01 -0.65208742007E+02 -0.19036781405E+03  0.21564256813E+03  0.77080785263E+02 0.  0.
          6    2    1    2  501    0  0.71479180757E+02  0.83393108839E+02 -0.63473743541E+03  0.66582273146E+03  0.16841797390E+03 0.  0.
         24    2    5    5    0    0  0.54188436038E+02  0.11790916904E+03 -0.47556114250E+03  0.50196452908E+03  0.94715518526E+02 0.  0.
          5    1    5    5  501    0  0.17290744719E+02 -0.34516060197E+02 -0.15917629291E+03  0.16385820238E+03  0.47000000000E+01 0. -1.
        -11    1    6    6    0    0 -0.67628703568E+01  0.71748593189E+02 -0.32740784755E+03  0.33524542603E+03  0.00000000000E+00 0.  1.
         12    1    6    6    0    0  0.60951306395E+02  0.46160575848E+02 -0.14815329496E+03  0.16671910304E+03  0.00000000000E+00 0. -1.
         -5    1    3    3    0  503 -0.63221755483E+02 -0.18184366832E+02 -0.43547093619E+01  0.66096255999E+02  0.47000000000E+01 0.  1.
         11    1    4    4    0    0  0.19196739806E+02 -0.51749872304E+02 -0.17041917830E+03  0.17913475496E+03  0.00000000000E+00 0. -1.
        -12    1    4    4    0    0 -0.27454165080E+02 -0.13458869703E+02 -0.19948635747E+02  0.36507813165E+02  0.00000000000E+00 0.  1.
</event>
<event>
12    1  0.1035051E+000  0.1890443E+03  0.7818608E-02  0.1160818E+00
         21   -1    0    0  503  502  0.00000000000E+00  0.00000000000E+00  0.32153606788E+03  0.32153606788E+03  0.00000000000E+00 0.  1.
         21   -1    0    0  501  503 -0.00000000000E+00 -0.00000000000E+00 -0.12177075659E+03  0.12177075659E+03  0.00000000000E+00 0.  1.
          6    2    1    2  501    0 -0.71785194259E+02 -0.30373159540E+02  0.25239671112E+02  0.19072175474E+03  0.17222689626E+03 0.  0.
         24    2    3    3    0    0 -0.56946139437E+02 -0.75663977581E+01  0.82416592096E+02  0.12722658780E+03  0.78064055872E+02 0.  0.
         -6    2    1    2    0  502  0.71785194259E+02  0.30373159540E+02  0.17452564018E+03  0.25258506973E+03  0.16511927639E+03 0.  0.
        -24    2    5    5    0    0  0.35973760711E+02  0.36677638243E+02  0.18985846901E+03  0.21284351888E+03  0.81343498011E+02 0.  0.
          5    1    3    3  501    0 -0.14839054822E+02 -0.22806761782E+02 -0.57176920984E+02  0.63495166935E+02  0.47000000000E+01 0. -1.
        -13    1    4    4    0    0 -0.83358015611E+01 -0.34369680553E+02  0.11543593760E+02  0.37202353230E+02  0.00000000000E+00 0.  1.
         14    1    4    4    0    0 -0.48610337876E+02  0.26803282795E+02  0.70872998336E+02  0.90024234571E+02  0.00000000000E+00 0. -1.
         -5    1    5    5    0  502  0.35811433547E+02 -0.63044787033E+01 -0.15332828825E+02  0.39741550853E+02  0.47000000000E+01 0.  1.
         11    1    6    6    0    0  0.52730264658E+02  0.51355215570E+02  0.15281917774E+03  0.16962175586E+03  0.00000000000E+00 0. -1.
        -12    1    6    6    0    0 -0.16756503947E+02 -0.14677577327E+02  0.37039291269E+02  0.43221763019E+02  0.00000000000E+00 0.  1.
</event>
<event>
12    1  0.1035051E+000  0.2220278E+03  0.7818608E-02  0.1133240E+00
         21   -1    0    0  503  502  0.00000000000E+00  0.00000000000E+00  0.17770487444E+03  0.17770487444E+03  0.00000000000E+00 0. -1.
         21   -1    0    0  501  503 -0.00000000000E+00 -0.00000000000E+00 -0.35313318000E+03  0.35313318000E+03  0.00000000000E+00 0. -1.
          6    2    1    2  501    0  0.11525974446E+03 -0.80215366975E+02  0.39052994080E+02  0.22543622980E+03  0.17197977663E+03 0.  0.
         24    2    3    3    0    0  0.59271482247E+02 -0.37848695671E+02 -0.45191938636E+02  0.11566866159E+03  0.79945578897E+02 0.  0.
         -6    2    1    2    0  502 -0.11525974446E+03  0.80215366975E+02 -0.21448129963E+03  0.30540182464E+03  0.16597810943E+03 0.  0.
        -24    2    5    5    0    0 -0.56189392374E+02  0.41983805555E+02 -0.21271839730E+03  0.23485994624E+03  0.70641277266E+02 0.  0.
          5    1    3    3  501    0  0.55988262212E+02 -0.42366671304E+02  0.84244932716E+02  0.10976756821E+03  0.47000000000E+01 0. -1.
        -13    1    4    4    0    0  0.30208577379E+02 -0.57073738187E+02 -0.86105276126E+01  0.65146841241E+02  0.00000000000E+00 0.  1.
         14    1    4    4    0    0  0.29062904868E+02  0.19225042516E+02 -0.36581411024E+02  0.50521820351E+02  0.00000000000E+00 0. -1.
         -5    1    5    5    0  502 -0.59070352085E+02  0.38231561420E+02 -0.17629023388E+01  0.70541878403E+02  0.47000000000E+01 0.  1.
         11    1    6    6    0    0  0.16398549631E+02  0.96143344198E+01 -0.28853572186E+02  0.34552517770E+02  0.00000000000E+00 0. -1.
        -12    1    6    6    0    0 -0.72587942006E+02  0.32369471135E+02 -0.18386482511E+03  0.20030742847E+03  0.00000000000E+00 0.  1.
</event>
<event>
12    1  0.1035051E+000  0.2012755E+03  0.7818608E-02  0.1148883E+00
         21   -1    0    0  501  502  0.00000000000E+00  0.00000000000E+00  0.56454840446E+03  0.56454840446E+03  0.00000000000E+00 0. -1.
         21   -1    0    0  502  503 -0.00000000000E+00 -0.00000000000E+00 -0.71399283850E+02  0.71399283850E+02  0.00000000000E+00 0. -1.
         -6    2    1    2    0  503  0.10177328079E+03  0.14322360937E+02  0.24432205805E+03  0.31655191477E+03  0.17305755108E+03 0.  0.
        -24    2    3    3    0    0  0.10235502766E+03 -0.13671785329E+02  0.25385941775E+03  0.28660092339E+03  0.83857116017E+02 0.  0.
          6    2    1    2  501    0 -0.10177328079E+03 -0.14322360937E+02  0.24882706257E+03  0.31939577355E+03  0.17185989174E+03 0.  0.
         24    2    5    5    0    0 -0.81019086176E+02  0.35800969225E+01  0.26433986747E+03  0.28755285114E+03  0.78956742860E+02 0.  0.
          5    1    5    5  501    0 -0.20754194613E+02 -0.17902457859E+02 -0.15512804909E+02  0.31842922410E+02  0.47000000000E+01 0. -1.
        -11    1    6    6    0    0 -0.87257748475E+02  0.18037821282E+02  0.17027587956E+03  0.19218000111E+03  0.00000000000E+00 0.  1.
         12    1    6    6    0    0  0.62386622986E+01 -0.14457724359E+02  0.94063987914E+02  0.95372850032E+02  0.00000000000E+00 0. -1.
         -5    1    3    3    0  503 -0.58174686709E+00  0.27994146266E+02 -0.95373596982E+01  0.29950991379E+02  0.47000000000E+01 0.  1.
         11    1    4    4    0    0 -0.60514453260E+01  0.53938278503E+01 -0.17557198166E+01  0.82943306835E+01  0.00000000000E+00 0. -1.
        -12    1    4    4    0    0  0.10840647298E+03 -0.19065613180E+02  0.25561513756E+03  0.27830659270E+03  0.00000000000E+00 0.  1.
</event>
<event>
12    1  0.1035051E+000  0.1771855E+03  0.7818608E-02  0.1170563E+00
         21   -1    0    0  503  502  0.00000000000E+00  0.00000000000E+00  0.38737007488E+02  0.38737007488E+02  0.00000000000E+00 0.  1.
         21   -1    0    0  501  503 -0.00000000000E+00 -0.00000000000E+00 -0.19514996309E+04  0.19514996309E+04  0.00000000000E+00 0.  1.
          6    2    1    2  501    0  0.44193573872E+02 -0.10707168182E+01 -0.19536900995E+03  0.26372700461E+03  0.17154784902E+03 0.  0.
         24    2    3    3    0    0 -0.96844400865E+01 -0.44272397501E+02 -0.15859253139E+03  0.18534444930E+03  0.84540761250E+02 0.  0.
         -6    2    1    2    0  502 -0.44193573872E+02  0.10707168182E+01 -0.17173936134E+04  0.17265096338E+04  0.17158226473E+03 0.  0.
        -24    2    5    5    0    0 -0.96192714030E+02  0.51107344701E+01 -0.12135047824E+04  0.12199069528E+04  0.79372279241E+02 0.  0.
          5    1    3    3  501    0  0.53878013958E+02  0.43201680683E+02 -0.36776478565E+02  0.78382555314E+02  0.47000000000E+01 0. -1.
        -13    1    4    4    0    0  0.36395985105E+02 -0.29845110198E+02 -0.68229942973E+02  0.82889827196E+02  0.00000000000E+00 0.  1.
         14    1    4    4    0    0 -0.46080425191E+02 -0.14427287302E+02 -0.90362588414E+02  0.10245462210E+03  0.00000000000E+00 0. -1.
         -5    1    5    5    0  502  0.51999140158E+02 -0.40400176519E+01 -0.50388883101E+03  0.50660268094E+03  0.47000000000E+01 0.  1.
         11    1    6    6    0    0 -0.82072343477E+02 -0.15964556522E+02 -0.59095006542E+03  0.59683558577E+03  0.00000000000E+00 0. -1.
        -12    1    6    6    0    0 -0.14120370553E+02  0.21075290992E+02 -0.62255471701E+03  0.62307136705E+03  0.00000000000E+00 0.  1.
</event>
<event>
12    1  0.1035051E+000  0.3986724E+03  0.7818608E-02  0.1044254E+00
         21   -1    0    0  501  502  0.00000000000E+00  0.00000000000E+00  0.96491500077E+03  0.96491500077E+03  0.00000000000E+00 0.  1.
         21   -1    0    0  502  503 -0.00000000000E+00 -0.00000000000E+00 -0.25755662513E+03  0.25755662513E+03  0.00000000000E+00 0.  1.
         -6    2    1    2    0  503 -0.28670402789E+03 -0.21727962824E+03  0.72073899161E+03  0.82357478426E+03  0.17146747444E+03 0.  0.
        -24    2    3    3    0    0 -0.29430371400E+03 -0.18196657956E+03  0.68955173965E+03  0.77562166840E+03  0.79880277146E+02 0.  0.
          6    2    1    2  501    0  0.28670402789E+03  0.21727962824E+03 -0.13380615968E+02  0.39889684164E+03  0.17184298917E+03 0.  0.
         24    2    5    5    0    0  0.14712353790E+03  0.19185593682E+03  0.14097757456E+02  0.25430697934E+03  0.77583871277E+02 0.  0.
          5    1    5    5  501    0  0.13958048999E+03  0.25423691422E+02 -0.27478373424E+02  0.14458986229E+03  0.47000000000E+01 0. -1.
        -11    1    6    6    0    0  0.13177762137E+03  0.14690639855E+03  0.38249809759E+02  0.20102208679E+03  0.00000000000E+00 0.  1.
         12    1    6    6    0    0  0.15345916525E+02  0.44949538264E+02 -0.24152052303E+02  0.53284892555E+02  0.00000000000E+00 0. -1.
         -5    1    3    3    0  503  0.75996861173E+01 -0.35313048685E+02  0.31187251954E+02  0.47953115862E+02  0.47000000000E+01 0.  1.
         13    1    4    4    0    0 -0.24911252328E+01 -0.18898737060E+01  0.48677339357E+02  0.48777665939E+02  0.00000000000E+00 0. -1.
        -14    1    4    4    0    0 -0.29181258877E+03 -0.18007670585E+03  0.64087440030E+03  0.72684400246E+03  0.00000000000E+00 0.  1.
</event>
<event>
12    1  0.1035051E+000  0.1825259E+03  0.7818608E-02  0.1166544E+00
         21   -1    0    0  501  502  0.00000000000E+00  0.00000000000E+00  0.44363681093E+03  0.44363681093E+03  0.00000000000E+00 0.  1.
         21   -1    0    0  502  503 -0.00000000000E+00 -0.00000000000E+00 -0.79494790758E+02  0.79494790758E+02  0.00000000000E+00 0.  1.
         -6    2    1    2    0  503  0.29321605438E+02 -0.25477443535E+02  0.11027203632E+03  0.21325012122E+03  0.17834470985E+03 0.  0.
        -24    2    3    3    0    0  0.38248854349E+01  0.48839176402E+02  0.93561126333E+02  0.13278654410E+03  0.80490291553E+02 0.  0.
          6    2    1    2  501    0 -0.29321605438E+02  0.25477443535E+02  0.25386998385E+03  0.30988148046E+03  0.17340042261E+03 0.  0.
         24    2    5    5    0    0 -0.10544074545E+02  0.84044062994E+02  0.15168584892E+03  0.19052348110E+03  0.78204974625E+02 0.  0.
          5    1    5    5  501    0 -0.18777530893E+02 -0.58566619459E+02  0.10218413493E+03  0.11935799936E+03  0.47000000000E+01 0. -1.
        -11    1    6    6    0    0 -0.27568697863E+02  0.35774999441E+02  0.12477290286E+03  0.13269574588E+03  0.00000000000E+00 0.  1.
         12    1    6    6    0    0  0.17024623318E+02  0.48269063553E+02  0.26912946065E+02  0.57827735225E+02  0.00000000000E+00 0. -1.
         -5    1    3    3    0  503  0.25496720003E+02 -0.74316619937E+02  0.16710909991E+02  0.80463577118E+02  0.47000000000E+01 0.  1.
         11    1    4    4    0    0  0.63404087301E+01  0.57659269267E+01  0.88986315434E+02  0.89398048249E+02  0.00000000000E+00 0. -1.
        -12    1    4    4    0    0 -0.25155232951E+01  0.43073249476E+02  0.45748108987E+01  0.43388495855E+02  0.00000000000E+00 0.  1.
</event>
<event>
12    1  0.1035051E+000  0.3411604E+03  0.7818608E-02  0.1066867E+00
         21   -1    0    0  503  502  0.00000000000E+00  0.00000000000E+00  0.56736221950E+02  0.56736221950E+02  0.00000000000E+00 0. -1.
         21   -1    0    0  501  503 -0.00000000000E+00 -0.00000000000E+00 -0.20626355065E+04  0.20626355065E+04  0.00000000000E+00 0. -1.
          6    2    1    2  501    0 -0.22943953845E+03  0.17290418599E+03 -0.84262107718E+03  0.90709841209E+03  0.17400830488E+03 0.  0.
         24    2    3    3    0    0 -0.22426645549E+03  0.10421250250E+03 -0.58238737353E+03  0.63786063858E+03  0.80842146608E+02 0.  0.
         -6    2    1    2    0  502  0.22943953845E+03 -0.17290418599E+03 -0.11632782073E+04  0.12122733163E+04  0.18398925641E+03 0.  0.
        -24    2    5    5    0    0  0.20122387030E+02 -0.44228738246E+02 -0.26151359152E+03  0.27762228355E+03  0.79521582148E+02 0.  0.
          5    1    3    3  501    0 -0.51730829663E+01  0.68691683490E+02 -0.26023370365E+03  0.26923777351E+03  0.47000000000E+01 0. -1.
        -11    1    4    4    0    0 -0.11359697252E+03  0.85943948913E+02 -0.25920440837E+03  0.29576605593E+03  0.00000000000E+00 0.  1.
         12    1    4    4    0    0 -0.11066948296E+03  0.18268553589E+02 -0.32318296516E+03  0.34209458265E+03  0.00000000000E+00 0. -1.
         -5    1    5    5    0  502  0.20931715142E+03 -0.12867544775E+03 -0.90176461581E+03  0.93465103277E+03  0.47000000000E+01 0.  1.
         11    1    6    6    0    0 -0.27170228798E+02 -0.80208265990E+00 -0.54872971081E+02  0.61236489325E+02  0.00000000000E+00 0. -1.
        -12    1    6    6    0    0  0.47292615828E+02 -0.43426655586E+02 -0.20664062044E+03  0.21638579423E+03  0.00000000000E+00 0.  1.
</event>
<event>
12    1  0.1035051E+000  0.2196301E+03  0.7818608E-02  0.1138137E+00
         21   -1    0    0  501  502  0.00000000000E+00  0.00000000000E+00  0.10368166645E+04  0.10368166645E+04  0.00000000000E+00 0. -1.
         21   -1    0    0  502  503 -0.00000000000E+00 -0.00000000000E+00 -0.42371829081E+02  0.42371829081E+02  0.00000000000E+00 0. -1.
         -6    2    1    2    0  503  0.10172401639E+03 -0.40371752812E+01  0.50616213082E+03  0.55175853968E+03  0.19461066041E+03 0.  0.
        -24    2    3    3    0    0  0.11442213654E+03 -0.50795758838E+02  0.46482964300E+03  0.48789875624E+03  0.79410105716E+02 0.  0.
          6    2    1    2  501    0 -0.10172401639E+03  0.40371752812E+01  0.48828270461E+03  0.52742995391E+03  0.17145927319E+03 0.  0.
         24    2    5    5    0    0 -0.17333917266E+02 -0.18882209525E+02  0.10737870673E+03  0.13658864003E+03  0.80431756182E+02 0.  0.
          5    1    5    5  501    0 -0.84390099125E+02  0.22919384807E+02  0.38090399788E+03  0.39084131387E+03  0.47000000000E+01 0. -1.
        -13    1    6    6    0    0 -0.43375150233E+02  0.92790622676E+01  0.43808781455E+02  0.62343515997E+02  0.00000000000E+00 0.  1.
         14    1    6    6    0    0  0.26041232967E+02 -0.28161271793E+02  0.63569925277E+02  0.74245124037E+02  0.00000000000E+00 0. -1.
         -5    1    3    3    0  503 -0.12698120147E+02  0.46758583556E+02  0.41332487823E+02  0.63859783441E+02  0.47000000000E+01 0.  1.
         13    1    4    4    0    0  0.43086755583E+02 -0.39750576183E+02  0.99327295126E+02  0.11533641390E+03  0.00000000000E+00 0. -1.
        -14    1    4    4    0    0  0.71335380955E+02 -0.11045182654E+02  0.36550234787E+03  0.37256234235E+03  0.00000000000E+00 0.  1.
</event>
<event>
12    1  0.1035051E+000  0.2236766E+03  0.7818608E-02  0.1131418E+00
         21   -1    0    0  501  502  0.00000000000E+00  0.00000000000E+00  0.60914882925E+02  0.60914882925E+02  0.00000000000E+00 0. -1.
         21   -1    0    0  502  503 -0.00000000000E+00 -0.00000000000E+00 -0.86429497177E+03  0.86429497177E+03  0.00000000000E+00 0.  1.
         -6    2    1    2    0  503 -0.13933467197E+03  0.32228319373E+02 -0.29162250770E+03  0.36670555943E+03  0.17022474832E+03 0.  0.
        -24    2    3    3    0    0 -0.37642233044E+02  0.70660147295E+02 -0.13122578905E+03  0.17288204465E+03  0.79108782851E+02 0.  0.
          6    2    1    2  501    0  0.13933467197E+03 -0.32228319373E+02 -0.51175758115E+03  0.55850429526E+03  0.17198375094E+03 0.  0.
         24    2    5    5    0    0  0.68737192781E+02  0.48937828691E+02 -0.25937555216E+03  0.28411273888E+03  0.79527722138E+02 0.  0.
          5    1    5    5  501    0  0.70597479184E+02 -0.81166148064E+02 -0.25238202898E+03  0.27439155638E+03  0.47000000000E+01 0. -1.
        -11    1    6    6    0    0  0.55069046316E+02  0.45119092814E+01 -0.20625410152E+03  0.21352684042E+03  0.00000000000E+00 0.  1.
         12    1    6    6    0    0  0.13668146465E+02  0.44425919410E+02 -0.53121450644E+02  0.70585898462E+02  0.00000000000E+00 0. -1.
         -5    1    3    3    0  503 -0.10169243892E+03 -0.38431827922E+02 -0.16039671865E+03  0.19382351478E+03  0.47000000000E+01 0.  1.
         13    1    4    4    0    0 -0.46165893703E+02  0.65222450418E+02 -0.57448933292E+02  0.98415637560E+02  0.00000000000E+00 0. -1.
        -14    1    4    4    0    0  0.85236606590E+01  0.54376968770E+01 -0.73776855761E+02  0.74466407086E+02  0.00000000000E+00 0.  1.
</event>
<event>
12    1  0.1035051E+000  0.2377309E+03  0.7818608E-02  0.1121536E+00
         21   -1    0    0  501  502  0.00000000000E+00  0.00000000000E+00  0.21628890611E+03  0.21628890611E+03  0.00000000000E+00 0.  1.
         21   -1    0    0  502  503 -0.00000000000E+00 -0.00000000000E+00 -0.29581495151E+03  0.29581495151E+03  0.00000000000E+00 0.  1.
         -6    2    1    2    0  503 -0.55527569602E+02  0.15287005069E+03 -0.12894012805E+03  0.26929174090E+03  0.17158065657E+03 0.  0.
        -24    2    3    3    0    0 -0.34209610183E+02  0.11979994346E+03 -0.16097050345E+03  0.21833958358E+03  0.78983206414E+02 0.  0.
          6    2    1    2  501    0  0.55527569602E+02 -0.15287005069E+03  0.49414082650E+02  0.24281211673E+03  0.17338803038E+03 0.  0.
         24    2    5    5    0    0  0.11880184131E+02 -0.16442119859E+03  0.12141178036E+02  0.18407641468E+03  0.81001536517E+02 0.  0.
          5    1    5    5  501    0  0.43647385472E+02  0.11551147894E+02  0.37272904614E+02  0.58735702043E+02  0.47000000000E+01 0. -1.
        -11    1    6    6    0    0  0.23918310541E+02 -0.45114766557E+02  0.35130323124E+02  0.61980378697E+02  0.00000000000E+00 0.  1.
         12    1    6    6    0    0 -0.12038126410E+02 -0.11930643203E+03 -0.22989145088E+02  0.12209603598E+03  0.00000000000E+00 0. -1.
         -5    1    3    3    0  503 -0.21317959419E+02  0.33070107232E+02  0.32030375406E+02  0.50952157313E+02  0.47000000000E+01 0.  1.
         13    1    4    4    0    0 -0.55789673109E+02  0.51645899409E+02 -0.82537253803E+02  0.11221490461E+03  0.00000000000E+00 0. -1.
        -14    1    4    4    0    0  0.21580062926E+02  0.68154044052E+02 -0.78433249651E+02  0.10612467897E+03  0.00000000000E+00 0.  1.
</event>
<event>
12    1  0.1035051E+000  0.1750393E+03  0.7818608E-02  0.1172795E+00
         21   -1    0    0  503  502  0.00000000000E+00  0.00000000000E+00  0.54345110250E+02  0.54345110250E+02  0.00000000000E+00 0. -1.
         21   -1    0    0  501  503 -0.00000000000E+00 -0.00000000000E+00 -0.57437742015E+03  0.57437742015E+03  0.00000000000E+00 0. -1.
          6    2    1    2  501    0 -0.17014856834E+02  0.24468617867E+02 -0.30499910377E+03  0.35145363350E+03  0.17206680269E+03 0.  0.
         24    2    3    3    0    0 -0.54279502780E+02  0.50271662486E+02 -0.27764882518E+03  0.29830686796E+03  0.80153682850E+02 0.  0.
         -6    2    1    2    0  502  0.17014856834E+02 -0.24468617867E+02 -0.21503320614E+03  0.27726889690E+03  0.17248345670E+03 0.  0.
        -24    2    5    5    0    0 -0.20763692549E+02 -0.46425825436E+02 -0.53081318582E+02  0.10945995304E+03  0.81100966341E+02 0.  0.
          5    1    3    3  501    0  0.37264645946E+02 -0.25803044618E+02 -0.27350278584E+02  0.53146765543E+02  0.47000000000E+01 0. -1.
        -11    1    4    4    0    0 -0.48539066347E+02  0.18678404498E+02 -0.25171425354E+03  0.25703110549E+03  0.00000000000E+00 0.  1.
         12    1    4    4    0    0 -0.57404364337E+01  0.31593257988E+02 -0.25934571645E+02  0.41275762466E+02  0.00000000000E+00 0. -1.
         -5    1    5    5    0  502  0.37778549384E+02  0.21957207568E+02 -0.16195188755E+03  0.16780894386E+03  0.47000000000E+01 0.  1.
         13    1    6    6    0    0 -0.13468396309E+02 -0.65943515496E+02 -0.57071785116E+02  0.88244736905E+02  0.00000000000E+00 0. -1.
        -14    1    6    6    0    0 -0.72952962404E+01  0.19517690060E+02  0.39904665340E+01  0.21215216135E+02  0.00000000000E+00 0.  1.
</event>
<event>
12    1  0.1035051E+000  0.3396514E+03  0.7818608E-02  0.1067037E+00
         21   -1    0    0  501  502  0.00000000000E+00  0.00000000000E+00  0.49930561220E+03  0.49930561220E+03  0.00000000000E+00 0. -1.
         21   -1    0    0  502  503 -0.00000000000E+00 -0.00000000000E+00 -0.37256457883E+03  0.37256457883E+03  0.00000000000E+00 0. -1.
         -6    2    1    2    0  503 -0.18456894002E+02 -0.29135694285E+03  0.33255411552E+03  0.47472778728E+03  0.17188573876E+03 0.  0.
        -24    2    3    3    0    0 -0.63765922060E+01 -0.14758333191E+03  0.26888560636E+03  0.31695404437E+03  0.79617185014E+02 0.  0.
          6    2    1    2  501    0  0.18456894002E+02  0.29135694285E+03 -0.20581308216E+03  0.39714240375E+03  0.17359014657E+03 0.  0.
         24    2    5    5    0    0  0.64968610752E+02  0.15102890896E+03 -0.15869263308E+03  0.24190798872E+03  0.79406998964E+02 0.  0.
          5    1    5    5  501    0 -0.46511716749E+02  0.14032803389E+03 -0.47120449074E+02  0.15523441503E+03  0.47000000000E+01 0. -1.
        -13    1    6    6    0    0  0.53387804264E+02  0.15229071081E+03 -0.11891116449E+03  0.20045593851E+03  0.00000000000E+00 0.  1.
         14    1    6    6    0    0  0.11580806488E+02 -0.12618018513E+01 -0.39781468590E+02  0.41452050202E+02  0.00000000000E+00 0. -1.
         -5    1    3    3    0  503 -0.12080301796E+02 -0.14377361094E+03  0.63668509162E+02  0.15777374292E+03  0.47000000000E+01 0.  1.
         13    1    4    4    0    0 -0.20920298541E+02 -0.27725689616E+02  0.19386761521E+02  0.39777120031E+02  0.00000000000E+00 0. -1.
        -14    1    4    4    0    0  0.14543706335E+02 -0.11985764229E+03  0.24949884484E+03  0.27717692434E+03  0.00000000000E+00 0.  1.
</event>
<event>
12    1  0.1035051E+000  0.2181236E+03  0.7818608E-02  0.1136341E+00
         21   -1    0    0  501  502  0.00000000000E+00  0.00000000000E+00  0.21384676471E+03  0.21384676471E+03  0.00000000000E+00 0.  1.
         21   -1    0    0  502  503 -0.00000000000E+00 -0.00000000000E+00 -0.28336152460E+03  0.28336152460E+03  0.00000000000E+00 0.  1.
         -6    2    1    2    0  503  0.11069010804E+03 -0.50950370931E+02 -0.15548265523E+03  0.26786707015E+03  0.18091343476E+03 0.  0.
        -24    2    3    3    0    0  0.12789355492E+02  0.36242349640E+02 -0.25918715301E+02  0.83486939985E+02  0.69434961106E+02 0.  0.
          6    2    1    2  501    0 -0.11069010804E+03  0.50950370931E+02  0.85967895335E+02  0.22934121916E+03  0.17423741119E+03 0.  0.
         24    2    5    5    0    0 -0.94801657563E+02  0.99498494915E+02  0.78693690006E+02  0.17753033937E+03  0.80231040021E+02 0.  0.
          5    1    5    5  501    0 -0.15888450479E+02 -0.48548123984E+02  0.72742053288E+01  0.51810879786E+02  0.47000000000E+01 0. -1.
        -11    1    6    6    0    0 -0.67971278299E+02  0.79239231386E+02  0.94100332646E+02  0.14054829443E+03  0.00000000000E+00 0.  1.
         12    1    6    6    0    0 -0.26830379264E+02  0.20259263529E+02 -0.15406642640E+02  0.36982044936E+02  0.00000000000E+00 0. -1.
         -5    1    3    3    0  503  0.97900752550E+02 -0.87192720570E+02 -0.12956393993E+03  0.18438013017E+03  0.47000000000E+01 0.  1.
         11    1    4    4    0    0  0.25917631863E+02 -0.75880500848E+01  0.60445686420E+01  0.27673795467E+02  0.00000000000E+00 0. -1.
        -12    1    4    4    0    0 -0.13128276371E+02  0.43830399725E+02 -0.31963283943E+02  0.55813144518E+02  0.00000000000E+00 0.  1.
</event>
<event>
12    1  0.1035051E+000  0.1863900E+03  0.7818608E-02  0.1162306E+00
         21   -1    0    0  503  502  0.00000000000E+00  0.00000000000E+00  0.63263701637E+02  0.63263701637E+02  0.00000000000E+00 0. -1.
         21   -1    0    0  501  503 -0.00000000000E+00 -0.00000000000E+00 -0.57878674315E+03  0.57878674315E+03  0.00000000000E+00 0. -1.
          6    2    1    2  501    0 -0.66944478344E+02  0.19949107356E+01 -0.33689957876E+03  0.38388855231E+03  0.17141631070E+03 0.  0.
         24    2    3    3    0    0 -0.70887591377E+02  0.49282767267E+02 -0.30462827458E+03  0.32631063476E+03  0.78907559350E+02 0.  0.
         -6    2    1    2    0  502  0.66944478344E+02 -0.19949107356E+01 -0.17862346275E+03  0.25816189248E+03  0.17394159489E+03 0.  0.
        -24    2    5    5    0    0  0.62823651417E+02  0.12555263730E+02 -0.20401542032E+03  0.22823648019E+03  0.79781911092E+02 0.  0.
          5    1    3    3  501    0  0.39431130321E+01 -0.47287856531E+02 -0.32271304173E+02  0.57577917544E+02  0.47000000000E+01 0. -1.
        -11    1    4    4    0    0  0.15625280896E+02  0.19845067197E+02 -0.56485157152E+02  0.61875270291E+02  0.00000000000E+00 0.  1.
         12    1    4    4    0    0 -0.86512872272E+02  0.29437700069E+02 -0.24814311743E+03  0.26443536447E+03  0.00000000000E+00 0. -1.
         -5    1    5    5    0  502  0.41208269275E+01 -0.14550174465E+02  0.25391957565E+02  0.29925412286E+02  0.47000000000E+01 0.  1.
         13    1    6    6    0    0 -0.15625782925E+02  0.15032952808E+02 -0.65918690429E+02  0.69393288653E+02  0.00000000000E+00 0. -1.
        -14    1    6    6    0    0  0.78449434342E+02 -0.24776890788E+01 -0.13809672989E+03  0.15884319154E+03  0.00000000000E+00 0.  1.
</event>
<event>
12    1  0.1035051E+000  0.2746905E+03  0.7818608E-02  0.1098651E+00
         21   -1    0    0  501  502  0.00000000000E+00  0.00000000000E+00  0.25379851992E+03  0.25379851992E+03  0.00000000000E+00 0. -1.
         21   -1    0    0  502  503 -0.00000000000E+00 -0.00000000000E+00 -0.32784850252E+03  0.32784850252E+03  0.00000000000E+00 0. -1.
         -6    2    1    2    0  503 -0.14087717900E+03  0.15625964948E+03 -0.12610468296E+03  0.30225361353E+03  0.17661086661E+03 0.  0.
        -24    2    3    3    0    0 -0.95325187925E+01  0.76277875402E+02 -0.15377281008E+02  0.11269847249E+03  0.80964817912E+02 0.  0.
          6    2    1    2  501    0  0.14087717900E+03 -0.15625964948E+03  0.52054700357E+02  0.27939340891E+03  0.17631655480E+03 0.  0.
         24    2    5    5    0    0  0.21223287825E+02 -0.10960558714E+03  0.52479604567E+02  0.15087910718E+03  0.86871073487E+02 0.  0.
          5    1    5    5  501    0  0.11965389118E+03 -0.46654062342E+02 -0.42490420973E+00  0.12851430174E+03  0.47000000000E+01 0. -1.
        -13    1    6    6    0    0  0.32204048920E+02 -0.11876959364E+03  0.57356067090E+02  0.13576831579E+03  0.00000000000E+00 0.  1.
         14    1    6    6    0    0 -0.10980761095E+02  0.91640065062E+01 -0.48764625232E+01  0.15110791383E+02  0.00000000000E+00 0. -1.
         -5    1    3    3    0  503 -0.13134466021E+03  0.79981774079E+02 -0.11072740196E+03  0.18955514104E+03  0.47000000000E+01 0.  1.
         11    1    4    4    0    0  0.24581472145E+02  0.38631985328E+02 -0.35618122907E+02  0.58011462166E+02  0.00000000000E+00 0. -1.
        -12    1    4    4    0    0 -0.34113990938E+02  0.37645890074E+02  0.20240841899E+02  0.54687010322E+02  0.00000000000E+00 0.  1.
</event>
<event>
12    1  0.1035051E+000  0.2453787E+03  0.7818608E-02  0.1116641E+00
         21   -1    0    0  503  502  0.00000000000E+00  0.00000000000E+00  0.25770639543E+03  0.25770639543E+03  0.00000000000E+00 0.  1.
         21   -1    0    0  501  503 -0.00000000000E+00 -0.00000000000E+00 -0.24439918717E+03  0.24439918717E+03  0.00000000000E+00 0.  1.
          6    2    1    2  501    0  0.71673277841E+02 -0.15657864600E+03  0.64532427404E+02  0.25372258299E+03  0.17480498790E+03 0.  0.
         24    2    3    3    0    0 -0.45177855413E+01 -0.11634264559E+03 -0.92144675073E+01  0.14021175365E+03  0.77578398302E+02 0.  0.
         -6    2    1    2    0  502 -0.71673277841E+02  0.15657864600E+03 -0.51225219137E+02  0.24838299961E+03  0.17151139985E+03 0.  0.
        -24    2    5    5    0    0  0.30181029790E+01  0.14694298987E+03 -0.44137165168E+02  0.17259395853E+03  0.78988821713E+02 0.  0.
          5    1    3    3  501    0  0.76191063382E+02 -0.40236000409E+02  0.73746894911E+02  0.11351082934E+03  0.47000000000E+01 0. -1.
        -13    1    4    4    0    0 -0.20404629788E+02 -0.15852205011E+02  0.21847420664E+02  0.33837126210E+02  0.00000000000E+00 0.  1.
         14    1    4    4    0    0  0.15886844246E+02 -0.10049044058E+03 -0.31061888171E+02  0.10637462744E+03  0.00000000000E+00 0. -1.
         -5    1    5    5    0  502 -0.74691380820E+02  0.96356561267E+01 -0.70880539684E+01  0.75789041073E+02  0.47000000000E+01 0.  1.
         13    1    6    6    0    0  0.70917809115E+01  0.13106827166E+03 -0.64666726999E+02  0.14632488091E+03  0.00000000000E+00 0. -1.
        -14    1    6    6    0    0 -0.40736779325E+01  0.15874718204E+02  0.20529561831E+02  0.26269077619E+02  0.00000000000E+00 0.  1.
</event>
<event>
12    1  0.1035051E+000  0.2785013E+03  0.7818608E-02  0.1096531E+00
         21   -1    0    0  503  502  0.00000000000E+00  0.00000000000E+00  0.28094383077E+03  0.28094383077E+03  0.00000000000E+00 0. -1.
         21   -1    0    0  501  503 -0.00000000000E+00 -0.00000000000E+00 -0.28119377565E+03  0.28119377565E+03  0.00000000000E+00 0. -1.
          6    2    1    2  501    0  0.71213963320E+02 -0.20777630712E+03 -0.38576106575E+02  0.28116022262E+03  0.17123239301E+03 0.  0.
         24    2    3    3    0    0  0.68200089349E+02 -0.20579920356E+03  0.11777848549E+02  0.23045910654E+03  0.77253593431E+02 0.  0.
         -6    2    1    2    0  502 -0.71213963320E+02  0.20777630712E+03  0.38326161695E+02  0.28097738379E+03  0.17098822521E+03 0.  0.
        -24    2    5    5    0    0  0.22057133298E+02  0.63326117897E+02  0.23007307569E+02  0.10828658519E+03  0.81853124519E+02 0.  0.
          5    1    3    3  501    0  0.30138739701E+01 -0.19771035532E+01 -0.50353955124E+02  0.50701116077E+02  0.47000000000E+01 0. -1.
        -13    1    4    4    0    0  0.99227579460E+01 -0.13607777447E+03  0.24757194086E+02  0.13866701298E+03  0.00000000000E+00 0.  1.
         14    1    4    4    0    0  0.58277331403E+02 -0.69721429098E+02 -0.12979345537E+02  0.91792093568E+02  0.00000000000E+00 0. -1.
         -5    1    5    5    0  502 -0.93271096617E+02  0.14445018922E+03  0.15318854126E+02  0.17269079860E+03  0.47000000000E+01 0.  1.
         13    1    6    6    0    0  0.32892836129E+02 -0.14205254528E+01 -0.10533315457E+02  0.34567431141E+02  0.00000000000E+00 0. -1.
        -14    1    6    6    0    0 -0.10835702832E+02  0.64746643349E+02  0.33540623026E+02  0.73719154050E+02  0.00000000000E+00 0.  1.
</event>
<event>
12    1  0.1035051E+000  0.1815620E+03  0.7818608E-02  0.1166303E+00
         21   -1    0    0  503  502  0.00000000000E+00  0.00000000000E+00  0.38371730607E+02  0.38371730607E+02  0.00000000000E+00 0. -1.
         21   -1    0    0  501  503 -0.00000000000E+00 -0.00000000000E+00 -0.88622226697E+03  0.88622226697E+03  0.00000000000E+00 0. -1.
          6    2    1    2  501    0 -0.44002119354E+02 -0.34072377383E+02 -0.34294981454E+03  0.38804552665E+03  0.17282257390E+03 0.  0.
         24    2    3    3    0    0 -0.51634644454E+02  0.16847949755E+02 -0.88974897687E+02  0.12886126103E+03  0.75754222696E+02 0.  0.
         -6    2    1    2    0  502  0.44002119354E+02  0.34072377383E+02 -0.50490072183E+03  0.53654847093E+03  0.17280743430E+03 0.  0.
        -24    2    5    5    0    0  0.11163291988E+02  0.87605723412E+02 -0.33756265005E+03  0.35775158062E+03  0.78982712432E+02 0.  0.
          5    1    3    3  501    0  0.76325251007E+01 -0.50920327138E+02 -0.25397491685E+03  0.25918426562E+03  0.47000000000E+01 0. -1.
        -11    1    4    4    0    0 -0.58002938333E+02 -0.11250896567E+02 -0.78399376446E+02  0.98170187715E+02  0.00000000000E+00 0.  1.
         12    1    4    4    0    0  0.63682938786E+01  0.28098846322E+02 -0.10575521241E+02  0.30691073313E+02  0.00000000000E+00 0. -1.
         -5    1    5    5    0  502  0.32838827366E+02 -0.53533346029E+02 -0.16733807178E+03  0.17879689032E+03  0.47000000000E+01 0.  1.
         11    1    6    6    0    0  0.12511286118E+02 -0.90694188363E+01 -0.17222196704E+02  0.23138511138E+02  0.00000000000E+00 0. -1.
        -12    1    6    6    0    0 -0.13479941306E+01  0.96675142248E+02 -0.32034045334E+03  0.33461306948E+03  0.00000000000E+00 0.  1.
</event>
<event>
12    1  0.1035051E+000  0.2200395E+03  0.7818608E-02  0.1135865E+00
         21   -1    0    0  503  502  0.00000000000E+00  0.00000000000E+00  0.23312123833E+03  0.23312123833E+03  0.00000000000E+00 0. -1.
         21   -1    0    0  501  503 -0.00000000000E+00 -0.00000000000E+00 -0.28035808240E+03  0.28035808240E+03  0.00000000000E+00 0. -1.
          6    2    1    2  501    0 -0.56694260995E+02  0.10429283201E+03 -0.16242868884E+03  0.26511159167E+03  0.17265527227E+03 0.  0.
         24    2    3    3    0    0 -0.86419779535E+02  0.28439141880E+02 -0.63526388631E+02  0.13688856822E+03  0.80160557446E+02 0.  0.
         -6    2    1    2    0  502  0.56694260995E+02 -0.10429283201E+03  0.11519184476E+03  0.24836772906E+03  0.18527313270E+03 0.  0.
        -24    2    5    5    0    0 -0.19436108344E+02 -0.11680378404E+03  0.81781991397E+02  0.16416164045E+03  0.78992808569E+02 0.  0.
          5    1    3    3  501    0  0.29725518540E+02  0.75853690127E+02 -0.98902300204E+02  0.12822302346E+03  0.47000000000E+01 0. -1.
        -13    1    4    4    0    0 -0.77867798366E+02  0.53694527364E+02 -0.50093143385E+02  0.10703186117E+03  0.00000000000E+00 0.  1.
         14    1    4    4    0    0 -0.85519811686E+01 -0.25255385484E+02 -0.13433245246E+02  0.29856707047E+02  0.00000000000E+00 0. -1.
         -5    1    5    5    0  502  0.76130369339E+02  0.12510952033E+02  0.33409853368E+02  0.84206088607E+02  0.47000000000E+01 0.  1.
         13    1    6    6    0    0 -0.39634498320E+02 -0.23212327471E+02  0.34057005387E+02  0.57180286984E+02  0.00000000000E+00 0. -1.
        -14    1    6    6    0    0  0.20198389976E+02 -0.93591456569E+02  0.47724986010E+02  0.10698135347E+03  0.00000000000E+00 0.  1.
</event>
<event>
12    1  0.1035051E+000  0.1879923E+03  0.7818608E-02  0.1160339E+00
         21   -1    0    0  503  502  0.00000000000E+00  0.00000000000E+00  0.39294658922E+02  0.39294658922E+02  0.00000000000E+00 0.  1.
         21   -1    0    0  501  503 -0.00000000000E+00 -0.00000000000E+00 -0.90032291731E+03  0.90032291731E+03  0.00000000000E+00 0.  1.
          6    2    1    2  501    0 -0.47396859765E+02 -0.58504192178E+02 -0.45281378605E+03  0.49019554768E+03  0.17199461418E+03 0.  0.
         24    2    3    3    0    0 -0.76953652357E+02 -0.49003111531E+02 -0.43918616555E+03  0.45596578632E+03  0.81836060143E+02 0.  0.
         -6    2    1    2    0  502  0.47396859765E+02  0.58504192178E+02 -0.40821447233E+03  0.44942202855E+03  0.17225533811E+03 0.  0.
        -24    2    5    5    0    0  0.81159262932E+02  0.53920852667E+02 -0.39094264260E+03  0.41093419968E+03  0.80848514840E+02 0.  0.
          5    1    3    3  501    0  0.29556792591E+02 -0.95010806467E+01 -0.13627620507E+02  0.34229761355E+02  0.47000000000E+01 0. -1.
        -11    1    4    4    0    0 -0.56597002827E+01  0.17274668300E+02 -0.27770150779E+02  0.33190776527E+02  0.00000000000E+00 0.  1.
         12    1    4    4    0    0 -0.71293952074E+02 -0.66277779831E+02 -0.41141601477E+03  0.42277500980E+03  0.00000000000E+00 0. -1.
         -5    1    5    5    0  502 -0.33762403166E+02  0.45833395112E+01 -0.17271829727E+02  0.38487828865E+02  0.47000000000E+01 0.  1.
         11    1    6    6    0    0  0.37151751582E+02  0.53307051464E+02 -0.32646019711E+03  0.33286356766E+03  0.00000000000E+00 0. -1.
        -12    1    6    6    0    0  0.44007511349E+02  0.61380120286E+00 -0.64482445497E+02  0.78070632023E+02  0.00000000000E+00 0.  1.
</event>
<event>
12    1  0.1035051E+000  0.2921635E+03  0.7818608E-02  0.1089346E+00
         21   -1    0    0  503  502  0.00000000000E+00  0.00000000000E+00  0.10286530625E+03  0.10286530625E+03  0.00000000000E+00 0. -1.
         21   -1    0    0  501  503 -0.00000000000E+00 -0.00000000000E+00 -0.94566113539E+03  0.94566113539E+03  0.00000000000E+00 0. -1.
          6    2    1    2  501    0  0.35292837712E+02  0.23262950405E+03 -0.23523293564E+03  0.37436611057E+03  0.17161987119E+03 0.  0.
         24    2    3    3    0    0 -0.35545110238E+02  0.59303390649E+02 -0.78628720726E+02  0.13022081247E+03  0.77425042932E+02 0.  0.
         -6    2    1    2    0  502 -0.35292837712E+02 -0.23262950405E+03 -0.60756289350E+03  0.67416033107E+03  0.17319760933E+03 0.  0.
        -24    2    5    5    0    0 -0.55426879263E+02 -0.10937031082E+03 -0.45165273068E+03  0.47433971847E+03  0.77291497327E+02 0.  0.
          5    1    3    3  501    0  0.70837947950E+02  0.17332611340E+03 -0.15660421491E+03  0.24414529810E+03  0.47000000000E+01 0. -1.
        -13    1    4    4    0    0 -0.36946173926E+02  0.73578504531E+02 -0.45383308701E+02  0.94013088480E+02  0.00000000000E+00 0.  1.
         14    1    4    4    0    0  0.14010636879E+01 -0.14275113883E+02 -0.33245412025E+02  0.36207723990E+02  0.00000000000E+00 0. -1.
         -5    1    5    5    0  502  0.20134041551E+02 -0.12325919323E+03 -0.15591016282E+03  0.19982061260E+03  0.47000000000E+01 0.  1.
         13    1    6    6    0    0 -0.28979521153E+02 -0.29780547167E+02 -0.55084792066E+02  0.69000202556E+02  0.00000000000E+00 0. -1.
        -14    1    6    6    0    0 -0.26447358110E+02 -0.79589763651E+02 -0.39656793861E+03  0.40533951592E+03  0.00000000000E+00 0.  1.
</event>
<event>
12    1  0.1035051E+000  0.4357447E+03  0.7818608E-02  0.1032061E+00
         21   -1    0    0  503  502  0.00000000000E+00  0.00000000000E+00  0.17055444559E+03  0.17055444559E+03  0.00000000000E+00 0.  1.
         21   -1    0    0  501  503 -0.00000000000E+00 -0.00000000000E+00 -0.11192486001E+04  0.11192486001E+04  0.00000000000E+00 0.  1.
          6    2    1    2  501    0 -0.33564103736E+03 -0.21857576991E+03 -0.42720382718E+03  0.61022666001E+03  0.17159019051E+03 0.  0.
         24    2    3    3    0    0 -0.25731238388E+03 -0.14361468305E+03 -0.21987494867E+03  0.37621406128E+03  0.79731968310E+02 0.  0.
         -6    2    1    2    0  502  0.33564103736E+03  0.21857576991E+03 -0.52149032735E+03  0.67957638571E+03  0.17158563267E+03 0.  0.
        -24    2    5    5    0    0  0.31063677724E+03  0.22598157180E+03 -0.41951637066E+03  0.57421587712E+03  0.78530313361E+02 0.  0.
          5    1    3    3  501    0 -0.78328653484E+02 -0.74961086856E+02 -0.20732887851E+03  0.23401259873E+03  0.47000000000E+01 0. -1.
        -13    1    4    4    0    0 -0.70414799478E+02 -0.29314613246E+02 -0.10222463860E+03  0.12754398172E+03  0.00000000000E+00 0.  1.
         14    1    4    4    0    0 -0.18689758440E+03 -0.11430006980E+03 -0.11765031006E+03  0.24867007956E+03  0.00000000000E+00 0. -1.
         -5    1    5    5    0  502  0.25004260123E+02 -0.74058018973E+01 -0.10197395670E+03  0.10536050859E+03  0.47000000000E+01 0.  1.
         11    1    6    6    0    0  0.48885111652E+02  0.19054097924E+02 -0.96331849680E+02  0.10969338199E+03  0.00000000000E+00 0. -1.
        -12    1    6    6    0    0  0.26175166558E+03  0.20692747388E+03 -0.32318452098E+03  0.46452249513E+03  0.00000000000E+00 0.  1.
</event>
<event>
12    1  0.1035051E+000  0.1782805E+03  0.7818608E-02  0.1171381E+00
         21   -1    0    0  503  502  0.00000000000E+00  0.00000000000E+00  0.26589016858E+03  0.26589016858E+03  0.00000000000E+00 0.  1.
         21   -1    0    0  501  503 -0.00000000000E+00 -0.00000000000E+00 -0.12210743073E+03  0.12210743073E+03  0.00000000000E+00 0.  1.
          6    2    1    2  501    0 -0.16952470423E+02 -0.35938013861E+02  0.24956716535E+02  0.18001881438E+03  0.17379588239E+03 0.  0.
         24    2    3    3    0    0 -0.36828150952E+02 -0.24967853001E+02  0.79509896180E+02  0.12074380687E+03  0.79230908873E+02 0.  0.
         -6    2    1    2    0  502  0.16952470423E+02  0.35938013861E+02  0.11882602132E+03  0.20797878494E+03  0.16600188116E+03 0.  0.
        -24    2    5    5    0    0  0.52205077132E+02  0.14682279031E+02  0.16035112353E+02  0.97151831951E+02  0.78996292491E+02 0.  0.
          5    1    3    3  501    0  0.19875680530E+02 -0.10970160860E+02 -0.54553179645E+02  0.59275007509E+02  0.47000000000E+01 0. -1.
        -13    1    4    4    0    0  0.14567823740E+01 -0.44581015411E+02  0.24430311883E+02  0.50856949266E+02  0.00000000000E+00 0.  1.
         14    1    4    4    0    0 -0.38284933326E+02  0.19613162409E+02  0.55079584297E+02  0.69886857604E+02  0.00000000000E+00 0. -1.
         -5    1    5    5    0  502 -0.35252606709E+02  0.21255734830E+02  0.10279090896E+03  0.11082695299E+03  0.47000000000E+01 0.  1.
         11    1    6    6    0    0  0.70976366798E+01  0.41831939062E+02  0.13167639602E+02  0.44426054347E+02  0.00000000000E+00 0. -1.
        -12    1    6    6    0    0  0.45107440452E+02 -0.27149660031E+02  0.28674727504E+01  0.52725777604E+02  0.00000000000E+00 0.  1.
</event>
<event>
12    1  0.1035051E+000  0.3193632E+03  0.7818608E-02  0.1076087E+00
         21   -1    0    0  503  502  0.00000000000E+00  0.00000000000E+00  0.85412191163E+03  0.85412191163E+03  0.00000000000E+00 0.  1.
         21   -1    0    0  501  503 -0.00000000000E+00 -0.00000000000E+00 -0.11908492457E+03  0.11908492457E+03  0.00000000000E+00 0. -1.
          6    2    1    2  501    0 -0.65091153294E+02 -0.25971310043E+03  0.35164233132E+03  0.47502125943E+03  0.17408364359E+03 0.  0.
         24    2    3    3    0    0 -0.60417908103E+02 -0.26913497832E+03  0.35992492468E+03  0.46083315327E+03  0.82080957455E+02 0.  0.
         -6    2    1    2    0  502  0.65091153294E+02  0.25971310043E+03  0.38339465575E+03  0.49818557677E+03  0.17178374218E+03 0.  0.
        -24    2    5    5    0    0  0.62562522161E+02  0.68976811982E+02  0.10921711717E+03  0.16414644977E+03  0.79648028978E+02 0.  0.
          5    1    3    3  501    0 -0.46732451913E+01  0.94218778919E+01 -0.82825933589E+01  0.14188106159E+02  0.47000000000E+01 0. -1.
        -11    1    4    4    0    0 -0.66614940220E+02 -0.11668917578E+03  0.18627408522E+03  0.22967792412E+03  0.00000000000E+00 0.  1.
         12    1    4    4    0    0  0.61970321175E+01 -0.15244580254E+03  0.17365083945E+03  0.23115522915E+03  0.00000000000E+00 0. -1.
         -5    1    5    5    0  502  0.25286311334E+01  0.19073628845E+03  0.27417753858E+03  0.33403912700E+03  0.47000000000E+01 0.  1.
         11    1    6    6    0    0  0.38714200260E+02 -0.88541502487E+01  0.47969077225E+02  0.62275337399E+02  0.00000000000E+00 0. -1.
        -12    1    6    6    0    0  0.23848321901E+02  0.77830962231E+02  0.61248039941E+02  0.10187111237E+03  0.00000000000E+00 0.  1.
</event>
<event>
12    1  0.1035051E+000  0.2771199E+03  0.7818608E-02  0.1097312E+00
         21   -1    0    0  503  502  0.00000000000E+00  0.00000000000E+00  0.20928742288E+03  0.20928742288E+03  0.00000000000E+00 0.  1.
         21   -1    0    0  501  503 -0.00000000000E+00 -0.00000000000E+00 -0.38059399368E+03  0.38059399368E+03  0.00000000000E+00 0.  1.
          6    2    1    2  501    0  0.20645148807E+03  0.67425951630E+02 -0.14225337809E+03  0.31124271978E+03  0.17166109390E+03 0.  0.
         24    2    3    3    0    0  0.22206834027E+03  0.86908926738E+02 -0.12767489926E+03  0.28194947079E+03  0.79543163623E+02 0.  0.
         -6    2    1    2    0  502 -0.20645148807E+03 -0.67425951630E+02 -0.29053192708E+02  0.27863869678E+03  0.17212483684E+03 0.  0.
        -24    2    5    5    0    0 -0.21711231133E+03 -0.46636751254E+02  0.28810935039E+01  0.23879233383E+03  0.87753835785E+02 0.  0.
          5    1    3    3  501    0 -0.15616852197E+02 -0.19482975108E+02 -0.14578478828E+02  0.29293248993E+02  0.47000000000E+01 0. -1.
        -13    1    4    4    0    0  0.11330581762E+03  0.82924509845E+02 -0.90001199625E+02  0.16677799188E+03  0.00000000000E+00 0.  1.
         14    1    4    4    0    0  0.10876252265E+03  0.39844168929E+01 -0.37673699637E+02  0.11517147891E+03  0.00000000000E+00 0. -1.
         -5    1    5    5    0  502  0.10660823258E+02 -0.20789200376E+02 -0.31934286212E+02  0.39846362954E+02  0.47000000000E+01 0.  1.
         13    1    6    6    0    0 -0.16912709418E+03 -0.63422946814E+02  0.26808000696E+02  0.18260644312E+03  0.00000000000E+00 0. -1.
        -14    1    6    6    0    0 -0.47985217157E+02  0.16786195560E+02 -0.23926907192E+02  0.56185890709E+02  0.00000000000E+00 0.  1.
</event>
<event>
12    1  0.1035051E+000  0.2656363E+03  0.7818608E-02  0.1103969E+00
         21   -1    0    0  503  502  0.00000000000E+00  0.00000000000E+00  0.90112270320E+02  0.90112270320E+02  0.00000000000E+00 0.  1.
         21   -1    0    0  501  503 -0.00000000000E+00 -0.00000000000E+00 -0.78492610707E+03  0.78492610707E+03  0.00000000000E+00 0.  1.
          6    2    1    2  501    0  0.91154083121E+02  0.18111685507E+03 -0.31249506144E+03  0.41014121814E+03  0.17161081938E+03 0.  0.
         24    2    3    3    0    0  0.83551103872E+01  0.38024231458E+02 -0.16361153047E+03  0.18761129967E+03  0.83148161819E+02 0.  0.
         -6    2    1    2    0  502 -0.91154083121E+02 -0.18111685507E+03 -0.38231877531E+03  0.46489715925E+03  0.16985093661E+03 0.  0.
        -24    2    5    5    0    0 -0.10130693551E+02 -0.20825817949E+02 -0.14837129195E+03  0.16992000554E+03  0.79513661500E+02 0.  0.
          5    1    3    3  501    0  0.82798972734E+02  0.14309262361E+03 -0.14888353097E+03  0.22252991847E+03  0.47000000000E+01 0. -1.
        -11    1    4    4    0    0 -0.95921380206E+01 -0.11645353550E+02  0.61710145750E+00  0.15099807459E+02  0.00000000000E+00 0.  1.
         12    1    4    4    0    0  0.17947248408E+02  0.49669585007E+02 -0.16422863193E+03  0.17251149221E+03  0.00000000000E+00 0. -1.
         -5    1    5    5    0  502 -0.81023389570E+02 -0.16029103712E+03 -0.23394748336E+03  0.29497715371E+03  0.47000000000E+01 0.  1.
         13    1    6    6    0    0  0.24326889762E+02 -0.42097776973E+01 -0.10480099404E+02  0.26820743414E+02  0.00000000000E+00 0. -1.
        -14    1    6    6    0    0 -0.34457583313E+02 -0.16616040252E+02 -0.13789119254E+03  0.14309926213E+03  0.00000000000E+00 0.  1.
</event>
<event>
12    1  0.1035051E+000  0.1828023E+03  0.7818608E-02  0.1165121E+00
         21   -1    0    0  501  502  0.00000000000E+00  0.00000000000E+00  0.74426156006E+02  0.74426156006E+02  0.00000000000E+00 0.  1.
         21   -1    0    0  502  503 -0.00000000000E+00 -0.00000000000E+00 -0.45620886284E+03  0.45620886284E+03  0.00000000000E+00 0.  1.
         -6    2    1    2    0  503  0.16697038571E+02 -0.58786115500E+02 -0.15746028639E+03  0.24126838670E+03  0.17228492144E+03 0.  0.
        -24    2    3    3    0    0  0.22227691691E+02 -0.64941300017E+02 -0.18430489698E+03  0.21278685693E+03  0.81231205247E+02 0.  0.
          6    2    1    2  501    0 -0.16697038571E+02  0.58786115500E+02 -0.22432242044E+03  0.28936663214E+03  0.17227275181E+03 0.  0.
         24    2    5    5    0    0  0.55191818689E+02  0.52496682330E+02 -0.12243597790E+03  0.16442463784E+03  0.79011735450E+02 0.  0.
          5    1    5    5  501    0 -0.71888857260E+02  0.62894331702E+01 -0.10188644254E+03  0.12494199430E+03  0.47000000000E+01 0. -1.
        -11    1    6    6    0    0  0.10224404395E+02  0.32665813168E+02 -0.10786272943E+03  0.11316343135E+03  0.00000000000E+00 0.  1.
         12    1    6    6    0    0  0.44967414293E+02  0.19830869162E+02 -0.14573248473E+02  0.51261206492E+02  0.00000000000E+00 0. -1.
         -5    1    3    3    0  503 -0.55306531199E+01  0.61551845167E+01  0.26844610586E+02  0.28481529767E+02  0.47000000000E+01 0.  1.
         13    1    4    4    0    0  0.36184839886E+02 -0.75750751803E+02 -0.12246296820E+03  0.14847456892E+03  0.00000000000E+00 0. -1.
        -14    1    4    4    0    0 -0.13957148195E+02  0.10809451786E+02 -0.61841928783E+02  0.64312288012E+02  0.00000000000E+00 0.  1.
</event>
<event>
12    1  0.1035051E+000  0.1989913E+03  0.7818608E-02  0.1150825E+00
         21   -1    0    0  503  502  0.00000000000E+00  0.00000000000E+00  0.15048055512E+04  0.15048055512E+04  0.00000000000E+00 0.  1.
         21   -1    0    0  501  503 -0.00000000000E+00 -0.00000000000E+00 -0.59095732258E+02  0.59095732258E+02  0.00000000000E+00 0.  1.
          6    2    1    2  501    0  0.95027858424E+02  0.20864929333E+02  0.13056451853E+04  0.13205586184E+04  0.17233709875E+03 0.  0.
         24    2    3    3    0    0  0.92475391909E+02  0.24092539511E+02  0.53560965678E+03  0.55049775215E+03  0.83892324581E+02 0.  0.
         -6    2    1    2    0  502 -0.95027858424E+02 -0.20864929333E+02  0.14006463365E+03  0.24334266506E+03  0.17358545989E+03 0.  0.
        -24    2    5    5    0    0 -0.12613204312E+03 -0.24245260341E+02  0.70496189288E+02  0.16691783013E+03  0.79967020456E+02 0.  0.
          5    1    3    3  501    0  0.25524665146E+01 -0.32276101781E+01  0.77003552854E+03  0.77006086628E+03  0.47000000000E+01 0. -1.
        -11    1    4    4    0    0 -0.52034545224E+01  0.79904370290E+01  0.20892916753E+03  0.20914664728E+03  0.00000000000E+00 0.  1.
         12    1    4    4    0    0  0.97678846432E+02  0.16102102482E+02  0.32668048925E+03  0.34135110488E+03  0.00000000000E+00 0. -1.
         -5    1    5    5    0  502  0.31104184692E+02  0.33803310074E+01  0.69568444366E+02  0.76424834933E+02  0.47000000000E+01 0.  1.
         11    1    6    6    0    0 -0.66799238504E+02 -0.45163994222E+02  0.65357993409E+02  0.10379591486E+03  0.00000000000E+00 0. -1.
        -12    1    6    6    0    0 -0.59332804611E+02  0.20918733881E+02  0.51381958785E+01  0.63121915268E+02  0.00000000000E+00 0.  1.
</event>
<event>
12    1  0.1035051E+000  0.2645569E+03  0.7818608E-02  0.1106469E+00
         21   -1    0    0  503  502  0.00000000000E+00  0.00000000000E+00  0.19901772626E+03  0.19901772626E+03  0.00000000000E+00 0. -1.
         21   -1    0    0  501  503 -0.00000000000E+00 -0.00000000000E+00 -0.33413201289E+03  0.33413201289E+03  0.00000000000E+00 0.  1.
          6    2    1    2  501    0 -0.14969836683E+03 -0.10357615232E+03 -0.64325746360E+02  0.27226490325E+03  0.19197071531E+03 0.  0.
         24    2    3    3    0    0 -0.17634464750E+03 -0.43743425014E+02 -0.43420075833E+02  0.20335106872E+03  0.80345704496E+02 0.  0.
         -6    2    1    2    0  502  0.14969836683E+03  0.10357615232E+03 -0.70788540264E+02  0.26088483590E+03  0.17295161117E+03 0.  0.
        -24    2    5    5    0    0  0.76012131591E+02  0.12359179437E+03 -0.79985417372E+02  0.18383316661E+03  0.79650426046E+02 0.  0.
          5    1    3    3  501    0  0.26646280663E+02 -0.59832727307E+02 -0.20905670527E+02  0.68913834535E+02  0.47000000000E+01 0. -1.
        -11    1    4    4    0    0 -0.47231211903E+02 -0.86924860937E+01 -0.50097224922E+02  0.69397972860E+02  0.00000000000E+00 0.  1.
         12    1    4    4    0    0 -0.12911343559E+03 -0.35050938920E+02  0.66771490886E+01  0.13395309586E+03  0.00000000000E+00 0. -1.
         -5    1    5    5    0  502  0.73686235242E+02 -0.20015642051E+02  0.91968771080E+01  0.77051669284E+02  0.47000000000E+01 0.  1.
         11    1    6    6    0    0  0.12195544099E+02  0.85005075272E+02 -0.20117898801E+02  0.88200476019E+02  0.00000000000E+00 0. -1.
        -12    1    6    6    0    0  0.63816587493E+02  0.38586719099E+02 -0.59867518572E+02  0.95632690593E+02  0.00000000000E+00 0.  1.
</event>
<event>
12    1  0.1035051E+000  0.1969170E+03  0.7818608E-02  0.1152460E+00
         21   -1    0    0  501  502  0.00000000000E+00  0.00000000000E+00  0.90684640433E+03  0.90684640433E+03  0.00000000000E+00 0. -1.
         21   -1    0    0  502  503 -0.00000000000E+00 -0.00000000000E+00 -0.68610455996E+02  0.68610455996E+02  0.00000000000E+00 0. -1.
         -6    2    1    2    0  503  0.65946065941E+02  0.66597290543E+02  0.71933195600E+03  0.74579807843E+03  0.17318264386E+03 0.  0.
        -24    2    3    3    0    0  0.35747939624E+01  0.59473193602E+02  0.63146145017E+03  0.63770439628E+03  0.66132398017E+02 0.  0.
          6    2    1    2  501    0 -0.65946065941E+02 -0.66597290543E+02  0.11890399233E+03  0.22965878190E+03  0.17268733014E+03 0.  0.
         24    2    5    5    0    0 -0.10364754087E+03 -0.80725840043E+02  0.10624580876E+03  0.18719306945E+03  0.80582872811E+02 0.  0.
          5    1    5    5  501    0  0.37701474933E+02  0.14128549500E+02  0.12658183575E+02  0.42465712457E+02  0.47000000000E+01 0. -1.
        -13    1    6    6    0    0 -0.63628756817E+02 -0.14117452047E+02  0.84088930927E+02  0.10639017554E+03  0.00000000000E+00 0.  1.
         14    1    6    6    0    0 -0.40018784056E+02 -0.66608387996E+02  0.22156877829E+02  0.80802893908E+02  0.00000000000E+00 0. -1.
         -5    1    3    3    0  503  0.62371271978E+02  0.71240969408E+01  0.87870505834E+02  0.10809368215E+03  0.47000000000E+01 0.  1.
         11    1    4    4    0    0  0.30473383497E+02  0.43580998111E+02  0.48749737491E+03  0.49038925461E+03  0.00000000000E+00 0. -1.
        -12    1    4    4    0    0 -0.26898589535E+02  0.15892195491E+02  0.14396407527E+03  0.14731514166E+03  0.00000000000E+00 0.  1.
</event>
<event>
12    1  0.1035051E+000  0.2189370E+03  0.7818608E-02  0.1135863E+00
         21   -1    0    0  501  502  0.00000000000E+00  0.00000000000E+00  0.21757989198E+04  0.21757989198E+04  0.00000000000E+00 0. -1.
         21   -1    0    0  502  503 -0.00000000000E+00 -0.00000000000E+00 -0.30028163875E+02  0.30028163875E+02  0.00000000000E+00 0. -1.
         -6    2    1    2    0  503  0.13510626810E+03  0.14550037581E+02  0.49305261356E+03  0.53947592115E+03  0.17166240850E+03 0.  0.
        -24    2    3    3    0    0  0.35557880469E+02  0.58639765253E+02  0.19134883677E+03  0.21869399445E+03  0.80682717766E+02 0.  0.
          6    2    1    2  501    0 -0.13510626810E+03 -0.14550037581E+02  0.16527181424E+04  0.16663511625E+04  0.16365674891E+03 0.  0.
         24    2    5    5    0    0 -0.15828327056E+03 -0.34234695394E+02  0.12177317207E+04  0.12302778473E+04  0.66988281861E+02 0.  0.
          5    1    5    5  501    0  0.23177002460E+02  0.19684657814E+02  0.43498642166E+03  0.43607331520E+03  0.47000000000E+01 0. -1.
        -13    1    6    6    0    0 -0.14341183254E+03 -0.18465099619E+02  0.87548623889E+03  0.88734664483E+03  0.00000000000E+00 0.  1.
         14    1    6    6    0    0 -0.14871438022E+02 -0.15769595775E+02  0.34224548183E+03  0.34293120251E+03  0.00000000000E+00 0. -1.
         -5    1    3    3    0  503  0.99548387628E+02 -0.44089727672E+02  0.30170377679E+03  0.32078192670E+03  0.47000000000E+01 0.  1.
         11    1    4    4    0    0  0.21490888456E+02  0.78874139272E+01  0.29613087965E+01  0.23083304245E+02  0.00000000000E+00 0. -1.
        -12    1    4    4    0    0  0.14066992013E+02  0.50752351326E+02  0.18838752797E+03  0.19561069021E+03  0.00000000000E+00 0.  1.
</event>
<event>
12    1  0.1035051E+000  0.2775416E+03  0.7818608E-02  0.1097062E+00
         21   -1    0    0  501  502  0.00000000000E+00  0.00000000000E+00  0.11469567017E+04  0.11469567017E+04  0.00000000000E+00 0.  1.
         21   -1    0    0  502  503 -0.00000000000E+00 -0.00000000000E+00 -0.15421370442E+03  0.15421370442E+03  0.00000000000E+00 0. -1.
         -6    2    1    2    0  503  0.44344631965E+02 -0.21324916539E+03  0.75177231076E+01  0.27764342826E+03  0.17201076761E+03 0.  0.
        -24    2    3    3    0    0 -0.30571538585E+01 -0.21321672689E+03  0.18567670009E+02  0.22874433135E+03  0.80675225082E+02 0.  0.
          6    2    1    2  501    0 -0.44344631965E+02  0.21324916539E+03  0.98522527421E+03  0.10235269779E+04  0.17174685038E+03 0.  0.
         24    2    5    5    0    0 -0.49806462188E+02  0.38474422590E+02  0.39084218796E+03  0.40393890060E+03  0.80299779940E+02 0.  0.
          5    1    5    5  501    0  0.54618302233E+01  0.17477474280E+03  0.59438308625E+03  0.61958807730E+03  0.47000000000E+01 0. -1.
        -11    1    6    6    0    0 -0.47075147042E+01 -0.21008202905E+02  0.15705770709E+03  0.15852642884E+03  0.00000000000E+00 0.  1.
         12    1    6    6    0    0 -0.45098947484E+02  0.59482625494E+02  0.23378448087E+03  0.24541247176E+03  0.00000000000E+00 0. -1.
         -5    1    3    3    0  503  0.47401785823E+02 -0.32438496233E-01 -0.11049946901E+02  0.48899096904E+02  0.47000000000E+01 0.  1.
         13    1    4    4    0    0 -0.35622281557E+02 -0.10653746037E+03 -0.12317027558E+02  0.11300834736E+03  0.00000000000E+00 0. -1.
        -14    1    4    4    0    0  0.32565127698E+02 -0.10667926652E+03  0.30884697567E+02  0.11573598400E+03  0.00000000000E+00 0.  1.
</event>
<event>
12    1  0.1035051E+000  0.1758434E+03  0.7818608E-02  0.1172712E+00
         21   -1    0    0  503  502  0.00000000000E+00  0.00000000000E+00  0.16287395573E+03  0.16287395573E+03  0.00000000000E+00 0. -1.
         21   -1    0    0  501  503 -0.00000000000E+00 -0.00000000000E+00 -0.26581424378E+03  0.26581424378E+03  0.00000000000E+00 0. -1.
          6    2    1    2  501    0  0.28634588257E+01  0.34534323800E+02  0.65396057535E+02  0.18761012451E+03  0.17239517267E+03 0.  0.
         24    2    3    3    0    0  0.54189117329E+02 -0.63177869105E+01  0.73256608006E+02  0.12137496448E+03  0.79931073539E+02 0.  0.
         -6    2    1    2    0  502 -0.28634588257E+01 -0.34534323800E+02 -0.16833634559E+03  0.24107807499E+03  0.16905825647E+03 0.  0.
        -24    2    5    5    0    0 -0.61175333094E+02 -0.45858795286E+02 -0.88691545856E+02  0.14160997730E+03  0.79635073177E+02 0.  0.
          5    1    3    3  501    0 -0.51325658503E+02  0.40852110711E+02 -0.78605504712E+01  0.66235160029E+02  0.47000000000E+01 0. -1.
        -13    1    4    4    0    0  0.46253636812E+02 -0.45033722107E+01 -0.11871090749E+01  0.46487509156E+02  0.00000000000E+00 0.  1.
         14    1    4    4    0    0  0.79354805172E+01 -0.18144146997E+01  0.74443717081E+02  0.74887455322E+02  0.00000000000E+00 0. -1.
         -5    1    5    5    0  502  0.58311874269E+02  0.11324471486E+02 -0.79644799731E+02  0.99468097696E+02  0.47000000000E+01 0.  1.
         13    1    6    6    0    0 -0.41483425805E+02 -0.68349033929E+02 -0.70645577236E+02  0.10669237385E+03  0.00000000000E+00 0. -1.
        -14    1    6    6    0    0 -0.19691907289E+02  0.22490238643E+02 -0.18045968620E+02  0.34917603445E+02  0.00000000000E+00 0.  1.
</event>
<event>
12    1  0.1035051E+000  0.1991745E+03  0.7818608E-02  0.1150868E+00
         21   -1    0    0  503  502  0.00000000000E+00  0.00000000000E+00  0.23344085022E+03  0.23344085022E+03  0.00000000000E+00 0.  1.
         21   -1    0    0  501  503 -0.00000000000E+00 -0.00000000000E+00 -0.19461396256E+03  0.19461396256E+03  0.00000000000E+00 0.  1.
          6    2    1    2  501    0 -0.75606655427E+02 -0.62993182299E+02 -0.59492177631E+02  0.20593523437E+03  0.17083762523E+03 0.  0.
         24    2    3    3    0    0  0.12617507232E+02 -0.27056055559E+02  0.82931023772E+01  0.88922781440E+02  0.83350188247E+02 0.  0.
         -6    2    1    2    0  502  0.75606655427E+02  0.62993182299E+02  0.98319065297E+02  0.22211957841E+03  0.17316454935E+03 0.  0.
        -24    2    5    5    0    0  0.10762001139E+03  0.26299344945E+02  0.10606400120E+03  0.17258810668E+03  0.79141391333E+02 0.  0.
          5    1    3    3  501    0 -0.88224162659E+02 -0.35937126739E+02 -0.67785280008E+02  0.11701245293E+03  0.47000000000E+01 0. -1.
        -13    1    4    4    0    0 -0.19525324144E+02  0.21492294370E+02  0.98930539878E+01  0.30676204417E+02  0.00000000000E+00 0.  1.
         14    1    4    4    0    0  0.32142831377E+02 -0.48548349929E+02 -0.15999516105E+01  0.58246577023E+02  0.00000000000E+00 0. -1.
         -5    1    5    5    0  502 -0.32013355961E+02  0.36693837353E+02 -0.77449358986E+01  0.49531471729E+02  0.47000000000E+01 0.  1.
         11    1    6    6    0    0  0.10038746197E+03  0.47867887415E+02  0.98644886730E+02  0.14865998400E+03  0.00000000000E+00 0. -1.
        -12    1    6    6    0    0  0.72325494203E+01 -0.21568542470E+02  0.74191144657E+01  0.23928122677E+02  0.00000000000E+00 0.  1.
</event>
<event>
12    1  0.1035051E+000  0.4585830E+03  0.7818608E-02  0.1025383E+00
         21   -1    0    0  501  502  0.00000000000E+00  0.00000000000E+00  0.13823732626E+03  0.13823732626E+03  0.00000000000E+00 0. -1.
         21   -1    0    0  502  503 -0.00000000000E+00 -0.00000000000E+00 -0.16680695056E+04  0.16680695056E+04  0.00000000000E+00 0. -1.
         -6    2    1    2    0  503  0.42056184468E+03 -0.39175777125E+02 -0.48725801257E+03  0.66733395000E+03  0.17177666695E+03 0.  0.
        -24    2    3    3    0    0  0.10313882426E+03  0.20258253714E+02 -0.16642393754E+03  0.21209074949E+03  0.78978130655E+02 0.  0.
          6    2    1    2  501    0 -0.42056184468E+03  0.39175777125E+02 -0.10425741668E+04  0.11389728819E+04  0.17858142584E+03 0.  0.
         24    2    5    5    0    0 -0.33490236656E+03  0.13657833284E+02 -0.64378735451E+03  0.73026550085E+03  0.80494797128E+02 0.  0.
          5    1    5    5  501    0 -0.85659478116E+02  0.25517943841E+02 -0.39878681228E+03  0.40870738102E+03  0.47000000000E+01 0. -1.
        -13    1    6    6    0    0 -0.18499003918E+03  0.15783282419E+02 -0.43737052197E+03  0.47514566197E+03  0.00000000000E+00 0.  1.
         14    1    6    6    0    0 -0.14991232738E+03 -0.21254491352E+01 -0.20641683255E+03  0.25511983888E+03  0.00000000000E+00 0. -1.
         -5    1    3    3    0  503  0.31742302042E+03 -0.59434030839E+02 -0.32083407503E+03  0.45524320051E+03  0.47000000000E+01 0.  1.
         11    1    4    4    0    0  0.80392585523E+02  0.48349652961E+02 -0.13372352744E+03  0.16334821253E+03  0.00000000000E+00 0. -1.
        -12    1    4    4    0    0  0.22746238736E+02 -0.28091399247E+02 -0.32700410105E+02  0.48742536960E+02  0.00000000000E+00 0.  1.
</event>
<event>
12    1  0.1035051E+000  0.5020408E+03  0.7818608E-02  0.1013264E+00
         21   -1    0    0  501  502  0.00000000000E+00  0.00000000000E+00  0.60919264674E+03  0.60919264674E+03  0.00000000000E+00 0.  1.
         21   -1    0    0  502  503 -0.00000000000E+00 -0.00000000000E+00 -0.41389416929E+03  0.41389416929E+03  0.00000000000E+00 0.  1.
         -6    2    1    2    0  503  0.37667014179E+03  0.28346624700E+03  0.11293434384E+03  0.51458632289E+03  0.17265980650E+03 0.  0.
        -24    2    3    3    0    0  0.21967824252E+03  0.86897809650E+02  0.41512173339E+02  0.25303551819E+03  0.80585069166E+02 0.  0.
          6    2    1    2  501    0 -0.37667014179E+03 -0.28346624700E+03  0.82364133606E+02  0.50850049315E+03  0.17191681745E+03 0.  0.
         24    2    5    5    0    0 -0.86011256708E+02 -0.12053340839E+03  0.19943371378E+02  0.16946046759E+03  0.79955445061E+02 0.  0.
          5    1    5    5  501    0 -0.29065888508E+03 -0.16293283861E+03  0.62420762228E+02  0.33904002556E+03  0.47000000000E+01 0. -1.
        -13    1    6    6    0    0 -0.40919643254E+02 -0.69385866444E+01  0.22512600782E+02  0.47216293613E+02  0.00000000000E+00 0.  1.
         14    1    6    6    0    0 -0.45091613455E+02 -0.11359482174E+03 -0.25692294036E+01  0.12224417397E+03  0.00000000000E+00 0. -1.
         -5    1    3    3    0  503  0.15699189926E+03  0.19656843735E+03  0.71422170505E+02  0.26155080469E+03  0.47000000000E+01 0.  1.
         11    1    4    4    0    0  0.15311900627E+03  0.88574334666E+02  0.54710503682E+02  0.18515961238E+03  0.00000000000E+00 0. -1.
        -12    1    4    4    0    0  0.66559236248E+02 -0.16765250159E+01 -0.13198330343E+02  0.67875905813E+02  0.00000000000E+00 0.  1.
</event>
<event>
12    1  0.1035051E+000  0.1924401E+03  0.7818608E-02  0.1156897E+00
         21   -1    0    0  503  502  0.00000000000E+00  0.00000000000E+00  0.13292654102E+03  0.13292654102E+03  0.00000000000E+00 0. -1.
         21   -1    0    0  501  503 -0.00000000000E+00 -0.00000000000E+00 -0.27757055430E+03  0.27757055430E+03  0.00000000000E+00 0. -1.
          6    2    1    2  501    0  0.16674100902E+02  0.83830406601E+02 -0.93010866996E+02  0.21125059936E+03  0.16932286213E+03 0.  0.
         24    2    3    3    0    0  0.59388630597E+02  0.34258418664E+01 -0.47450663777E+02  0.10933275404E+03  0.78506940943E+02 0.  0.
         -6    2    1    2    0  502 -0.16674100902E+02 -0.83830406601E+02 -0.51633146290E+02  0.19924649596E+03  0.17241699929E+03 0.  0.
        -24    2    5    5    0    0  0.25272040619E+02  0.10359074244E+02 -0.15218652207E+01  0.84510418022E+02  0.79960666732E+02 0.  0.
          5    1    3    3  501    0 -0.42714529695E+02  0.80404564734E+02 -0.45560203220E+02  0.10191784532E+03  0.47000000000E+01 0. -1.
        -13    1    4    4    0    0  0.17174272659E+02  0.24858453258E+02  0.12708945889E+02  0.32778280085E+02  0.00000000000E+00 0.  1.
         14    1    4    4    0    0  0.42214357939E+02 -0.21432611391E+02 -0.60159609666E+02  0.76554473954E+02  0.00000000000E+00 0. -1.
         -5    1    5    5    0  502 -0.41946141522E+02 -0.94189480845E+02 -0.50111281069E+02  0.11473607794E+03  0.47000000000E+01 0.  1.
         11    1    6    6    0    0  0.43203780681E+02 -0.21067718386E+02 -0.40653443733E+01  0.48238391847E+02  0.00000000000E+00 0. -1.
        -12    1    6    6    0    0 -0.17931740061E+02  0.31426792630E+02  0.25434791527E+01  0.36272026175E+02  0.00000000000E+00 0.  1.
</event>
<event>
12    1  0.1035051E+000  0.4178400E+03  0.7818608E-02  0.1037830E+00
         21   -1    0    0  501  502  0.00000000000E+00  0.00000000000E+00  0.44312040765E+03  0.44312040765E+03  0.00000000000E+00 0.  1.
         21   -1    0    0  502  503 -0.00000000000E+00 -0.00000000000E+00 -0.83438698504E+03  0.83438698504E+03  0.00000000000E+00 0.  1.
         -6    2    1    2    0  503 -0.36987836240E+03  0.88395796082E+02  0.26884719727E+03  0.49626451956E+03  0.17139381014E+03 0.  0.
        -24    2    3    3    0    0 -0.33113814027E+03  0.91327469906E+02  0.28538217266E+03  0.45378046451E+03  0.80501868244E+02 0.  0.
          6    2    1    2  501    0  0.36987836240E+03 -0.88395796082E+02 -0.66011377467E+03  0.78124287313E+03  0.17310809218E+03 0.  0.
         24    2    5    5    0    0  0.14262327029E+03 -0.40759350280E+02 -0.17324476584E+03  0.24181944982E+03  0.80375217319E+02 0.  0.
          5    1    5    5  501    0  0.22725509212E+03 -0.47636445802E+02 -0.48686900882E+03  0.53942342331E+03  0.47000000000E+01 0. -1.
        -13    1    6    6    0    0 -0.79703494298E+01  0.24135976482E+01 -0.10990693544E+00  0.83285054586E+01  0.00000000000E+00 0.  1.
         14    1    6    6    0    0  0.15059361972E+03 -0.43172947928E+02 -0.17313485891E+03  0.23349094437E+03  0.00000000000E+00 0. -1.
         -5    1    3    3    0  503 -0.38740222131E+02 -0.29316738241E+01 -0.16534975396E+02  0.42484055050E+02  0.47000000000E+01 0.  1.
         13    1    4    4    0    0 -0.16689602560E+03  0.29644084620E+02  0.18795368841E+03  0.25310006736E+03  0.00000000000E+00 0. -1.
        -14    1    4    4    0    0 -0.16424211467E+03  0.61683385286E+02  0.97428484258E+02  0.20068039714E+03  0.00000000000E+00 0.  1.
</event>
<event>
12    1  0.1035051E+000  0.2002837E+03  0.7818608E-02  0.1149867E+00
         21   -1    0    0  503  502  0.00000000000E+00  0.00000000000E+00  0.48236666490E+03  0.48236666490E+03  0.00000000000E+00 0. -1.
         21   -1    0    0  501  503 -0.00000000000E+00 -0.00000000000E+00 -0.87554177346E+02  0.87554177346E+02  0.00000000000E+00 0. -1.
          6    2    1    2  501    0 -0.41134559752E+02 -0.91518367708E+02  0.12935127351E+03  0.23842257925E+03  0.17333756288E+03 0.  0.
         24    2    3    3    0    0 -0.75491365271E+01 -0.12639448691E+03  0.89138810342E+02  0.17530794911E+03  0.82186335425E+02 0.  0.
         -6    2    1    2    0  502  0.41134559752E+02  0.91518367708E+02  0.26546121405E+03  0.33149826300E+03  0.17132944456E+03 0.  0.
        -24    2    5    5    0    0  0.23056899598E+02  0.14113201614E+02  0.44154435662E+02  0.96302298544E+02  0.81201696026E+02 0.  0.
          5    1    3    3  501    0 -0.33585423225E+02  0.34876119199E+02  0.40212463166E+02  0.63114630138E+02  0.47000000000E+01 0. -1.
        -13    1    4    4    0    0 -0.31218033969E+02 -0.32938662075E+02  0.58726961772E+02  0.74218442069E+02  0.00000000000E+00 0.  1.
         14    1    4    4    0    0  0.23668897442E+02 -0.93455824832E+02  0.30411848570E+02  0.10108950704E+03  0.00000000000E+00 0. -1.
         -5    1    5    5    0  502  0.18077660154E+02  0.77405166094E+02  0.22130677839E+03  0.23519596445E+03  0.47000000000E+01 0.  1.
         13    1    6    6    0    0  0.28411692869E+01  0.15734597116E+02  0.65166508033E+02  0.67099355872E+02  0.00000000000E+00 0. -1.
        -14    1    6    6    0    0  0.20215730311E+02 -0.16213955020E+01 -0.21012072371E+02  0.29202942672E+02  0.00000000000E+00 0.  1.
</event>
<event>
12    1  0.1035051E+000  0.1742289E+03  0.7818608E-02  0.1173569E+00
         21   -1    0    0  503  502  0.00000000000E+00  0.00000000000E+00  0.96590283649E+02  0.96590283649E+02  0.00000000000E+00 0.  1.
         21   -1    0    0  501  503 -0.00000000000E+00 -0.00000000000E+00 -0.31820310736E+03  0.31820310736E+03  0.00000000000E+00 0.  1.
          6    2    1    2  501    0  0.29318451547E+01 -0.24709554383E+02 -0.13516809971E+03  0.22051333382E+03  0.17244291061E+03 0.  0.
         24    2    3    3    0    0  0.60021071097E+02  0.18698638193E+02 -0.85034276248E+02  0.13288376600E+03  0.80468000374E+02 0.  0.
         -6    2    1    2    0  502 -0.29318451547E+01  0.24709554383E+02 -0.86444724002E+02  0.19428005719E+03  0.17220015250E+03 0.  0.
        -24    2    5    5    0    0 -0.60751377943E+02 -0.12716891405E+02 -0.71469289983E+02  0.12363877436E+03  0.79537650610E+02 0.  0.
          5    1    3    3  501    0 -0.57089225942E+02 -0.43408192575E+02 -0.50133823465E+02  0.87629567821E+02  0.47000000000E+01 0. -1.
        -13    1    4    4    0    0  0.36998664297E+02 -0.30221736992E+02 -0.44759232663E+02  0.65464826091E+02  0.00000000000E+00 0.  1.
         14    1    4    4    0    0  0.23022406801E+02  0.48920375184E+02 -0.40275043585E+02  0.67418939912E+02  0.00000000000E+00 0. -1.
         -5    1    5    5    0  502  0.57819532789E+02  0.37426445788E+02 -0.14975434019E+02  0.70641282833E+02  0.47000000000E+01 0.  1.
         11    1    6    6    0    0 -0.29652263446E+02  0.10710684705E+01  0.13136817191E+02  0.32449651478E+02  0.00000000000E+00 0. -1.
        -12    1    6    6    0    0 -0.31099114498E+02 -0.13787959876E+02 -0.84606107174E+02  0.91189122878E+02  0.00000000000E+00 0.  1.
</event>
<event>
12    1  0.1035051E+000  0.1822089E+03  0.7818608E-02  0.1165802E+00
         21   -1    0    0  503  502  0.00000000000E+00  0.00000000000E+00  0.20714858718E+03  0.20714858718E+03  0.00000000000E+00 0.  1.
         21   -1    0    0  501  503 -0.00000000000E+00 -0.00000000000E+00 -0.21353777618E+03  0.21353777618E+03  0.00000000000E+00 0.  1.
          6    2    1    2  501    0  0.10541367282E+02  0.60676690925E+02 -0.10868539386E+03  0.21216169069E+03  0.17148552975E+03 0.  0.
         24    2    3    3    0    0 -0.23082942413E+02  0.95106713939E+01  0.40821677262E+01  0.83759320379E+02  0.79847883855E+02 0.  0.
         -6    2    1    2    0  502 -0.10541367282E+02 -0.60676690925E+02  0.10229620485E+03  0.20852467266E+03  0.17095392459E+03 0.  0.
        -24    2    5    5    0    0 -0.46606195523E+02 -0.14743223344E+02 -0.17628449623E+02  0.75053447177E+02  0.54154940692E+02 0.  0.
          5    1    3    3  501    0  0.33624309695E+02  0.51166019531E+02 -0.11276756158E+03  0.12840237032E+03  0.47000000000E+01 0. -1.
        -11    1    4    4    0    0 -0.31607842743E+02  0.18503998855E+02 -0.30095512025E+02  0.47404572992E+02  0.00000000000E+00 0.  1.
         12    1    4    4    0    0  0.85249003294E+01 -0.89933274613E+01  0.34177679751E+02  0.36354747387E+02  0.00000000000E+00 0. -1.
         -5    1    5    5    0  502  0.36064828241E+02 -0.45933467581E+02  0.11992465448E+03  0.13347122548E+03  0.47000000000E+01 0.  1.
         13    1    6    6    0    0 -0.24198611612E+02 -0.18750502429E+02 -0.34941166559E+02  0.46454701224E+02  0.00000000000E+00 0. -1.
        -14    1    6    6    0    0 -0.22407583911E+02  0.40072790845E+01  0.17312716936E+02  0.28598745953E+02  0.00000000000E+00 0.  1.
</event>
<event>
12    1  0.1035051E+000  0.1933127E+03  0.7818608E-02  0.1155732E+00
         21   -1    0    0  501  502  0.00000000000E+00  0.00000000000E+00  0.69454590980E+03  0.69454590980E+03  0.00000000000E+00 0. -1.
         21   -1    0    0  502  503 -0.00000000000E+00 -0.00000000000E+00 -0.79510826833E+02  0.79510826833E+02  0.00000000000E+00 0. -1.
         -6    2    1    2    0  503  0.72542882060E+02 -0.43933167171E+02  0.52933461853E+03  0.56352902094E+03  0.17371593524E+03 0.  0.
        -24    2    3    3    0    0  0.24956708439E+02  0.17920153057E+02  0.42382154939E+03  0.43220737420E+03  0.78959099581E+02 0.  0.
          6    2    1    2  501    0 -0.72542882060E+02  0.43933167171E+02  0.85700464440E+02  0.21052771569E+03  0.17258260791E+03 0.  0.
         24    2    5    5    0    0 -0.65160794651E+02  0.42125699419E+02 -0.10856789718E+02  0.11355784674E+03  0.82201039908E+02 0.  0.
          5    1    5    5  501    0 -0.73820874093E+01  0.18074677529E+01  0.96557254157E+02  0.96969868952E+02  0.47000000000E+01 0. -1.
        -13    1    6    6    0    0 -0.30797681094E+02  0.29566936962E+02  0.34779656213E+02  0.55066554353E+02  0.00000000000E+00 0.  1.
         14    1    6    6    0    0 -0.34363113557E+02  0.12558762457E+02 -0.45636445930E+02  0.58491292386E+02  0.00000000000E+00 0. -1.
         -5    1    3    3    0  503  0.47586173622E+02 -0.61853320228E+02  0.10551306914E+03  0.13132164674E+03  0.47000000000E+01 0.  1.
         13    1    4    4    0    0  0.35491121202E+02  0.91992547716E+01  0.41337594703E+03  0.41499869826E+03  0.00000000000E+00 0. -1.
        -14    1    4    4    0    0 -0.10534412763E+02  0.87208982854E+01  0.10445602361E+02  0.17208675947E+02  0.00000000000E+00 0.  1.
</event>
<event>
12    1  0.1035051E+000  0.2206769E+03  0.7818608E-02  0.1133603E+00
         21   -1    0    0  503  502  0.00000000000E+00  0.00000000000E+00  0.13107860119E+03  0.13107860119E+03  0.00000000000E+00 0. -1.
         21   -1    0    0  501  503 -0.00000000000E+00 -0.00000000000E+00 -0.48987872506E+03  0.48987872506E+03  0.00000000000E+00 0.  1.
          6    2    1    2  501    0  0.19666608976E+02 -0.13666894988E+03 -0.25123571308E+02  0.22090939269E+03  0.17060066992E+03 0.  0.
         24    2    3    3    0    0  0.71459957779E+02 -0.50482534289E+02 -0.66787304559E+01  0.11857195396E+03  0.79747670764E+02 0.  0.
         -6    2    1    2    0  502 -0.19666608976E+02  0.13666894988E+03 -0.33367655256E+03  0.40004793356E+03  0.17214276065E+03 0.  0.
        -24    2    5    5    0    0  0.12323321687E+02  0.14117448468E+03 -0.32886733706E+03  0.36704984177E+03  0.80559056464E+02 0.  0.
          5    1    3    3  501    0 -0.51793348803E+02 -0.86186415587E+02 -0.18444840852E+02  0.10233743873E+03  0.47000000000E+01 0. -1.
        -11    1    4    4    0    0  0.88374306928E+02 -0.48490084185E+02 -0.16614137124E+01  0.10081699601E+03  0.00000000000E+00 0.  1.
         12    1    4    4    0    0 -0.16914349149E+02 -0.19924501039E+01 -0.50173167435E+01  0.17754957952E+02  0.00000000000E+00 0. -1.
         -5    1    5    5    0  502 -0.31989930662E+02 -0.45055348020E+01 -0.48092155018E+01  0.32998091784E+02  0.47000000000E+01 0.  1.
         11    1    6    6    0    0 -0.16557855202E+02  0.53683830147E+02 -0.57158519054E+02  0.80144946744E+02  0.00000000000E+00 0. -1.
        -12    1    6    6    0    0  0.28881176888E+02  0.87490654531E+02 -0.27170881801E+03  0.28690489503E+03  0.00000000000E+00 0.  1.
</event>
<event>
12    1  0.1035051E+000  0.3066332E+03  0.7818608E-02  0.1082053E+00
         21   -1    0    0  501  502  0.00000000000E+00  0.00000000000E+00  0.62613841933E+03  0.62613841933E+03  0.00000000000E+00 0. -1.
         21   -1    0    0  502  503 -0.00000000000E+00 -0.00000000000E+00 -0.16020597517E+03  0.16020597517E+03  0.00000000000E+00 0. -1.
         -6    2    1    2    0  503  0.24425983907E+03 -0.71756492931E+02  0.33276417205E+03  0.45204257337E+03  0.16970159304E+03 0.  0.
        -24    2    3    3    0    0  0.15648860154E+03 -0.61034553715E+02  0.30982737353E+03  0.36057161162E+03  0.76190462350E+02 0.  0.
          6    2    1    2  501    0 -0.24425983907E+03  0.71756492931E+02  0.13316827211E+03  0.33430182114E+03  0.17091534646E+03 0.  0.
         24    2    5    5    0    0 -0.19124912051E+03  0.31082121254E+02  0.31653427616E+02  0.21267988871E+03  0.81783074198E+02 0.  0.
          5    1    5    5  501    0 -0.53010718565E+02  0.40674371678E+02  0.10151484450E+03  0.12162193243E+03  0.47000000000E+01 0. -1.
        -11    1    6    6    0    0 -0.92509761501E+02 -0.23321754481E+02 -0.65475883905E+00  0.95406440633E+02  0.00000000000E+00 0.  1.
         12    1    6    6    0    0 -0.98739359005E+02  0.54403875734E+02  0.32308186455E+02  0.11727344808E+03  0.00000000000E+00 0. -1.
         -5    1    3    3    0  503  0.87771237529E+02 -0.10721939216E+02  0.22936798514E+02  0.91470961753E+02  0.47000000000E+01 0. -1.
         13    1    4    4    0    0  0.21216157072E+02  0.87764731820E+01  0.92025558087E+02  0.94846481978E+02  0.00000000000E+00 0. -1.
        -14    1    4    4    0    0  0.13527244447E+03 -0.69811026897E+02  0.21780181545E+03  0.26572512964E+03  0.00000000000E+00 0.  1.
</event>
<event>
12    1  0.1035051E+000  0.1805502E+03  0.7818608E-02  0.1167341E+00
         21   -1    0    0  503  502  0.00000000000E+00  0.00000000000E+00  0.84081223822E+03  0.84081223822E+03  0.00000000000E+00 0. -1.
         21   -1    0    0  501  503 -0.00000000000E+00 -0.00000000000E+00 -0.38861430437E+02  0.38861430437E+02  0.00000000000E+00 0. -1.
          6    2    1    2  501    0 -0.51665259423E+02 -0.15769820821E+02  0.42823450172E+03  0.46462880884E+03  0.17198010137E+03 0.  0.
         24    2    3    3    0    0 -0.66440125844E+02 -0.38119411139E+02  0.15556660391E+03  0.19060750792E+03  0.79138321916E+02 0.  0.
         -6    2    1    2    0  502  0.51665259423E+02  0.15769820821E+02  0.37371630606E+03  0.41504485981E+03  0.17227992326E+03 0.  0.
        -24    2    5    5    0    0 -0.12415220326E+02  0.48560289129E+02  0.12736596188E+03  0.15835028492E+03  0.79627163167E+02 0.  0.
          5    1    3    3  501    0  0.14774866421E+02  0.22349590318E+02  0.27266789781E+03  0.27402130092E+03  0.47000000000E+01 0. -1.
        -13    1    4    4    0    0 -0.60628979442E+02 -0.21556869902E+02  0.16004200674E+03  0.17249352368E+03  0.00000000000E+00 0.  1.
         14    1    4    4    0    0 -0.58111464023E+01 -0.16562541237E+02 -0.44754028305E+01  0.18113984245E+02  0.00000000000E+00 0. -1.
         -5    1    5    5    0  502  0.64080479749E+02 -0.32790468308E+02  0.24635034418E+03  0.25669457488E+03  0.47000000000E+01 0.  1.
         13    1    6    6    0    0 -0.22937462073E+02  0.96372040404E+01  0.11275037362E+03  0.11546276291E+03  0.00000000000E+00 0. -1.
        -14    1    6    6    0    0  0.10522241747E+02  0.38923085089E+02  0.14615588262E+02  0.42887522014E+02  0.00000000000E+00 0.  1.
</event>
<event>
12    1  0.1035051E+000  0.1908162E+03  0.7818608E-02  0.1157734E+00
         21   -1    0    0  501  502  0.00000000000E+00  0.00000000000E+00  0.41878758568E+02  0.41878758568E+02  0.00000000000E+00 0.  1.
         21   -1    0    0  502  503 -0.00000000000E+00 -0.00000000000E+00 -0.95844477178E+03  0.95844477178E+03  0.00000000000E+00 0.  1.
         -6    2    1    2    0  503  0.70524064962E+02 -0.45380032613E+02 -0.30570653457E+03  0.36035469341E+03  0.17136519100E+03 0.  0.
        -24    2    3    3    0    0  0.98362973804E+02 -0.23379042451E+02 -0.29590695315E+03  0.32324444941E+03  0.81879148218E+02 0.  0.
          6    2    1    2  501    0 -0.70524064962E+02  0.45380032613E+02 -0.61085947864E+03  0.63996883694E+03  0.17139958723E+03 0.  0.
         24    2    5    5    0    0 -0.93685851645E+02  0.30536693742E+01 -0.28383204819E+03  0.30936783928E+03  0.79758790751E+02 0.  0.
          5    1    5    5  501    0  0.23161786684E+02  0.42326363239E+02 -0.32702743045E+03  0.33060099766E+03  0.47000000000E+01 0. -1.
        -13    1    6    6    0    0 -0.58024486834E+02 -0.34153274935E+02 -0.11972524085E+03  0.13735872946E+03  0.00000000000E+00 0.  1.
         14    1    6    6    0    0 -0.35661364812E+02  0.37206944309E+02 -0.16410680734E+03  0.17200910982E+03  0.00000000000E+00 0. -1.
         -5    1    3    3    0  503 -0.27838908843E+02 -0.22000990162E+02 -0.97995814221E+01  0.37110244000E+02  0.47000000000E+01 0.  1.
         13    1    4    4    0    0 -0.14019695994E+02 -0.14318669254E+01 -0.19509152410E+02  0.24066764353E+02  0.00000000000E+00 0. -1.
        -14    1    4    4    0    0  0.11238266980E+03 -0.21947175526E+02 -0.27639780074E+03  0.29917768506E+03  0.00000000000E+00 0.  1.
</event>
<event>
12    1  0.1035051E+000  0.1927279E+03  0.7818608E-02  0.1156055E+00
         21   -1    0    0  501  502  0.00000000000E+00  0.00000000000E+00  0.51056327697E+03  0.51056327697E+03  0.00000000000E+00 0.  1.
         21   -1    0    0  502  503 -0.00000000000E+00 -0.00000000000E+00 -0.73736509534E+02  0.73736509534E+02  0.00000000000E+00 0.  1.
         -6    2    1    2    0  503 -0.43534150130E+01 -0.87260200078E+02  0.25315942993E+03  0.31817252928E+03  0.17178698056E+03 0.  0.
        -24    2    3    3    0    0 -0.65553945330E+02 -0.39558926339E+02  0.13331373930E+03  0.17532297209E+03  0.84281451432E+02 0.  0.
          6    2    1    2  501    0  0.43534150130E+01  0.87260200078E+02  0.18366733751E+03  0.26612725722E+03  0.17162963447E+03 0.  0.
         24    2    5    5    0    0 -0.22032044826E+02  0.39516650119E+01  0.15099960789E+03  0.17271540003E+03  0.80800378515E+02 0.  0.
          5    1    5    5  501    0  0.26385459839E+02  0.83308535067E+02  0.32667729620E+02  0.93411857194E+02  0.47000000000E+01 0. -1.
        -11    1    6    6    0    0 -0.38240311312E+01 -0.34595778462E+02  0.36030660219E+02  0.50096901874E+02  0.00000000000E+00 0.  1.
         12    1    6    6    0    0 -0.18208013695E+02  0.38547443474E+02  0.11496894767E+03  0.12261849815E+03  0.00000000000E+00 0. -1.
         -5    1    3    3    0  503  0.61200530317E+02 -0.47701273740E+02  0.11984569063E+03  0.14284955719E+03  0.47000000000E+01 0.  1.
         13    1    4    4    0    0 -0.41099545838E+02 -0.66062119589E+02  0.90668748340E+02  0.11947467614E+03  0.00000000000E+00 0. -1.
        -14    1    4    4    0    0 -0.24454399492E+02  0.26503193250E+02  0.42644990955E+02  0.55848295950E+02  0.00000000000E+00 0.  1.
</event>
<event>
12    1  0.1035051E+000  0.1769324E+03  0.7818608E-02  0.1175448E+00
         21   -1    0    0  503  502  0.00000000000E+00  0.00000000000E+00  0.95801611516E+02  0.95801611516E+02  0.00000000000E+00 0. -1.
         21   -1    0    0  501  503 -0.00000000000E+00 -0.00000000000E+00 -0.30268467571E+03  0.30268467571E+03  0.00000000000E+00 0. -1.
          6    2    1    2  501    0  0.44139261752E+02  0.25316670730E+01 -0.76726671932E+02  0.19285243131E+03  0.17131956780E+03 0.  0.
         24    2    3    3    0    0 -0.40405253450E+02  0.43351677271E+02 -0.43196536107E+02  0.93050586181E+02  0.57275810151E+02 0.  0.
         -6    2    1    2    0  502 -0.44139261752E+02 -0.25316670730E+01 -0.13015639226E+03  0.20563385591E+03  0.15293760978E+03 0.  0.
        -24    2    5    5    0    0  0.82379012886E+01 -0.38057881811E+02 -0.96464700251E+02  0.13378193003E+03  0.84118375063E+02 0.  0.
          5    1    3    3  501    0  0.84544515202E+02 -0.40820010198E+02 -0.33530135825E+02  0.99801845132E+02  0.47000000000E+01 0. -1.
        -13    1    4    4    0    0 -0.37367461105E+02  0.53948440535E+00 -0.30655382595E+02  0.48336018402E+02  0.00000000000E+00 0.  1.
         14    1    4    4    0    0 -0.30377923448E+01  0.42812192866E+02 -0.12541153512E+02  0.44714567780E+02  0.00000000000E+00 0. -1.
         -5    1    5    5    0  502 -0.52377163040E+02  0.35526214738E+02 -0.33691692008E+02  0.71851925876E+02  0.47000000000E+01 0.  1.
         13    1    6    6    0    0 -0.26357323493E+02 -0.49145023113E+02 -0.65702924944E+02  0.86178977394E+02  0.00000000000E+00 0. -1.
        -14    1    6    6    0    0  0.34595224782E+02  0.11087141301E+02 -0.30761775308E+02  0.47602952640E+02  0.00000000000E+00 0.  1.
</event>
<event>
12    1  0.1035051E+000  0.2998370E+03  0.7818608E-02  0.1085716E+00
         21   -1    0    0  501  502  0.00000000000E+00  0.00000000000E+00  0.95577018743E+03  0.95577018743E+03  0.00000000000E+00 0.  1.
         21   -1    0    0  502  503 -0.00000000000E+00 -0.00000000000E+00 -0.10603648271E+03  0.10603648271E+03  0.00000000000E+00 0. -1.
         -6    2    1    2    0  503  0.23989906026E+03  0.30675670022E+02  0.61237561331E+03  0.68184023911E+03  0.17722771805E+03 0.  0.
        -24    2    3    3    0    0  0.25756005940E+03  0.11431276547E+02  0.51799468527E+03  0.58379888483E+03  0.77683882998E+02 0.  0.
          6    2    1    2  501    0 -0.23989906026E+03 -0.30675670022E+02  0.23735809141E+03  0.37996643103E+03  0.17188097423E+03 0.  0.
         24    2    5    5    0    0 -0.72833185055E+02 -0.64596740225E+02  0.13077153683E+03  0.17885842701E+03  0.73564464077E+02 0.  0.
          5    1    5    5  501    0 -0.16706587521E+03  0.33921070203E+02  0.10658655458E+03  0.20110800402E+03  0.47000000000E+01 0. -1.
        -11    1    6    6    0    0 -0.79927603960E+02 -0.27938286502E+02  0.91933976874E+02  0.12498330221E+03  0.00000000000E+00 0.  1.
         12    1    6    6    0    0  0.70944189052E+01 -0.36658453723E+02  0.38837559957E+02  0.53875124801E+02  0.00000000000E+00 0. -1.
         -5    1    3    3    0  503 -0.17660999144E+02  0.19244393476E+02  0.94380928040E+02  0.98041354279E+02  0.47000000000E+01 0.  1.
         13    1    4    4    0    0  0.68909242413E+02  0.20608225992E+02  0.84636216369E+02  0.11106967088E+03  0.00000000000E+00 0. -1.
        -14    1    4    4    0    0  0.18865081699E+03 -0.91769494454E+01  0.43335846890E+03  0.47272921395E+03  0.00000000000E+00 0.  1.
</event>
<event>
12    1  0.1035051E+000  0.2053125E+03  0.7818608E-02  0.1145408E+00
         21   -1    0    0  503  502  0.00000000000E+00  0.00000000000E+00  0.20994449743E+03  0.20994449743E+03  0.00000000000E+00 0.  1.
         21   -1    0    0  501  503 -0.00000000000E+00 -0.00000000000E+00 -0.23121282817E+03  0.23121282817E+03  0.00000000000E+00 0.  1.
          6    2    1    2  501    0  0.65014396349E+02 -0.92419275876E+02  0.69870667165E+02  0.21652533799E+03  0.17097695042E+03 0.  0.
         24    2    3    3    0    0  0.94190147085E+02 -0.65028230477E+02  0.92693825381E+02  0.17021680368E+03  0.85329715944E+02 0.  0.
         -6    2    1    2    0  502 -0.65014396349E+02  0.92419275876E+02 -0.91138997906E+02  0.22463198762E+03  0.17142058989E+03 0.  0.
        -24    2    5    5    0    0 -0.33141674256E+01  0.24312213070E+02 -0.91927236747E+02  0.13260915581E+03  0.92371553737E+02 0.  0.
          5    1    3    3  501    0 -0.29175750736E+02 -0.27391045399E+02 -0.22823158215E+02  0.46308534310E+02  0.47000000000E+01 0. -1.
        -13    1    4    4    0    0 -0.12079246427E+02 -0.66730050518E+01 -0.48324225650E+01  0.14621542276E+02  0.00000000000E+00 0.  1.
         14    1    4    4    0    0  0.10626939351E+03 -0.58355225425E+02  0.97526247946E+02  0.15559526140E+03  0.00000000000E+00 0. -1.
         -5    1    5    5    0  502 -0.61700228924E+02  0.68107062806E+02  0.78823884074E+00  0.92022831807E+02  0.47000000000E+01 0.  1.
         11    1    6    6    0    0 -0.28938436826E+02  0.23760835289E+02 -0.99146764659E+02  0.10598156142E+03  0.00000000000E+00 0. -1.
        -12    1    6    6    0    0  0.25624269401E+02  0.55137778098E+00  0.72195279115E+01  0.26627594391E+02  0.00000000000E+00 0.  1.
</event>
<event>
12    1  0.1035051E+000  0.1973371E+03  0.7818608E-02  0.1152245E+00
         21   -1    0    0  503  502  0.00000000000E+00  0.00000000000E+00  0.11221741758E+04  0.11221741758E+04  0.00000000000E+00 0. -1.
         21   -1    0    0  501  503 -0.00000000000E+00 -0.00000000000E+00 -0.41347548030E+02  0.41347548030E+02  0.00000000000E+00 0. -1.
          6    2    1    2  501    0 -0.81916633354E+02 -0.53151006705E+02  0.30505357992E+03  0.36331749229E+03  0.17148337893E+03 0.  0.
         24    2    3    3    0    0 -0.41391559595E+02  0.33824601063E+02  0.19360260729E+03  0.21617658279E+03  0.79956116423E+02 0.  0.
         -6    2    1    2    0  502  0.81916633354E+02  0.53151006705E+02  0.77577304782E+03  0.80020423150E+03  0.17019878397E+03 0.  0.
        -24    2    5    5    0    0  0.95240320069E+02  0.85397392500E+02  0.51034007399E+03  0.53244668517E+03  0.81786601682E+02 0.  0.
          5    1    3    3  501    0 -0.40525073759E+02 -0.86975607768E+02  0.11145097263E+03  0.14714090950E+03  0.47000000000E+01 0. -1.
        -11    1    4    4    0    0 -0.62914934495E+02  0.12574093387E+02  0.11097141128E+03  0.12818366093E+03  0.00000000000E+00 0.  1.
         12    1    4    4    0    0  0.21523374900E+02  0.21250507676E+02  0.82631196012E+02  0.87992921863E+02  0.00000000000E+00 0. -1.
         -5    1    5    5    0  502 -0.13323686715E+02 -0.32246385795E+02  0.26543297382E+03  0.26775754633E+03  0.47000000000E+01 0.  1.
         11    1    6    6    0    0 -0.13205239444E+02  0.35619539903E+01  0.80308046091E+02  0.81464397941E+02  0.00000000000E+00 0. -1.
        -12    1    6    6    0    0  0.10844555951E+03  0.81835438510E+02  0.43003202790E+03  0.45098228723E+03  0.00000000000E+00 0.  1.
</event>
<event>
12    1  0.1035051E+000  0.2538896E+03  0.7818608E-02  0.1110996E+00
         21   -1    0    0  501  502  0.00000000000E+00  0.00000000000E+00  0.84303783300E+03  0.84303783300E+03  0.00000000000E+00 0.  1.
         21   -1    0    0  502  503 -0.00000000000E+00 -0.00000000000E+00 -0.79905704689E+02  0.79905704689E+02  0.00000000000E+00 0. -1.
         -6    2    1    2    0  503 -0.18558953515E+03  0.22721594856E+02  0.48010900023E+03  0.54273041874E+03  0.17056350400E+03 0.  0.
        -24    2    3    3    0    0 -0.12183329249E+03  0.81967513724E+01  0.16170571309E+03  0.21764800946E+03  0.79444197321E+02 0.  0.
          6    2    1    2  501    0  0.18558953515E+03 -0.22721594856E+02  0.28302312809E+03  0.38021311895E+03  0.17175615961E+03 0.  0.
         24    2    5    5    0    0  0.68084507233E+02  0.16959340443E+02  0.56636003817E+02  0.12203638056E+03  0.82232122063E+02 0.  0.
          5    1    5    5  501    0  0.11750502791E+03 -0.39680935300E+02  0.22638712427E+03  0.25817673839E+03  0.47000000000E+01 0. -1.
        -11    1    6    6    0    0  0.72024469539E+02  0.92645899336E+01  0.73351825900E+02  0.10321747527E+03  0.00000000000E+00 0.  1.
         12    1    6    6    0    0 -0.39399623054E+01  0.76947505096E+01 -0.16715822083E+02  0.18818905289E+02  0.00000000000E+00 0. -1.
         -5    1    3    3    0  503 -0.63756242659E+02  0.14524843484E+02  0.31840328714E+03  0.32508240927E+03  0.47000000000E+01 0.  1.
         11    1    4    4    0    0 -0.84081818778E+01  0.25581913316E+02  0.13243637126E+02  0.30008760983E+02  0.00000000000E+00 0. -1.
        -12    1    4    4    0    0 -0.11342511061E+03 -0.17385161944E+02  0.14846207596E+03  0.18763924848E+03  0.00000000000E+00 0.  1.
</event>
<event>
12    1  0.1035051E+000  0.2677173E+03  0.7818608E-02  0.1102638E+00
         21   -1    0    0  503  502  0.00000000000E+00  0.00000000000E+00  0.92446399634E+03  0.92446399634E+03  0.00000000000E+00 0. -1.
         21   -1    0    0  501  503 -0.00000000000E+00 -0.00000000000E+00 -0.77624656247E+02  0.77624656247E+02  0.00000000000E+00 0. -1.
          6    2    1    2  501    0  0.14745750134E+03  0.14083160198E+03  0.39922742966E+03  0.48068192585E+03  0.17348002315E+03 0.  0.
         24    2    3    3    0    0  0.15151341484E+03  0.16727501261E+03  0.36017031721E+03  0.43310827314E+03  0.83203810833E+02 0.  0.
         -6    2    1    2    0  502 -0.14745750134E+03 -0.14083160198E+03  0.44761191043E+03  0.52140672673E+03  0.17300664005E+03 0.  0.
        -24    2    5    5    0    0 -0.13592764073E+03 -0.16869244590E+03  0.42547224936E+03  0.48370501719E+03  0.77527052478E+02 0.  0.
          5    1    3    3  501    0 -0.40559134981E+01 -0.26443410634E+02  0.39057112446E+02  0.47573652718E+02  0.47000000000E+01 0. -1.
        -13    1    4    4    0    0  0.94911335288E+02  0.55968722639E+02  0.12344377716E+03  0.16546608595E+03  0.00000000000E+00 0.  1.
         14    1    4    4    0    0  0.56602079555E+02  0.11130628997E+03  0.23672654005E+03  0.26764218718E+03  0.00000000000E+00 0. -1.
         -5    1    5    5    0  502 -0.11529860612E+02  0.27860843919E+02  0.22139661076E+02  0.37701709539E+02  0.47000000000E+01 0.  1.
         11    1    6    6    0    0 -0.49694648178E+01 -0.52281906384E+02  0.71230572254E+02  0.88497953306E+02  0.00000000000E+00 0. -1.
        -12    1    6    6    0    0 -0.13095817591E+03 -0.11641053951E+03  0.35424167710E+03  0.39520706389E+03  0.00000000000E+00 0.  1.
</event>
<event>
12    1  0.1035051E+000  0.3225194E+03  0.7818608E-02  0.1075114E+00
         21   -1    0    0  501  502  0.00000000000E+00  0.00000000000E+00  0.63996787698E+03  0.63996787698E+03  0.00000000000E+00 0.  1.
         21   -1    0    0  502  503 -0.00000000000E+00 -0.00000000000E+00 -0.15984725257E+03  0.15984725257E+03  0.00000000000E+00 0.  1.
         -6    2    1    2    0  503  0.15336137736E+03 -0.22572107172E+03  0.23912631888E+03  0.40149741904E+03  0.17189842011E+03 0.  0.
        -24    2    3    3    0    0  0.12977571829E+03 -0.82038276459E+02  0.15941397709E+03  0.23543364695E+03  0.80275588840E+02 0.  0.
          6    2    1    2  501    0 -0.15336137736E+03  0.22572107172E+03  0.24099430553E+03  0.39831771051E+03  0.16158288563E+03 0.  0.
         24    2    5    5    0    0 -0.50635170412E+02  0.62500160301E+02  0.39904071097E+02  0.11965463097E+03  0.79086694846E+02 0.  0.
          5    1    5    5  501    0 -0.10272620694E+03  0.16322091142E+03  0.20109023443E+03  0.27866307954E+03  0.47000000000E+01 0. -1.
        -11    1    6    6    0    0 -0.28791362524E+02  0.73330679858E+02  0.49954112885E+02  0.93283141878E+02  0.00000000000E+00 0.  1.
         12    1    6    6    0    0 -0.21843807888E+02 -0.10830519557E+02 -0.10050041788E+02  0.26371489090E+02  0.00000000000E+00 0. -1.
         -5    1    3    3    0  503  0.23585659061E+02 -0.14368279526E+03  0.79712341788E+02  0.16606377209E+03  0.47000000000E+01 0.  1.
         11    1    4    4    0    0  0.84880290332E+02 -0.90558317653E+02  0.94268401370E+02  0.15585892365E+03  0.00000000000E+00 0. -1.
        -12    1    4    4    0    0  0.44895427963E+02  0.85200411948E+01  0.65145575718E+02  0.79574723308E+02  0.00000000000E+00 0.  1.
</event>
<event>
12    1  0.1035051E+000  0.2210078E+03  0.7818608E-02  0.1133726E+00
         21   -1    0    0  501  502  0.00000000000E+00  0.00000000000E+00  0.14165927558E+03  0.14165927558E+03  0.00000000000E+00 0.  1.
         21   -1    0    0  502  503 -0.00000000000E+00 -0.00000000000E+00 -0.34831181812E+03  0.34831181812E+03  0.00000000000E+00 0.  1.
         -6    2    1    2    0  503 -0.11208757206E+03  0.80100107342E+02 -0.14073198651E+03  0.25934159722E+03  0.16873921007E+03 0.  0.
        -24    2    3    3    0    0 -0.58232146022E+00  0.23479549328E+02 -0.87430482901E+01  0.77455703555E+02  0.73289267870E+02 0.  0.
          6    2    1    2  501    0  0.11208757206E+03 -0.80100107342E+02 -0.65920556035E+02  0.23062949648E+03  0.17281433370E+03 0.  0.
         24    2    5    5    0    0  0.51939953527E+02  0.63591568425E+01 -0.80186076020E+02  0.12424089070E+03  0.79169403732E+02 0.  0.
          5    1    5    5  501    0  0.60147618530E+02 -0.86459264185E+02  0.14265519985E+02  0.10638860577E+03  0.47000000000E+01 0. -1.
        -13    1    6    6    0    0 -0.15460947006E+02 -0.17544730290E+02 -0.19550257543E+02  0.30480666221E+02  0.00000000000E+00 0.  1.
         14    1    6    6    0    0  0.67400900533E+02  0.23903887133E+02 -0.60635818477E+02  0.93760224483E+02  0.00000000000E+00 0. -1.
         -5    1    3    3    0  503 -0.11150525060E+03  0.56620558014E+02 -0.13198893822E+03  0.18188589366E+03  0.47000000000E+01 0.  1.
         13    1    4    4    0    0  0.23441702096E+01 -0.26420636182E+02 -0.70309235866E+01  0.27440463493E+02  0.00000000000E+00 0. -1.
        -14    1    4    4    0    0 -0.29264916698E+01  0.49900185510E+02 -0.17121247035E+01  0.50015240062E+02  0.00000000000E+00 0.  1.
</event>
<event>
12    1  0.1035051E+000  0.1751701E+03  0.7818608E-02  0.1172969E+00
         21   -1    0    0  501  502  0.00000000000E+00  0.00000000000E+00  0.83001603530E+02  0.83001603530E+02  0.00000000000E+00 0.  1.
         21   -1    0    0  502  503 -0.00000000000E+00 -0.00000000000E+00 -0.42148295203E+03  0.42148295203E+03  0.00000000000E+00 0.  1.
         -6    2    1    2    0  503 -0.21272043503E+02 -0.11150540193E+02 -0.77271188594E+02  0.18997649279E+03  0.17188192705E+03 0.  0.
        -24    2    3    3    0    0 -0.36451915915E+02  0.24795179832E+02 -0.10849418510E+03  0.13978198288E+03  0.76318224702E+02 0.  0.
          6    2    1    2  501    0  0.21272043503E+02  0.11150540193E+02 -0.26121015991E+03  0.31450806277E+03  0.17351581924E+03 0.  0.
         24    2    5    5    0    0 -0.42059318100E+02 -0.14068420435E+02 -0.21065411036E+03  0.22950887758E+03  0.79575523766E+02 0.  0.
          5    1    5    5  501    0  0.63331361603E+02  0.25218960628E+02 -0.50556049552E+02  0.84999185196E+02  0.47000000000E+01 0. -1.
        -11    1    6    6    0    0 -0.26090640929E+02  0.32590649049E+02 -0.93362505584E+02  0.10227135180E+03  0.00000000000E+00 0.  1.
         12    1    6    6    0    0 -0.15968677171E+02 -0.46659069484E+02 -0.11729160477E+03  0.12723752578E+03  0.00000000000E+00 0. -1.
         -5    1    3    3    0  503  0.15179872412E+02 -0.35945720025E+02  0.31222996503E+02  0.50194509911E+02  0.47000000000E+01 0.  1.
         13    1    4    4    0    0 -0.13315814179E+02  0.14915233460E+02  0.73008689874E+01  0.21285623890E+02  0.00000000000E+00 0. -1.
        -14    1    4    4    0    0 -0.23136101736E+02  0.98799463721E+01 -0.11579505408E+03  0.11849635899E+03  0.00000000000E+00 0.  1.
</event>
<event>
12    1  0.1035051E+000  0.1821942E+03  0.7818608E-02  0.1165952E+00
         21   -1    0    0  503  502  0.00000000000E+00  0.00000000000E+00  0.15917975983E+03  0.15917975983E+03  0.00000000000E+00 0.  1.
         21   -1    0    0  501  503 -0.00000000000E+00 -0.00000000000E+00 -0.20731547264E+03  0.20731547264E+03  0.00000000000E+00 0.  1.
          6    2    1    2  501    0  0.20554747777E+02 -0.52287491369E+02 -0.24520130431E+02  0.18383677509E+03  0.17331544556E+03 0.  0.
         24    2    3    3    0    0  0.67286907732E+01 -0.55855266785E+01 -0.76201177229E+02  0.11266617754E+03  0.82526206519E+02 0.  0.
         -6    2    1    2    0  502 -0.20554747777E+02  0.52287491369E+02 -0.23615582374E+02  0.18265845737E+03  0.17219157038E+03 0.  0.
        -24    2    5    5    0    0 -0.23274602564E+02  0.85896245827E+02 -0.57761672720E+02  0.13444029200E+03  0.82570631011E+02 0.  0.
          5    1    3    3  501    0  0.13826057004E+02 -0.46701964691E+02  0.51681046798E+02  0.71170597555E+02  0.47000000000E+01 0. -1.
        -11    1    4    4    0    0 -0.37812723197E+02 -0.55798272781E+01 -0.31077285593E+02  0.49261893872E+02  0.00000000000E+00 0.  1.
         12    1    4    4    0    0  0.44541413970E+02 -0.56994003902E-02 -0.45123891637E+02  0.63404283667E+02  0.00000000000E+00 0. -1.
         -5    1    5    5    0  502  0.27198547874E+01 -0.33608754457E+02  0.34146090346E+02  0.48218165375E+02  0.47000000000E+01 0.  1.
         11    1    6    6    0    0  0.83090024883E+01  0.69080722727E+02 -0.67932221131E+02  0.97241824554E+02  0.00000000000E+00 0. -1.
        -12    1    6    6    0    0 -0.31583605052E+02  0.16815523100E+02  0.10170548411E+02  0.37198467444E+02  0.00000000000E+00 0.  1.
</event>
<event>
12    1  0.1035051E+000  0.4136228E+03  0.7818608E-02  0.1039230E+00
         21   -1    0    0  501  502  0.00000000000E+00  0.00000000000E+00  0.48935619419E+03  0.48935619419E+03  0.00000000000E+00 0.  1.
         21   -1    0    0  502  503 -0.00000000000E+00 -0.00000000000E+00 -0.39902486512E+03  0.39902486512E+03  0.00000000000E+00 0.  1.
         -6    2    1    2    0  503 -0.26447929082E+03  0.26676232359E+03 -0.11227573565E+03  0.42780156284E+03  0.17116338332E+03 0.  0.
        -24    2    3    3    0    0 -0.17248468607E+03  0.10568114032E+03 -0.42189025231E+01  0.21307260789E+03  0.66803194144E+02 0.  0.
          6    2    1    2  501    0  0.26447929082E+03 -0.26676232359E+03  0.20260706472E+03  0.46057949647E+03  0.17312543815E+03 0.  0.
         24    2    5    5    0    0  0.15429942265E+03 -0.24453038161E+03  0.16020525437E+03  0.34035526382E+03  0.81071343403E+02 0.  0.
          5    1    5    5  501    0  0.11017986818E+03 -0.22231941973E+02  0.42401810355E+02  0.12022423265E+03  0.47000000000E+01 0. -1.
        -11    1    6    6    0    0  0.19683481731E+02 -0.20858360036E+00  0.23200986923E+01  0.19820843022E+02  0.00000000000E+00 0.  1.
         12    1    6    6    0    0  0.13461594091E+03 -0.24432179801E+03  0.15788515567E+03  0.32053442079E+03  0.00000000000E+00 0. -1.
         -5    1    3    3    0  503 -0.91994604758E+02  0.16108118326E+03 -0.10805683313E+03  0.21472895494E+03  0.47000000000E+01 0.  1.
         11    1    4    4    0    0 -0.13641694954E+03  0.10926551412E+03  0.76066839027E+01  0.17494684432E+03  0.00000000000E+00 0. -1.
        -12    1    4    4    0    0 -0.36067736525E+02 -0.35843737958E+01 -0.11825586426E+02  0.38125763571E+02  0.00000000000E+00 0.  1.
</event>
<event>
12    1  0.1035051E+000  0.1755191E+03  0.7818608E-02  0.1172490E+00
         21   -1    0    0  503  502  0.00000000000E+00  0.00000000000E+00  0.19744695971E+03  0.19744695971E+03  0.00000000000E+00 0. -1.
         21   -1    0    0  501  503 -0.00000000000E+00 -0.00000000000E+00 -0.30691281601E+03  0.30691281601E+03  0.00000000000E+00 0. -1.
          6    2    1    2  501    0 -0.32787734874E+02 -0.75449184712E+01 -0.23203936744E+03  0.29027752902E+03  0.17113390798E+03 0.  0.
         24    2    3    3    0    0 -0.82023646891E+02 -0.86467783532E+01 -0.11040177965E+03  0.15896423232E+03  0.79236536907E+02 0.  0.
         -6    2    1    2    0  502  0.32787734874E+02  0.75449184712E+01  0.12257351113E+03  0.21408224670E+03  0.17226427769E+03 0.  0.
        -24    2    5    5    0    0 -0.26196663509E+02 -0.46288618865E+02  0.66725253612E+02  0.11652033373E+03  0.79346249358E+02 0.  0.
          5    1    3    3  501    0  0.49235912017E+02  0.11018598820E+01 -0.12163758779E+03  0.13131329670E+03  0.47000000000E+01 0. -1.
        -13    1    4    4    0    0 -0.13572582781E+02  0.20810228654E+02 -0.69823829806E+02  0.74112399966E+02  0.00000000000E+00 0.  1.
         14    1    4    4    0    0 -0.68451064110E+02 -0.29457007008E+02 -0.40577949841E+02  0.84851832349E+02  0.00000000000E+00 0. -1.
         -5    1    5    5    0  502  0.58984398383E+02  0.53833537336E+02  0.55848257523E+02  0.97561912974E+02  0.47000000000E+01 0.  1.
         13    1    6    6    0    0 -0.45524889467E+02 -0.79627597705E+01  0.13507635281E+02  0.48149530787E+02  0.00000000000E+00 0. -1.
        -14    1    6    6    0    0  0.19328225958E+02 -0.38325859094E+02  0.53217618331E+02  0.68370802941E+02  0.00000000000E+00 0.  1.
</event>
<event>
12    1  0.1035051E+000  0.3424263E+03  0.7818608E-02  0.1065882E+00
         21   -1    0    0  501  502  0.00000000000E+00  0.00000000000E+00  0.28879496864E+03  0.28879496864E+03  0.00000000000E+00 0. -1.
         21   -1    0    0  502  503 -0.00000000000E+00 -0.00000000000E+00 -0.44463800897E+03  0.44463800897E+03  0.00000000000E+00 0.  1.
         -6    2    1    2    0  503  0.24777659334E+03 -0.16056620245E+03  0.31823317531E+02  0.34390187316E+03  0.17343883432E+03 0.  0.
        -24    2    3    3    0    0  0.41279325259E+02 -0.73166817478E+02  0.17410588496E+02  0.11915848399E+03  0.82693711017E+02 0.  0.
          6    2    1    2  501    0 -0.24777659334E+03  0.16056620245E+03 -0.18766635787E+03  0.38953110445E+03  0.17129236376E+03 0.  0.
         24    2    5    5    0    0 -0.22313712920E+03  0.85435784893E+02 -0.18044688268E+03  0.30999561767E+03  0.80291679133E+02 0.  0.
          5    1    5    5  501    0 -0.24639464141E+02  0.75130417553E+02 -0.72194751846E+01  0.79535486776E+02  0.47000000000E+01 0. -1.
        -13    1    6    6    0    0 -0.19578805670E+03  0.73861047668E+02 -0.11652767799E+03  0.23951433620E+03  0.00000000000E+00 0.  1.
         14    1    6    6    0    0 -0.27349072495E+02  0.11574737225E+02 -0.63919204697E+02  0.70481281467E+02  0.00000000000E+00 0. -1.
         -5    1    3    3    0  503  0.20649726808E+03 -0.87399384968E+02  0.14412729034E+02  0.22474338917E+03  0.47000000000E+01 0.  1.
         11    1    4    4    0    0  0.40933751805E+02 -0.80084587932E+02 -0.10362715289E+02  0.90534518993E+02  0.00000000000E+00 0. -1.
        -12    1    4    4    0    0  0.34557345361E+00  0.69177704546E+01  0.27773303785E+02  0.28623964998E+02  0.00000000000E+00 0.  1.
</event>
<event>
12    1  0.1035051E+000  0.1917538E+03  0.7818608E-02  0.1157012E+00
         21   -1    0    0  503  502  0.00000000000E+00  0.00000000000E+00  0.49953962976E+03  0.49953962976E+03  0.00000000000E+00 0. -1.
         21   -1    0    0  501  503 -0.00000000000E+00 -0.00000000000E+00 -0.13143921781E+03  0.13143921781E+03  0.00000000000E+00 0. -1.
          6    2    1    2  501    0 -0.63764882387E+02  0.54212431967E+02 -0.25751350487E+02  0.19292777149E+03  0.17190999085E+03 0.  0.
         24    2    3    3    0    0 -0.53812546002E+02  0.39377485977E+01  0.34978722082E+02  0.11332359759E+03  0.93313615302E+02 0.  0.
         -6    2    1    2    0  502  0.63764882387E+02 -0.54212431967E+02  0.39385176243E+03  0.43805107609E+03  0.17252416204E+03 0.  0.
        -24    2    5    5    0    0 -0.19304679879E+02 -0.12899113905E+02  0.99490494975E+02  0.12937974894E+03  0.79383266755E+02 0.  0.
          5    1    3    3  501    0 -0.99523363851E+01  0.50274683369E+02 -0.60730072570E+02  0.79604173896E+02  0.47000000000E+01 0. -1.
        -13    1    4    4    0    0 -0.95025488510E+01 -0.21080534256E+02 -0.25408929887E+02  0.34355510143E+02  0.00000000000E+00 0.  1.
         14    1    4    4    0    0 -0.44309997151E+02  0.25018282854E+02  0.60387651969E+02  0.78968087446E+02  0.00000000000E+00 0. -1.
         -5    1    5    5    0  502  0.83069562266E+02 -0.41313318062E+02  0.29436126746E+03  0.30867132715E+03  0.47000000000E+01 0.  1.
         13    1    6    6    0    0 -0.16615654728E+02 -0.35336310712E+02  0.99386152722E+02  0.10678175026E+03  0.00000000000E+00 0. -1.
        -14    1    6    6    0    0 -0.26890251514E+01  0.22437196807E+02  0.10434225305E+00  0.22597998676E+02  0.00000000000E+00 0.  1.
</event>
<event>
12    1  0.1035051E+000  0.4083162E+03  0.7818608E-02  0.1040958E+00
         21   -1    0    0  503  502  0.00000000000E+00  0.00000000000E+00  0.11137392844E+04  0.11137392844E+04  0.00000000000E+00 0. -1.
         21   -1    0    0  501  503 -0.00000000000E+00 -0.00000000000E+00 -0.14988700679E+03  0.14988700679E+03  0.00000000000E+00 0. -1.
          6    2    1    2  501    0  0.35919171921E+03  0.87204957004E+02  0.45474382982E+03  0.61115797053E+03  0.17348982249E+03 0.  0.
         24    2    3    3    0    0  0.30701655947E+03  0.57332303696E+02  0.44587348381E+03  0.55020392434E+03  0.79843809709E+02 0.  0.
         -6    2    1    2    0  502 -0.35919171921E+03 -0.87204957004E+02  0.50910844780E+03  0.65246832068E+03  0.17291646016E+03 0.  0.
        -24    2    5    5    0    0 -0.28548136622E+03 -0.44999086827E+02  0.47068170565E+03  0.55912349689E+03  0.86909656960E+02 0.  0.
          5    1    3    3  501    0  0.52175159734E+02  0.29872653308E+02  0.88703460058E+01  0.60954046192E+02  0.47000000000E+01 0. -1.
        -11    1    4    4    0    0  0.19185524157E+03  0.63716943403E+02  0.23618972222E+03  0.31089205117E+03  0.00000000000E+00 0.  1.
         12    1    4    4    0    0  0.11516131790E+03 -0.63846397070E+01  0.20968376159E+03  0.23931187317E+03  0.00000000000E+00 0. -1.
         -5    1    5    5    0  502 -0.73710352988E+02 -0.42205870177E+02  0.38426742151E+02  0.93344823784E+02  0.47000000000E+01 0.  1.
         13    1    6    6    0    0 -0.12782783376E+03 -0.20917689692E+02  0.29306962180E+03  0.32041739661E+03  0.00000000000E+00 0. -1.
        -14    1    6    6    0    0 -0.15765353246E+03 -0.24081397136E+02  0.17761208385E+03  0.23870610029E+03  0.00000000000E+00 0.  1.
</event>
<event>
12    1  0.1035051E+000  0.2823653E+03  0.7818608E-02  0.1094568E+00
         21   -1    0    0  503  502  0.00000000000E+00  0.00000000000E+00  0.27363838957E+03  0.27363838957E+03  0.00000000000E+00 0.  1.
         21   -1    0    0  501  503 -0.00000000000E+00 -0.00000000000E+00 -0.31288019154E+03  0.31288019154E+03  0.00000000000E+00 0.  1.
          6    2    1    2  501    0 -0.54102455303E+02  0.21591596389E+03  0.59433418947E+02  0.28855242196E+03  0.17373367492E+03 0.  0.
         24    2    3    3    0    0 -0.40477113584E+02  0.21168835099E+03  0.23397560427E+01  0.22951600107E+03  0.78878169481E+02 0.  0.
         -6    2    1    2    0  502  0.54102455303E+02 -0.21591596389E+03 -0.98675220910E+02  0.29796615914E+03  0.17175637875E+03 0.  0.
        -24    2    5    5    0    0  0.17911966386E+02 -0.21182932502E+03 -0.42289612716E+02  0.23067664349E+03  0.78935423168E+02 0.  0.
          5    1    3    3  501    0 -0.13625341718E+02  0.42276129015E+01  0.57093662904E+02  0.59036420891E+02  0.47000000000E+01 0. -1.
        -11    1    4    4    0    0 -0.37506361410E+02  0.80470189183E+02 -0.31100310860E+02  0.94071291205E+02  0.00000000000E+00 0.  1.
         12    1    4    4    0    0 -0.29707521742E+01  0.13121816181E+03  0.33440066902E+02  0.13544470987E+03  0.00000000000E+00 0. -1.
         -5    1    5    5    0  502  0.36190488917E+02 -0.40866388730E+01 -0.56385608194E+02  0.67289515652E+02  0.47000000000E+01 0.  1.
         11    1    6    6    0    0  0.23247595953E+02 -0.11650168037E+03 -0.60751829155E+02  0.13343116949E+03  0.00000000000E+00 0. -1.
        -12    1    6    6    0    0 -0.53356295676E+01 -0.95327644649E+02  0.18462216439E+02  0.97245473997E+02  0.00000000000E+00 0.  1.
</event>
<event>
12    1  0.1035051E+000  0.3946440E+03  0.7818608E-02  0.1045684E+00
         21   -1    0    0  503  502  0.00000000000E+00  0.00000000000E+00  0.20733558794E+03  0.20733558794E+03  0.00000000000E+00 0.  1.
         21   -1    0    0  501  503 -0.00000000000E+00 -0.00000000000E+00 -0.75123125815E+03  0.75123125815E+03  0.00000000000E+00 0.  1.
          6    2    1    2  501    0  0.34054640346E+03 -0.10485098266E+03 -0.25651730909E+03  0.47068569019E+03  0.16964170365E+03 0.  0.
         24    2    3    3    0    0  0.24393289410E+03 -0.13890422169E+03 -0.18721839945E+03  0.34691888465E+03  0.80649512100E+02 0.  0.
         -6    2    1    2    0  502 -0.34054640346E+03  0.10485098266E+03 -0.28737836111E+03  0.48788115590E+03  0.16874868408E+03 0.  0.
        -24    2    5    5    0    0 -0.26572227634E+03  0.98877680904E+02 -0.14762750702E+03  0.32917790593E+03  0.78607181601E+02 0.  0.
          5    1    3    3  501    0  0.96613509353E+02  0.34053239030E+02 -0.69298909639E+02  0.12376680555E+03  0.47000000000E+01 0. -1.
        -13    1    4    4    0    0  0.34138634266E+02 -0.16141478016E+02  0.35453311450E+01  0.37928393520E+02  0.00000000000E+00 0.  1.
         14    1    4    4    0    0  0.20979425984E+03 -0.12276274367E+03 -0.19076373060E+03  0.30899049113E+03  0.00000000000E+00 0. -1.
         -5    1    5    5    0  502 -0.74824127114E+02  0.59733017549E+01 -0.13975085409E+03  0.15870324997E+03  0.47000000000E+01 0.  1.
         13    1    6    6    0    0 -0.14211329742E+03  0.14559497237E+02 -0.89953562498E+02  0.16881887237E+03  0.00000000000E+00 0. -1.
        -14    1    6    6    0    0 -0.12360897892E+03  0.84318183667E+02 -0.57673944524E+02  0.16035903356E+03  0.00000000000E+00 0.  1.
</event>
<event>
12    1  0.1035051E+000  0.3315873E+03  0.7818608E-02  0.1070491E+00
         21   -1    0    0  503  502  0.00000000000E+00  0.00000000000E+00  0.11051235339E+04  0.11051235339E+04  0.00000000000E+00 0.  1.
         21   -1    0    0  501  503 -0.00000000000E+00 -0.00000000000E+00 -0.15154798439E+03  0.15154798439E+03  0.00000000000E+00 0.  1.
          6    2    1    2  501    0 -0.24310636883E+03 -0.14630846112E+03  0.84580331179E+03  0.90847862456E+03  0.17159049125E+03 0.  0.
         24    2    3    3    0    0 -0.24530153897E+03 -0.15789872730E+03  0.70079238130E+03  0.76291278721E+03  0.76296173533E+02 0.  0.
         -6    2    1    2    0  502  0.24310636883E+03  0.14630846112E+03  0.10777223771E+03  0.34819289372E+03  0.17063576311E+03 0.  0.
        -24    2    5    5    0    0  0.19269426127E+03  0.17481968103E+03  0.82033173534E+02  0.28464087035E+03  0.81227977392E+02 0.  0.
          5    1    3    3  501    0  0.21951701409E+01  0.11590266181E+02  0.14501093049E+03  0.14556583735E+03  0.47000000000E+01 0.  1.
        -13    1    4    4    0    0 -0.79308430362E+01  0.41927068194E+01  0.59215652423E+02  0.59891322858E+02  0.00000000000E+00 0.  1.
         14    1    4    4    0    0 -0.23737069594E+03 -0.16209143412E+03  0.64157672887E+03  0.70302146435E+03  0.00000000000E+00 0. -1.
         -5    1    5    5    0  502  0.50412107559E+02 -0.28511219910E+02  0.25739064172E+02  0.63552023365E+02  0.47000000000E+01 0.  1.
         13    1    6    6    0    0  0.16031239240E+03  0.99097069022E+02  0.71669847259E+02  0.20163546129E+03  0.00000000000E+00 0. -1.
        -14    1    6    6    0    0  0.32381868877E+02  0.75722612012E+02  0.10363326274E+02  0.83005409061E+02  0.00000000000E+00 0.  1.
</event>
<event>
12    1  0.1035051E+000  0.8054017E+03  0.7818608E-02  0.9552340E-01
         21   -1    0    0  503  502  0.00000000000E+00  0.00000000000E+00  0.67812582553E+03  0.67812582553E+03  0.00000000000E+00 0.  1.
         21   -1    0    0  501  503 -0.00000000000E+00 -0.00000000000E+00 -0.11279667517E+04  0.11279667517E+04  0.00000000000E+00 0. -1.
          6    2    1    2  501    0 -0.59048093859E+03  0.51957151703E+03 -0.57727529211E+03  0.99067161429E+03  0.17193366259E+03 0.  0.
         24    2    3    3    0    0 -0.29144127594E+03  0.23937543396E+03 -0.35783663939E+03  0.52579531127E+03  0.78581379192E+02 0.  0.
         -6    2    1    2    0  502  0.59048093859E+03 -0.51957151703E+03  0.12743436596E+03  0.81542096293E+03  0.17334799975E+03 0.  0.
        -24    2    5    5    0    0  0.37662929945E+03 -0.41888165532E+03  0.84715148757E+02  0.57517526925E+03  0.79614468304E+02 0.  0.
          5    1    3    3  501    0 -0.29903966265E+03  0.28019608306E+03 -0.21943865272E+03  0.46487630302E+03  0.47000000000E+01 0. -1.
        -13    1    4    4    0    0 -0.13773598921E+03  0.16127461741E+03 -0.18101305228E+03  0.27883046828E+03  0.00000000000E+00 0.  1.
         14    1    4    4    0    0 -0.15370528673E+03  0.78100816551E+02 -0.17682358710E+03  0.24696484298E+03  0.00000000000E+00 0. -1.
         -5    1    5    5    0  502  0.21385163914E+03 -0.10068986171E+03  0.42719217198E+02  0.24024569368E+03  0.47000000000E+01 0.  1.
         13    1    6    6    0    0  0.18572158100E+03 -0.23026398754E+03  0.81251691113E+02  0.30678306165E+03  0.00000000000E+00 0. -1.
        -14    1    6    6    0    0  0.19090771845E+03 -0.18861766778E+03  0.34634576437E+01  0.26839220760E+03  0.00000000000E+00 0.  1.
</event>
<event>
12    1  0.1035051E+000  0.2806336E+03  0.7818608E-02  0.1095374E+00
         21   -1    0    0  501  502  0.00000000000E+00  0.00000000000E+00  0.25615637720E+03  0.25615637720E+03  0.00000000000E+00 0.  1.
         21   -1    0    0  502  503 -0.00000000000E+00 -0.00000000000E+00 -0.75842316521E+03  0.75842316521E+03  0.00000000000E+00 0. -1.
         -6    2    1    2    0  503  0.12013361155E+03  0.18472071312E+03  0.14019110202E+03  0.31350369106E+03  0.17342777385E+03 0.  0.
        -24    2    3    3    0    0  0.73014290615E+02  0.20164198103E+03  0.10080652633E+03  0.24963042189E+03  0.78503609025E+02 0.  0.
          6    2    1    2  501    0 -0.12013361155E+03 -0.18472071312E+03 -0.64245789003E+03  0.70107585135E+03  0.17378544936E+03 0.  0.
         24    2    5    5    0    0 -0.51729559160E+02 -0.12639872959E+03 -0.54882746447E+03  0.57119392521E+03  0.79989551262E+02 0.  0.
          5    1    5    5  501    0 -0.68404052394E+02 -0.58321983537E+02 -0.93630425559E+02  0.12988192614E+03  0.47000000000E+01 0. -1.
        -11    1    6    6    0    0  0.11218687389E+02 -0.71816015910E+02 -0.20815379892E+03  0.22047993808E+03  0.00000000000E+00 0.  1.
         12    1    6    6    0    0 -0.62948246549E+02 -0.54582713677E+02 -0.34067366555E+03  0.35071398714E+03  0.00000000000E+00 0. -1.
         -5    1    3    3    0  503  0.47119320939E+02 -0.16921267911E+02  0.39384575687E+02  0.63873269178E+02  0.47000000000E+01 0.  1.
         11    1    4    4    0    0  0.10076567276E+02  0.38149791268E+02 -0.12026973568E+02  0.41250356060E+02  0.00000000000E+00 0. -1.
        -12    1    4    4    0    0  0.62937723338E+02  0.16349218977E+03  0.11283349990E+03  0.20838006582E+03  0.00000000000E+00 0.  1.
</event>
<event>
12    1  0.1035051E+000  0.4322262E+03  0.7818608E-02  0.1033390E+00
         21   -1    0    0  503  502  0.00000000000E+00  0.00000000000E+00  0.68630670578E+03  0.68630670578E+03  0.00000000000E+00 0.  1.
         21   -1    0    0  501  503 -0.00000000000E+00 -0.00000000000E+00 -0.43857718952E+03  0.43857718952E+03  0.00000000000E+00 0. -1.
          6    2    1    2  501    0 -0.34941069743E+03 -0.18040509710E+03 -0.22472156266E+03  0.48454844349E+03  0.17220214525E+03 0.  0.
         24    2    3    3    0    0 -0.18915782388E+03 -0.17422549664E+03 -0.13853175087E+03  0.30242226580E+03  0.78313312021E+02 0.  0.
         -6    2    1    2    0  502  0.34941069743E+03  0.18040509710E+03  0.47245107891E+03  0.64033545181E+03  0.17940355167E+03 0.  0.
        -24    2    5    5    0    0  0.74739331286E+02  0.57274740295E+02  0.99164872113E+02  0.16078344595E+03  0.84565247666E+02 0.  0.
          5    1    3    3  501    0 -0.16025287355E+03 -0.61796004567E+01 -0.86189811784E+02  0.18212617768E+03  0.47000000000E+01 0. -1.
        -11    1    4    4    0    0 -0.78771413312E+02 -0.72035926332E+02 -0.15036369948E+02  0.10779704383E+03  0.00000000000E+00 0.  1.
         12    1    4    4    0    0 -0.11038641057E+03 -0.10218957031E+03 -0.12349538093E+03  0.19462522197E+03  0.00000000000E+00 0. -1.
         -5    1    5    5    0  502  0.27467136614E+03  0.12313035680E+03  0.37328620680E+03  0.47955200587E+03  0.47000000000E+01 0.  1.
         13    1    6    6    0    0  0.19400834199E+02 -0.17309465074E+02  0.15485028312E+01  0.26046262876E+02  0.00000000000E+00 0. -1.
        -14    1    6    6    0    0  0.55338497086E+02  0.74584205369E+02  0.97616369282E+02  0.13473718307E+03  0.00000000000E+00 0.  1.
</event>
<event>
12    1  0.1035051E+000  0.3199751E+03  0.7818608E-02  0.1075779E+00
         21   -1    0    0  503  502  0.00000000000E+00  0.00000000000E+00  0.56718114096E+03  0.56718114096E+03  0.00000000000E+00 0.  1.
         21   -1    0    0  501  503 -0.00000000000E+00 -0.00000000000E+00 -0.18105735474E+03  0.18105735474E+03  0.00000000000E+00 0. -1.
          6    2    1    2  501    0  0.26947376285E+03 -0.53419114014E+01  0.16331813240E+03  0.35833284577E+03  0.17054316493E+03 0.  0.
         24    2    3    3    0    0  0.17976692713E+03 -0.59844961829E+02  0.72904314646E+02  0.21971593727E+03  0.84038600961E+02 0.  0.
         -6    2    1    2    0  502 -0.26947376285E+03  0.53419114014E+01  0.22280565382E+03  0.38990564992E+03  0.17245118609E+03 0.  0.
        -24    2    5    5    0    0 -0.82168384939E+02  0.49914929588E+02  0.73117300344E+02  0.14598199032E+03  0.81984499812E+02 0.  0.
          5    1    3    3  501    0  0.89706835726E+02  0.54503050428E+02  0.90413817752E+02  0.13861690850E+03  0.47000000000E+01 0. -1.
        -13    1    4    4    0    0  0.10732668568E+03 -0.63703501612E+02  0.77693517986E+02  0.14701508873E+03  0.00000000000E+00 0.  1.
         14    1    4    4    0    0  0.72440241445E+02  0.38585397830E+01 -0.47892033404E+01  0.72700848540E+02  0.00000000000E+00 0. -1.
         -5    1    5    5    0  502 -0.18730537792E+03 -0.44573018186E+02  0.14968835348E+03  0.24392365960E+03  0.47000000000E+01 0.  1.
         11    1    6    6    0    0 -0.89975366121E+02  0.57038479830E+02  0.80125801730E+02  0.13330078317E+03  0.00000000000E+00 0. -1.
        -12    1    6    6    0    0  0.78069811825E+01 -0.71235502420E+01 -0.70085013858E+01  0.12681207155E+02  0.00000000000E+00 0.  1.
</event>
<event>
12    1  0.1035051E+000  0.1840156E+03  0.7818608E-02  0.1164053E+00
         21   -1    0    0  503  502  0.00000000000E+00  0.00000000000E+00  0.22701360000E+03  0.22701360000E+03  0.00000000000E+00 0.  1.
         21   -1    0    0  501  503 -0.00000000000E+00 -0.00000000000E+00 -0.18977349449E+03  0.18977349449E+03  0.00000000000E+00 0.  1.
          6    2    1    2  501    0  0.65004964317E+02  0.66066294614E+01  0.11533784955E+03  0.21688464691E+03  0.17165907371E+03 0.  0.
         24    2    3    3    0    0 -0.28039452632E+02 -0.84224768133E+01  0.29899587537E+02  0.89586083772E+02  0.79211943867E+02 0.  0.
         -6    2    1    2    0  502 -0.65004964317E+02 -0.66066294614E+01 -0.78097744046E+02  0.19990244758E+03  0.17202452728E+03 0.  0.
        -24    2    5    5    0    0  0.24626425370E+02 -0.30601150802E+02 -0.51115993910E+02  0.10315727761E+03  0.80533768286E+02 0.  0.
          5    1    3    3  501    0  0.93044416949E+02  0.15029106275E+02  0.85438262014E+02  0.12729856314E+03  0.47000000000E+01 0. -1.
        -11    1    4    4    0    0 -0.51929288706E+02 -0.18791616763E+02  0.31349777743E+02  0.63502633415E+02  0.00000000000E+00 0.  1.
         12    1    4    4    0    0  0.23889836074E+02  0.10369139950E+02 -0.14501902062E+01  0.26083450358E+02  0.00000000000E+00 0. -1.
         -5    1    5    5    0  502 -0.89631389687E+02  0.23994521341E+02 -0.26981750136E+02  0.96745169967E+02  0.47000000000E+01 0.  1.
         11    1    6    6    0    0  0.97155292842E+01 -0.17526502479E+02  0.20606460053E+02  0.28743625282E+02  0.00000000000E+00 0. -1.
        -12    1    6    6    0    0  0.14910896085E+02 -0.13074648323E+02 -0.71722453963E+02  0.74413652332E+02  0.00000000000E+00 0.  1.
</event>
<event>
12    1  0.1035051E+000  0.2869705E+03  0.7818608E-02  0.1092506E+00
         21   -1    0    0  503  502  0.00000000000E+00  0.00000000000E+00  0.37986789346E+03  0.37986789346E+03  0.00000000000E+00 0.  1.
         21   -1    0    0  501  503 -0.00000000000E+00 -0.00000000000E+00 -0.62942733842E+03  0.62942733842E+03  0.00000000000E+00 0.  1.
          6    2    1    2  501    0  0.65124852654E+02 -0.21459854453E+03  0.28570678346E+03  0.40195513873E+03  0.17217951588E+03 0.  0.
         24    2    3    3    0    0  0.10963926815E+03 -0.15955410592E+03  0.23281998489E+03  0.31346487445E+03  0.81097474156E+02 0.  0.
         -6    2    1    2    0  502 -0.65124852654E+02  0.21459854453E+03 -0.53526622842E+03  0.60734009316E+03  0.17904823852E+03 0.  0.
        -24    2    5    5    0    0 -0.56160193845E+01  0.10746020372E+03 -0.14039408066E+03  0.19385970863E+03  0.79321205793E+02 0.  0.
          5    1    3    3  501    0 -0.44514415494E+02 -0.55044438615E+02  0.52886798566E+02  0.88490264277E+02  0.47000000000E+01 0. -1.
        -11    1    4    4    0    0  0.52121851813E+02 -0.16810491932E+02  0.46811107968E+02  0.72045540491E+02  0.00000000000E+00 0.  1.
         12    1    4    4    0    0  0.57517416335E+02 -0.14274361399E+03  0.18600887692E+03  0.24141933396E+03  0.00000000000E+00 0. -1.
         -5    1    5    5    0  502 -0.59508833270E+02  0.10713834081E+03 -0.39487214776E+03  0.41348038453E+03  0.47000000000E+01 0.  1.
         11    1    6    6    0    0 -0.13370723767E+02  0.11864142311E+03 -0.13144485590E+03  0.17757340362E+03  0.00000000000E+00 0. -1.
        -12    1    6    6    0    0  0.77547043821E+01 -0.11181219387E+02 -0.89492247586E+01  0.16286305008E+02  0.00000000000E+00 0.  1.
</event>
<event>
12    1  0.1035051E+000  0.4148894E+03  0.7818608E-02  0.1038815E+00
         21   -1    0    0  503  502  0.00000000000E+00  0.00000000000E+00  0.27258839438E+03  0.27258839438E+03  0.00000000000E+00 0. -1.
         21   -1    0    0  501  503 -0.00000000000E+00 -0.00000000000E+00 -0.11588783339E+04  0.11588783339E+04  0.00000000000E+00 0. -1.
          6    2    1    2  501    0  0.34831639778E+03 -0.14592911491E+03  0.40051280967E+02  0.41681807471E+03  0.17179517674E+03 0.  0.
         24    2    3    3    0    0  0.13724559303E+03 -0.43609027530E+02  0.73518660486E+02  0.17983191394E+03  0.78717366224E+02 0.  0.
         -6    2    1    2    0  502 -0.34831639778E+03  0.14592911491E+03 -0.92634122053E+03  0.10146486536E+04  0.16965911085E+03 0.  0.
        -24    2    5    5    0    0 -0.19869402102E+03  0.11261402034E+03 -0.41426133476E+03  0.48009776683E+03  0.81976708111E+02 0.  0.
          5    1    3    3  501    0  0.21107080475E+03 -0.10232008738E+03 -0.33467379519E+02  0.23698616076E+03  0.47000000000E+01 0. -1.
        -13    1    4    4    0    0  0.27347300825E+02 -0.44651529493E+02  0.36636524020E+02  0.63905155041E+02  0.00000000000E+00 0.  1.
         14    1    4    4    0    0  0.10989829220E+03  0.10425019629E+01  0.36882136465E+02  0.11592675890E+03  0.00000000000E+00 0. -1.
         -5    1    5    5    0  502 -0.14962237676E+03  0.33315094570E+02 -0.51207988578E+03  0.53455088679E+03  0.47000000000E+01 0.  1.
         11    1    6    6    0    0  0.64066278096E+01  0.11207763514E+02 -0.13900633666E+02  0.18970673662E+02  0.00000000000E+00 0. -1.
        -12    1    6    6    0    0 -0.20510064883E+03  0.10140625683E+03 -0.40036070109E+03  0.46112709317E+03  0.00000000000E+00 0.  1.
</event>
<event>
12    1  0.1035051E+000  0.1888964E+03  0.7818608E-02  0.1162598E+00
         21   -1    0    0  501  502  0.00000000000E+00  0.00000000000E+00  0.11091082565E+04  0.11091082565E+04  0.00000000000E+00 0.  1.
         21   -1    0    0  502  503 -0.00000000000E+00 -0.00000000000E+00 -0.29952052808E+02  0.29952052808E+02  0.00000000000E+00 0.  1.
         -6    2    1    2    0  503 -0.40854323239E+01  0.30284946439E+02  0.56429953664E+03  0.59507630557E+03  0.18640808370E+03 0.  0.
        -24    2    3    3    0    0  0.35492071739E+02  0.61941611657E+02  0.19517933283E+03  0.22246345268E+03  0.79363501716E+02 0.  0.
          6    2    1    2  501    0  0.40854323239E+01 -0.30284946439E+02  0.51485666707E+03  0.54398400375E+03  0.17293738743E+03 0.  0.
         24    2    5    5    0    0 -0.39391183509E+02 -0.25997059675E+02  0.47664646455E+03  0.48575418601E+03  0.80856444474E+02 0.  0.
          5    1    5    5  501    0  0.43476615833E+02 -0.42878867635E+01  0.38210202529E+02  0.58229817744E+02  0.47000000000E+01 0. -1.
        -13    1    6    6    0    0 -0.24961042076E+02  0.26379431141E+01  0.35684604209E+02  0.43628010990E+02  0.00000000000E+00 0.  1.
         14    1    6    6    0    0 -0.14430141432E+02 -0.28635002789E+02  0.44096186034E+03  0.44212617502E+03  0.00000000000E+00 0. -1.
         -5    1    3    3    0  503 -0.39577504063E+02 -0.31656665218E+02  0.36912020381E+03  0.37261285289E+03  0.47000000000E+01 0.  1.
         13    1    4    4    0    0  0.36975581164E+02 -0.58661567675E+01  0.52470440036E+02  0.64457369441E+02  0.00000000000E+00 0. -1.
        -14    1    4    4    0    0 -0.14835094259E+01  0.67807768424E+02  0.14270889279E+03  0.15800608324E+03  0.00000000000E+00 0.  1.
</event>
<event>
12    1  0.1035051E+000  0.3984501E+03  0.7818608E-02  0.1045155E+00
         21   -1    0    0  501  502  0.00000000000E+00  0.00000000000E+00  0.10188976276E+03  0.10188976276E+03  0.00000000000E+00 0.  1.
         21   -1    0    0  502  503 -0.00000000000E+00 -0.00000000000E+00 -0.16411589522E+04  0.16411589522E+04  0.00000000000E+00 0.  1.
         -6    2    1    2    0  503  0.25410917513E+03  0.25212779033E+03 -0.52547796586E+03  0.65376676912E+03  0.15213152290E+03 0.  0.
        -24    2    3    3    0    0  0.83718471768E+02  0.15512387800E+03 -0.24872453302E+03  0.31456579125E+03  0.77559935905E+02 0.  0.
          6    2    1    2  501    0 -0.25410917513E+03 -0.25212779033E+03 -0.10137912235E+04  0.10892819458E+04  0.17499319126E+03 0.  0.
         24    2    5    5    0    0 -0.65466704632E+02 -0.67673149805E+02 -0.45120478212E+03  0.46788425499E+03  0.80401343480E+02 0.  0.
          5    1    5    5  501    0 -0.18864247050E+03 -0.18445464053E+03 -0.56258644142E+03  0.62139769082E+03  0.47000000000E+01 0. -1.
        -11    1    6    6    0    0 -0.61593849670E+02 -0.82887348173E+02 -0.42473794859E+03  0.43711147294E+03  0.00000000000E+00 0.  1.
         12    1    6    6    0    0 -0.38728549623E+01  0.15214198368E+02 -0.26466833534E+02  0.30772782046E+02  0.00000000000E+00 0. -1.
         -5    1    3    3    0  503  0.17039070336E+03  0.97003912329E+02 -0.27675343284E+03  0.33920097787E+03  0.47000000000E+01 0.  1.
         13    1    4    4    0    0  0.20425615905E+02  0.55559481000E+02 -0.14814097594E+03  0.15952996730E+03  0.00000000000E+00 0. -1.
        -14    1    4    4    0    0  0.63292855863E+02  0.99564397003E+02 -0.10058355708E+03  0.15503582396E+03  0.00000000000E+00 0.  1.
</event>
<event>
12    1  0.1035051E+000  0.1737733E+03  0.7818608E-02  0.1174136E+00
         21   -1    0    0  503  502  0.00000000000E+00  0.00000000000E+00  0.33865933696E+02  0.33865933696E+02  0.00000000000E+00 0. -1.
         21   -1    0    0  501  503 -0.00000000000E+00 -0.00000000000E+00 -0.16397354617E+04  0.16397354617E+04  0.00000000000E+00 0. -1.
          6    2    1    2  501    0 -0.81022068009E+01  0.18496441289E+02 -0.23728445832E+03  0.29411065538E+03  0.17259605833E+03 0.  0.
         24    2    3    3    0    0 -0.52912081114E+02  0.43586076769E+02 -0.70893436354E+02  0.11991112370E+03  0.68215568999E+02 0.  0.
         -6    2    1    2    0  502  0.81022068009E+01 -0.18496441289E+02 -0.13685850696E+04  0.13794907400E+04  0.17193558310E+03 0.  0.
        -24    2    5    5    0    0 -0.47046780100E+02  0.12632176519E+02 -0.10789985526E+04  0.10830234695E+04  0.79554934490E+02 0.  0.
          5    1    3    3  501    0  0.44809874313E+02 -0.25089635480E+02 -0.16639102197E+03  0.17419953167E+03  0.47000000000E+01 0. -1.
        -11    1    4    4    0    0 -0.68039087769E+02  0.43791217808E+02 -0.64548584249E+02  0.10350607688E+03  0.00000000000E+00 0.  1.
         12    1    4    4    0    0  0.15127006655E+02 -0.20514103913E+00 -0.63448521049E+01  0.16405046828E+02  0.00000000000E+00 0. -1.
         -5    1    5    5    0  502  0.55148986901E+02 -0.31128617808E+02 -0.28958651702E+03  0.29646727044E+03  0.47000000000E+01 0.  1.
         11    1    6    6    0    0 -0.24370555770E+02  0.33638347149E+02 -0.24834306857E+03  0.25179305410E+03  0.00000000000E+00 0. -1.
        -12    1    6    6    0    0 -0.22676224330E+02 -0.21006170630E+02 -0.83065548405E+03  0.83123041543E+03  0.00000000000E+00 0.  1.
</event>
<event>
12    1  0.1035051E+000  0.2741499E+03  0.7818608E-02  0.1099025E+00
         21   -1    0    0  503  502  0.00000000000E+00  0.00000000000E+00  0.11127905230E+04  0.11127905230E+04  0.00000000000E+00 0.  1.
         21   -1    0    0  501  503 -0.00000000000E+00 -0.00000000000E+00 -0.92908235598E+02  0.92908235598E+02  0.00000000000E+00 0.  1.
          6    2    1    2  501    0 -0.55832673134E+01  0.21269314587E+03  0.19340299583E+03  0.33493690625E+03  0.17178028175E+03 0.  0.
         24    2    3    3    0    0  0.51789020528E+02  0.11510204826E+03  0.14340934518E+03  0.21109403464E+03  0.89799036804E+02 0.  0.
         -6    2    1    2    0  502  0.55832673134E+01 -0.21269314587E+03  0.82647929161E+03  0.87076185239E+03  0.17288330438E+03 0.  0.
        -24    2    5    5    0    0  0.10107219452E+02 -0.27739442482E+02  0.13795091505E+03  0.15779498508E+03  0.70690662752E+02 0.  0.
          5    1    3    3  501    0 -0.57372287841E+02  0.97591097608E+02  0.49993650643E+02  0.12384287161E+03  0.47000000000E+01 0. -1.
        -11    1    4    4    0    0 -0.21464345593E+02  0.40314066077E+01  0.21067109571E+02  0.30344579033E+02  0.00000000000E+00 0.  1.
         12    1    4    4    0    0  0.73253366121E+02  0.11107064166E+03  0.12234223561E+03  0.18074945560E+03  0.00000000000E+00 0. -1.
         -5    1    5    5    0  502 -0.45239521389E+01 -0.18495370339E+03  0.68852837656E+03  0.71296686730E+03  0.47000000000E+01 0.  1.
         11    1    6    6    0    0 -0.22388509082E+02 -0.31403429636E+02  0.45034374678E+02  0.59291783870E+02  0.00000000000E+00 0. -1.
        -12    1    6    6    0    0  0.32495728535E+02  0.36639871536E+01  0.92916540369E+02  0.98503201212E+02  0.00000000000E+00 0.  1.
</event>
<event>
12    1  0.1035051E+000  0.2290062E+03  0.7818608E-02  0.1128790E+00
         21   -1    0    0  503  502  0.00000000000E+00  0.00000000000E+00  0.20810689656E+04  0.20810689656E+04  0.00000000000E+00 0. -1.
         21   -1    0    0  501  503 -0.00000000000E+00 -0.00000000000E+00 -0.26576276253E+02  0.26576276253E+02  0.00000000000E+00 0. -1.
          6    2    1    2  501    0  0.19710300229E+02  0.14723181170E+03  0.73731787344E+03  0.77206314064E+03  0.17429327106E+03 0.  0.
         24    2    3    3    0    0  0.25038186759E+02  0.52331602781E+01  0.33855706988E+03  0.34871426343E+03  0.79538991656E+02 0.  0.
         -6    2    1    2    0  502 -0.19710300229E+02 -0.14723181170E+03  0.13171748159E+04  0.13355821012E+04  0.16359813902E+03 0.  0.
        -24    2    5    5    0    0 -0.54542723998E+02 -0.14960784462E+03  0.12024244628E+04  0.12155459532E+04  0.79812028001E+02 0.  0.
          5    1    3    3  501    0 -0.53278865305E+01  0.14199865142E+03  0.39876080356E+03  0.42334887721E+03  0.47000000000E+01 0. -1.
        -13    1    4    4    0    0  0.44183581271E+02  0.15245461869E+01  0.99699376762E+02  0.10906181193E+03  0.00000000000E+00 0.  1.
         14    1    4    4    0    0 -0.19145394512E+02  0.37086140912E+01  0.23885769311E+03  0.23965245150E+03  0.00000000000E+00 0. -1.
         -5    1    5    5    0  502  0.34832423769E+02  0.23760329176E+01  0.11475035315E+03  0.12003614800E+03  0.47000000000E+01 0.  1.
         11    1    6    6    0    0 -0.29870874738E+01  0.89981135773E+01  0.34689040633E+02  0.35961344240E+02  0.00000000000E+00 0. -1.
        -12    1    6    6    0    0 -0.51555636524E+02 -0.15860595820E+03  0.11677354221E+04  0.11795846090E+04  0.00000000000E+00 0.  1.
</event>
<event>
12    1  0.1035051E+000  0.2693660E+03  0.7818608E-02  0.1101696E+00
         21   -1    0    0  503  502  0.00000000000E+00  0.00000000000E+00  0.16482818382E+04  0.16482818382E+04  0.00000000000E+00 0. -1.
         21   -1    0    0  501  503 -0.00000000000E+00 -0.00000000000E+00 -0.47588287446E+02  0.47588287446E+02  0.00000000000E+00 0. -1.
          6    2    1    2  501    0  0.20397763321E+03 -0.37991348065E+02  0.10349963987E+04  0.10694744353E+04  0.17177836064E+03 0.  0.
         24    2    3    3    0    0  0.13300068105E+03 -0.30740364428E+02  0.39793251560E+03  0.42841064317E+03  0.80939737130E+02 0.  0.
         -6    2    1    2    0  502 -0.20397763321E+03  0.37991348065E+02  0.56569715212E+03  0.62639569036E+03  0.17119601514E+03 0.  0.
        -24    2    5    5    0    0 -0.93894090825E+02  0.37527135777E+02  0.44273799403E+03  0.46129073478E+03  0.80918628415E+02 0.  0.
          5    1    3    3  501    0  0.70976952161E+02 -0.72509836374E+01  0.63706388306E+03  0.64106379215E+03  0.47000000000E+01 0. -1.
        -13    1    4    4    0    0  0.12765239472E+03 -0.99713573689E+01  0.27157267152E+03  0.30024369729E+03  0.00000000000E+00 0.  1.
         14    1    4    4    0    0  0.53482863281E+01 -0.20769007059E+02  0.12635984408E+03  0.12816694588E+03  0.00000000000E+00 0. -1.
         -5    1    5    5    0  502 -0.11008354239E+03  0.46421228786E+00  0.12295915809E+03  0.16510495558E+03  0.47000000000E+01 0.  1.
         11    1    6    6    0    0 -0.54978797302E+02 -0.21249215393E+02  0.19389033484E+03  0.20265157106E+03  0.00000000000E+00 0. -1.
        -12    1    6    6    0    0 -0.38915293523E+02  0.58776351170E+02  0.24884765919E+03  0.25863916372E+03  0.00000000000E+00 0.  1.
</event>
<event>
12    1  0.1035051E+000  0.2473119E+03  0.7818608E-02  0.1115833E+00
         21   -1    0    0  501  502  0.00000000000E+00  0.00000000000E+00  0.15726610967E+04  0.15726610967E+04  0.00000000000E+00 0. -1.
         21   -1    0    0  502  503 -0.00000000000E+00 -0.00000000000E+00 -0.38103573530E+02  0.38103573530E+02  0.00000000000E+00 0. -1.
         -6    2    1    2    0  503 -0.14690699782E+03  0.86720419809E+02  0.77997266568E+03  0.81824235693E+03  0.17905613153E+03 0.  0.
        -24    2    3    3    0    0 -0.24128533048E+02 -0.47135384737E+01  0.39584711467E+03  0.40470971120E+03  0.80564313427E+02 0.  0.
          6    2    1    2  501    0  0.14690699782E+03 -0.86720419809E+02  0.75458485751E+03  0.79252231332E+03  0.17202096591E+03 0.  0.
         24    2    5    5    0    0  0.14699321379E+03 -0.10634032134E+03  0.74326213728E+03  0.76938701642E+03  0.81255815037E+02 0.  0.
          5    1    5    5  501    0 -0.86215965543E-01  0.19619901532E+02  0.11322720220E+02  0.23135296897E+02  0.47000000000E+01 0. -1.
        -11    1    6    6    0    0  0.13167724647E+03 -0.11823240522E+03  0.62604230782E+03  0.65057418491E+03  0.00000000000E+00 0.  1.
         12    1    6    6    0    0  0.15315967319E+02  0.11892083883E+02  0.11721982946E+03  0.11881283152E+03  0.00000000000E+00 0. -1.
         -5    1    3    3    0  503 -0.12277846477E+03  0.91433958283E+02  0.38412555102E+03  0.41353264573E+03  0.47000000000E+01 0.  1.
         11    1    4    4    0    0  0.28060680451E+01  0.12721711119E+02  0.74854468474E+01  0.15024908192E+02  0.00000000000E+00 0. -1.
        -12    1    4    4    0    0 -0.26934601093E+02 -0.17435249593E+02  0.38836166782E+03  0.38968480301E+03  0.00000000000E+00 0.  1.
</event>
<event>
12    1  0.1035051E+000  0.2026363E+03  0.7818608E-02  0.1148277E+00
         21   -1    0    0  501  502  0.00000000000E+00  0.00000000000E+00  0.21754990586E+03  0.21754990586E+03  0.00000000000E+00 0.  1.
         21   -1    0    0  502  503 -0.00000000000E+00 -0.00000000000E+00 -0.19956267956E+03  0.19956267956E+03  0.00000000000E+00 0.  1.
         -6    2    1    2    0  503 -0.95145910515E+02  0.32272453020E+02 -0.46386255244E+02  0.20787774120E+03  0.17597504112E+03 0.  0.
        -24    2    3    3    0    0 -0.28552575804E+02  0.77354588651E+02 -0.42748219397E+02  0.12724030271E+03  0.86969548702E+02 0.  0.
          6    2    1    2  501    0  0.95145910515E+02 -0.32272453020E+02  0.64373481547E+02  0.20923484423E+03  0.17187501099E+03 0.  0.
         24    2    5    5    0    0  0.49179436641E+00 -0.59513583615E+02  0.56650163463E+02  0.11032468023E+03  0.73621909452E+02 0.  0.
          5    1    5    5  501    0  0.94654116148E+02  0.27241130594E+02  0.77233180844E+01  0.98910163998E+02  0.47000000000E+01 0. -1.
        -13    1    6    6    0    0 -0.93628687906E+01  0.15669030879E+02  0.63239569553E+01  0.19317719126E+02  0.00000000000E+00 0.  1.
         14    1    6    6    0    0  0.98546631570E+01 -0.75182614494E+02  0.50326206507E+02  0.91006961104E+02  0.00000000000E+00 0. -1.
         -5    1    3    3    0  503 -0.66593334711E+02 -0.45082135631E+02 -0.36380358474E+01  0.80637438487E+02  0.47000000000E+01 0.  1.
         11    1    4    4    0    0 -0.73097328274E+01  0.53689296708E+02  0.19298483578E+02  0.57518729501E+02  0.00000000000E+00 0. -1.
        -12    1    4    4    0    0 -0.21242842977E+02  0.23665291943E+02 -0.62046702975E+02  0.69721573208E+02  0.00000000000E+00 0.  1.
</event>
<event>
12    1  0.1035051E+000  0.1901844E+03  0.7818608E-02  0.1158365E+00
         21   -1    0    0  501  502  0.00000000000E+00  0.00000000000E+00  0.17635309052E+03  0.17635309052E+03  0.00000000000E+00 0.  1.
         21   -1    0    0  502  503 -0.00000000000E+00 -0.00000000000E+00 -0.26338849782E+03  0.26338849782E+03  0.00000000000E+00 0.  1.
         -6    2    1    2    0  503  0.32695742777E+02  0.73082564795E+02  0.60183297255E+02  0.19947967897E+03  0.17251098569E+03 0.  0.
        -24    2    3    3    0    0  0.63208279927E+01 -0.11356739066E+02 -0.16175945168E+02  0.82524747184E+02  0.79873301591E+02 0.  0.
          6    2    1    2  501    0 -0.32695742777E+02 -0.73082564795E+02 -0.14721870455E+03  0.24026190936E+03  0.17216958282E+03 0.  0.
         24    2    5    5    0    0  0.37649615916E+02 -0.56297233950E+02 -0.41834393048E+02  0.11236288696E+03  0.79299620391E+02 0.  0.
          5    1    5    5  501    0 -0.70345358692E+02 -0.16785330845E+02 -0.10538431151E+03  0.12789902241E+03  0.47000000000E+01 0. -1.
        -13    1    6    6    0    0 -0.39070354734E+01 -0.45324948884E+02 -0.51077207033E+02  0.68399539442E+02  0.00000000000E+00 0.  1.
         14    1    6    6    0    0  0.41556651389E+02 -0.10972285066E+02  0.92428139849E+01  0.43963347514E+02  0.00000000000E+00 0. -1.
         -5    1    3    3    0  503  0.26374914784E+02  0.84439303860E+02  0.76359242423E+02  0.11695493179E+03  0.47000000000E+01 0.  1.
         11    1    4    4    0    0  0.12613732282E+02 -0.44081928676E+02 -0.17740039264E+02  0.49163316314E+02  0.00000000000E+00 0. -1.
        -12    1    4    4    0    0 -0.62929042890E+01  0.32725189610E+02  0.15640940961E+01  0.33361430871E+02  0.00000000000E+00 0.  1.
</event>
<event>
12    1  0.1035051E+000  0.3221181E+03  0.7818608E-02  0.1074761E+00
         21   -1    0    0  503  502  0.00000000000E+00  0.00000000000E+00  0.16600927457E+03  0.16600927457E+03  0.00000000000E+00 0.  1.
         21   -1    0    0  501  503 -0.00000000000E+00 -0.00000000000E+00 -0.62543883880E+03  0.62543883880E+03  0.00000000000E+00 0.  1.
          6    2    1    2  501    0  0.57951606149E+02 -0.26589299477E+03 -0.25072985544E+03  0.40763088331E+03  0.17099708564E+03 0.  0.
         24    2    3    3    0    0  0.91166149909E+02 -0.23278047947E+03 -0.24687341747E+03  0.36033810690E+03  0.79994053027E+02 0.  0.
         -6    2    1    2    0  502 -0.57951606149E+02  0.26589299477E+03 -0.20869970880E+03  0.38381723006E+03  0.17234449313E+03 0.  0.
        -24    2    5    5    0    0 -0.86417198467E+02  0.13584764991E+03 -0.16421158470E+03  0.24337733241E+03  0.79652779016E+02 0.  0.
          5    1    3    3  501    0 -0.33214543759E+02 -0.33112515304E+02 -0.38564379670E+01  0.47292776411E+02  0.47000000000E+01 0. -1.
        -13    1    4    4    0    0  0.75290356049E+02 -0.85716974754E+02 -0.11831971120E+03  0.16436420393E+03  0.00000000000E+00 0.  1.
         14    1    4    4    0    0  0.15875793859E+02 -0.14706350471E+03 -0.12855370627E+03  0.19597390297E+03  0.00000000000E+00 0. -1.
         -5    1    5    5    0  502  0.28465592318E+02  0.13004534486E+03 -0.44488124102E+02  0.14043989765E+03  0.47000000000E+01 0.  1.
         11    1    6    6    0    0 -0.70750117606E+02  0.12838241384E+03 -0.10147078561E+03  0.17828051957E+03  0.00000000000E+00 0. -1.
        -12    1    6    6    0    0 -0.15667080861E+02  0.74652360694E+01 -0.62740799083E+02  0.65096812839E+02  0.00000000000E+00 0.  1.
</event>
<event>
12    1  0.1035051E+000  0.1810291E+03  0.7818608E-02  0.1167841E+00
         21   -1    0    0  503  502  0.00000000000E+00  0.00000000000E+00  0.20889795035E+03  0.20889795035E+03  0.00000000000E+00 0.  1.
         21   -1    0    0  501  503 -0.00000000000E+00 -0.00000000000E+00 -0.17003932769E+03  0.17003932769E+03  0.00000000000E+00 0.  1.
          6    2    1    2  501    0  0.89710259849E+00  0.48066778825E+02  0.79203096026E+02  0.19759726793E+03  0.17452887971E+03 0.  0.
         24    2    3    3    0    0  0.38778822816E+02  0.57910018057E+02  0.10566008698E+03  0.15012120601E+03  0.80715272548E+02 0.  0.
         -6    2    1    2    0  502 -0.89710259849E+00 -0.48066778825E+02 -0.40344473366E+02  0.18134001011E+03  0.17013319111E+03 0.  0.
        -24    2    5    5    0    0  0.61172551017E+02 -0.54666574123E+02 -0.38162032516E+02  0.11870573638E+03  0.76838764954E+02 0.  0.
          5    1    3    3  501    0 -0.37881720218E+02 -0.98432392323E+01 -0.26456990954E+02  0.47476061921E+02  0.47000000000E+01 0. -1.
        -11    1    4    4    0    0  0.63335897799E+02  0.50056511364E+02  0.76838215614E+02  0.11145044486E+03  0.00000000000E+00 0.  1.
         12    1    4    4    0    0 -0.24557074983E+02  0.78535066938E+01  0.28821871366E+02  0.38670761153E+02  0.00000000000E+00 0. -1.
         -5    1    5    5    0  502 -0.62069653615E+02  0.65997952978E+01 -0.21824408508E+01  0.62634273732E+02  0.47000000000E+01 0.  1.
         11    1    6    6    0    0  0.23133529411E+02 -0.67334286239E+02 -0.32318700562E+02  0.78189287581E+02  0.00000000000E+00 0. -1.
        -12    1    6    6    0    0  0.38039021606E+02  0.12667712117E+02 -0.58433319538E+01  0.40516448799E+02  0.00000000000E+00 0.  1.
</event>
<event>
12    1  0.1035051E+000  0.2662954E+03  0.7818608E-02  0.1103899E+00
         21   -1    0    0  501  502  0.00000000000E+00  0.00000000000E+00  0.35523652542E+03  0.35523652542E+03  0.00000000000E+00 0.  1.
         21   -1    0    0  502  503 -0.00000000000E+00 -0.00000000000E+00 -0.23640218263E+03  0.23640218263E+03  0.00000000000E+00 0.  1.
         -6    2    1    2    0  503  0.17285673581E+03 -0.98627160266E+02  0.17961356215E+03  0.31849521004E+03  0.17196336601E+03 0.  0.
        -24    2    3    3    0    0  0.17976664546E+03 -0.94143573753E+02  0.20000719005E+03  0.29600433504E+03  0.80228617076E+02 0.  0.
          6    2    1    2  501    0 -0.17285673581E+03  0.98627160266E+02 -0.60779219358E+02  0.27314349801E+03  0.17693639857E+03 0.  0.
         24    2    5    5    0    0 -0.94562486711E+02  0.12987189766E+03 -0.57739831492E+02  0.18865947031E+03  0.80310235352E+02 0.  0.
          5    1    5    5  501    0 -0.78294249100E+02 -0.31244737396E+02 -0.30393878663E+01  0.84484027696E+02  0.47000000000E+01 0. -1.
        -13    1    6    6    0    0 -0.10338967517E+03  0.87478869228E+02 -0.51575117467E+02  0.14492056526E+03  0.00000000000E+00 0.  1.
         14    1    6    6    0    0  0.88271884630E+01  0.42393028434E+02 -0.61647140246E+01  0.43738905050E+02  0.00000000000E+00 0. -1.
         -5    1    3    3    0  503 -0.69099096437E+01 -0.44835865125E+01 -0.20393627894E+02  0.22490874993E+02  0.47000000000E+01 0.  1.
         13    1    4    4    0    0  0.31546205440E+02 -0.52557042359E+02  0.80150307734E+02  0.10090330822E+03  0.00000000000E+00 0. -1.
        -14    1    4    4    0    0  0.14822044002E+03 -0.41586531394E+02  0.11985688231E+03  0.19510102683E+03  0.00000000000E+00 0.  1.
</event>
<event>
12    1  0.1035051E+000  0.1825385E+03  0.7818608E-02  0.1165464E+00
         21   -1    0    0  503  502  0.00000000000E+00  0.00000000000E+00  0.11629592652E+03  0.11629592652E+03  0.00000000000E+00 0.  1.
         21   -1    0    0  501  503 -0.00000000000E+00 -0.00000000000E+00 -0.44280552132E+03  0.44280552132E+03  0.00000000000E+00 0.  1.
          6    2    1    2  501    0 -0.22251805948E+02 -0.57059571563E+02 -0.32978717120E+03  0.37693484409E+03  0.17195743899E+03 0.  0.
         24    2    3    3    0    0 -0.66778824411E+02  0.70398404178E+01 -0.17854856770E+03  0.20668034289E+03  0.79549999165E+02 0.  0.
         -6    2    1    2    0  502  0.22251805948E+02  0.57059571563E+02  0.32775763952E+01  0.18216660376E+03  0.17153131331E+03 0.  0.
        -24    2    5    5    0    0 -0.20082520467E+02 -0.68288135812E+01  0.46072889103E+02  0.94260689634E+02  0.79450778326E+02 0.  0.
          5    1    3    3  501    0  0.44527018464E+02 -0.64099411981E+02 -0.15123860350E+03  0.17025450119E+03  0.47000000000E+01 0. -1.
        -13    1    4    4    0    0 -0.69347162927E+02 -0.23670660118E+02 -0.12448848593E+03  0.14445314911E+03  0.00000000000E+00 0.  1.
         14    1    4    4    0    0  0.25683385161E+01  0.30710500535E+02 -0.54060081766E+02  0.62227193786E+02  0.00000000000E+00 0. -1.
         -5    1    5    5    0  502  0.42334326415E+02  0.63888385144E+02 -0.42795312708E+02  0.87905914130E+02  0.47000000000E+01 0.  1.
         11    1    6    6    0    0 -0.45762762303E+02  0.15176682623E+02  0.23816551839E+02  0.53775368437E+02  0.00000000000E+00 0. -1.
        -12    1    6    6    0    0  0.25680241836E+02 -0.22005496204E+02  0.22256337264E+02  0.40485321196E+02  0.00000000000E+00 0.  1.
</event>
<event>
12    1  0.1035051E+000  0.2291259E+03  0.7818608E-02  0.1129706E+00
         21   -1    0    0  503  502  0.00000000000E+00  0.00000000000E+00  0.31878796005E+02  0.31878796005E+02  0.00000000000E+00 0. -1.
         21   -1    0    0  501  503 -0.00000000000E+00 -0.00000000000E+00 -0.19441153801E+04  0.19441153801E+04  0.00000000000E+00 0. -1.
          6    2    1    2  501    0  0.40883427288E+02 -0.12385978776E+03 -0.48945956325E+03  0.53488587230E+03  0.17181248695E+03 0.  0.
         24    2    3    3    0    0  0.45146365651E+02 -0.15863852520E+03 -0.35947412733E+03  0.40017864616E+03  0.60966586049E+02 0.  0.
         -6    2    1    2    0  502 -0.40883427288E+02  0.12385978776E+03 -0.14227770208E+04  0.14411083038E+04  0.18837725609E+03 0.  0.
        -24    2    5    5    0    0  0.20488874863E+02  0.10802813476E+03 -0.77079554555E+03  0.78603644910E+03  0.10787796057E+03 0.  0.
          5    1    3    3  501    0 -0.42629383630E+01  0.34778737439E+02 -0.12998543593E+03  0.13470722614E+03  0.47000000000E+01 0. -1.
        -13    1    4    4    0    0 -0.37906747108E+01 -0.95933590068E+02 -0.18500163639E+03  0.20843039218E+03  0.00000000000E+00 0.  1.
         14    1    4    4    0    0  0.48937040362E+02 -0.62704935134E+02 -0.17447249094E+03  0.19174825398E+03  0.00000000000E+00 0. -1.
         -5    1    5    5    0  502 -0.61372302151E+02  0.15831653004E+02 -0.65198147526E+03  0.65507185467E+03  0.47000000000E+01 0.  1.
         11    1    6    6    0    0 -0.19028378530E+02  0.75416970175E+02 -0.65253294152E+03  0.65715221856E+03  0.00000000000E+00 0. -1.
        -12    1    6    6    0    0  0.39517253393E+02  0.32611164585E+02 -0.11826260403E+03  0.12888423055E+03  0.00000000000E+00 0.  1.
</event>
<event>
12    1  0.1035051E+000  0.2203479E+03  0.7818608E-02  0.1133641E+00
         21   -1    0    0  501  502  0.00000000000E+00  0.00000000000E+00  0.14127655509E+03  0.14127655509E+03  0.00000000000E+00 0. -1.
         21   -1    0    0  502  503 -0.00000000000E+00 -0.00000000000E+00 -0.35601451637E+03  0.35601451637E+03  0.00000000000E+00 0. -1.
         -6    2    1    2    0  503 -0.76203802418E+02  0.11483593846E+03 -0.60796137269E+02  0.22849512428E+03  0.17181251190E+03 0.  0.
        -24    2    3    3    0    0 -0.32261522092E+02  0.32542106241E+02  0.31018766310E+02  0.97517014117E+02  0.80297009239E+02 0.  0.
          6    2    1    2  501    0  0.76203802418E+02 -0.11483593846E+03 -0.15394182400E+03  0.26879594718E+03  0.17192691406E+03 0.  0.
         24    2    5    5    0    0  0.49471589460E+02 -0.40825623361E+02 -0.15933035225E+03  0.18978161818E+03  0.80726276777E+02 0.  0.
          5    1    5    5  501    0  0.26732212958E+02 -0.74010315102E+02  0.53885282502E+01  0.79014329004E+02  0.47000000000E+01 0. -1.
        -13    1    6    6    0    0  0.60687894857E+02 -0.44759713786E+02 -0.81444337179E+02  0.11099384045E+03  0.00000000000E+00 0.  1.
         14    1    6    6    0    0 -0.11216305397E+02  0.39340904254E+01 -0.77886015076E+02  0.78787777724E+02  0.00000000000E+00 0. -1.
         -5    1    3    3    0  503 -0.43942280327E+02  0.82293832222E+02 -0.91814903579E+02  0.13097811016E+03  0.47000000000E+01 0.  1.
         11    1    4    4    0    0  0.80610946697E+01 -0.18819066768E+02 -0.73831966007E+01  0.21763504160E+02  0.00000000000E+00 0. -1.
        -12    1    4    4    0    0 -0.40322616761E+02  0.51361173009E+02  0.38401962911E+02  0.75753509957E+02  0.00000000000E+00 0.  1.
</event>
<event>
12    1  0.1035051E+000  0.2061889E+03  0.7818608E-02  0.1144673E+00
         21   -1    0    0  503  502  0.00000000000E+00  0.00000000000E+00  0.20374574806E+03  0.20374574806E+03  0.00000000000E+00 0.  1.
         21   -1    0    0  501  503 -0.00000000000E+00 -0.00000000000E+00 -0.21362750359E+03  0.21362750359E+03  0.00000000000E+00 0.  1.
          6    2    1    2  501    0  0.86289668590E+02 -0.72117619688E+02 -0.37585044807E+02  0.20933159204E+03  0.17251151225E+03 0.  0.
         24    2    3    3    0    0  0.12173006576E+03 -0.50364621409E+02 -0.58309035530E+00  0.15347060997E+03  0.78727912016E+02 0.  0.
         -6    2    1    2    0  502 -0.86289668590E+02  0.72117619688E+02  0.27703289273E+02  0.20804165961E+03  0.17282072191E+03 0.  0.
        -24    2    5    5    0    0 -0.67974895301E+02  0.11559275554E+03  0.44971690118E+01  0.15525783278E+03  0.78118490670E+02 0.  0.
          5    1    3    3  501    0 -0.35440397166E+02 -0.21752998279E+02 -0.37001954451E+02  0.55860982077E+02  0.47000000000E+01 0. -1.
        -11    1    4    4    0    0  0.97098470768E+02 -0.54464798029E+02 -0.29590330919E+02  0.11519598489E+03  0.00000000000E+00 0.  1.
         12    1    4    4    0    0  0.24631594988E+02  0.41001766203E+01  0.29007240563E+02  0.38274625081E+02  0.00000000000E+00 0. -1.
         -5    1    5    5    0  502 -0.18314773289E+02 -0.43475135851E+02  0.23206120261E+02  0.52783826836E+02  0.47000000000E+01 0.  1.
         11    1    6    6    0    0 -0.46869047758E+02  0.43475234650E+02 -0.32260258738E+02  0.71606759174E+02  0.00000000000E+00 0. -1.
        -12    1    6    6    0    0 -0.21105847543E+02  0.72117520890E+02  0.36757427750E+02  0.83651073601E+02  0.00000000000E+00 0.  1.
</event>
<event>
12    1  0.1035051E+000  0.1984260E+03  0.7818608E-02  0.1151810E+00
         21   -1    0    0  501  502  0.00000000000E+00  0.00000000000E+00  0.22603909039E+03  0.22603909039E+03  0.00000000000E+00 0.  1.
         21   -1    0    0  502  503 -0.00000000000E+00 -0.00000000000E+00 -0.22755493556E+03  0.22755493556E+03  0.00000000000E+00 0.  1.
         -6    2    1    2    0  503  0.92553159071E+02  0.10104619399E+02  0.11210302642E+03  0.22790343209E+03  0.17522755274E+03 0.  0.
        -24    2    3    3    0    0 -0.20319466885E+02 -0.21452909468E+01  0.26692969230E+02  0.85751197275E+02  0.78887706394E+02 0.  0.
          6    2    1    2  501    0 -0.92553159071E+02 -0.10104619399E+02 -0.11361887159E+03  0.22569059386E+03  0.17134411454E+03 0.  0.
         24    2    5    5    0    0  0.33696663992E+01  0.32482604602E+02 -0.24620763799E+02  0.88003944962E+02  0.77923283205E+02 0.  0.
          5    1    5    5  501    0 -0.95922825470E+02 -0.42587224001E+02 -0.88998107795E+02  0.13768664890E+03  0.47000000000E+01 0. -1.
        -11    1    6    6    0    0  0.19832877375E+02 -0.11517166860E+02 -0.33096892459E+02  0.40266517702E+02  0.00000000000E+00 0.  1.
         12    1    6    6    0    0 -0.16463210976E+02  0.43999771462E+02  0.84761286596E+01  0.47737427260E+02  0.00000000000E+00 0. -1.
         -5    1    3    3    0  503  0.11287262596E+03  0.12249910346E+02  0.85410057189E+02  0.14215223481E+03  0.47000000000E+01 0.  1.
         13    1    4    4    0    0  0.16992892714E+02  0.15542138647E+02 -0.14670590907E+02  0.27304628071E+02  0.00000000000E+00 0. -1.
        -14    1    4    4    0    0 -0.37312359599E+02 -0.17687429594E+02  0.41363560137E+02  0.58446569204E+02  0.00000000000E+00 0.  1.
</event>
<event>
12    1  0.1035051E+000  0.2372146E+03  0.7818608E-02  0.1121933E+00
         21   -1    0    0  503  502  0.00000000000E+00  0.00000000000E+00  0.70251399497E+02  0.70251399497E+02  0.00000000000E+00 0. -1.
         21   -1    0    0  501  503 -0.00000000000E+00 -0.00000000000E+00 -0.81094628254E+03  0.81094628254E+03  0.00000000000E+00 0. -1.
          6    2    1    2  501    0  0.12757489523E+03  0.98278919405E+02 -0.31099079276E+03  0.39113427905E+03  0.17417419777E+03 0.  0.
         24    2    3    3    0    0  0.14232616148E+03  0.93913911386E+02 -0.32105159863E+03  0.37216158905E+03  0.79709223960E+02 0.  0.
         -6    2    1    2    0  502 -0.12757489523E+03 -0.98278919405E+02 -0.42970409029E+03  0.49006340300E+03  0.17199544719E+03 0.  0.
        -24    2    5    5    0    0 -0.11349220195E+03 -0.94361249092E+02 -0.44008054710E+03  0.47153150491E+03  0.82985221260E+02 0.  0.
          5    1    3    3  501    0 -0.14751266248E+02  0.43650080190E+01  0.10060805873E+02  0.18972689998E+02  0.47000000000E+01 0. -1.
        -11    1    4    4    0    0  0.77652264843E+02  0.88539096833E+02 -0.16117605797E+03  0.19961655133E+03  0.00000000000E+00 0.  1.
         12    1    4    4    0    0  0.64673896638E+02  0.53748145530E+01 -0.15987554067E+03  0.17254503772E+03  0.00000000000E+00 0. -1.
         -5    1    5    5    0  502 -0.14082693282E+02 -0.39176703129E+01  0.10376456815E+02  0.18531898089E+02  0.47000000000E+01 0.  1.
         11    1    6    6    0    0 -0.70469637825E+02 -0.10296496427E+03 -0.34328886349E+03  0.36526017784E+03  0.00000000000E+00 0. -1.
        -12    1    6    6    0    0 -0.43022564126E+02  0.86037151817E+01 -0.96791683615E+02  0.10627132706E+03  0.00000000000E+00 0.  1.
</event>
<event>
12    1  0.1035051E+000  0.1738997E+03  0.7818608E-02  0.1173908E+00
         21   -1    0    0  503  502  0.00000000000E+00  0.00000000000E+00  0.10965883170E+03  0.10965883170E+03  0.00000000000E+00 0. -1.
         21   -1    0    0  501  503 -0.00000000000E+00 -0.00000000000E+00 -0.28362084125E+03  0.28362084125E+03  0.00000000000E+00 0. -1.
          6    2    1    2  501    0  0.14566614938E+02  0.16693888070E+02 -0.53478963721E+02  0.18193705228E+03  0.17248251871E+03 0.  0.
         24    2    3    3    0    0 -0.20773407554E+02 -0.42305354210E+02 -0.62845066124E+02  0.11236951924E+03  0.80350040829E+02 0.  0.
         -6    2    1    2    0  502 -0.14566614938E+02 -0.16693888070E+02 -0.12048304583E+03  0.21134262068E+03  0.17221691791E+03 0.  0.
        -24    2    5    5    0    0  0.47875275573E+02 -0.49596956542E+02 -0.80582137845E+02  0.13012824964E+03  0.75418699967E+02 0.  0.
          5    1    3    3  501    0  0.35340022492E+02  0.58999242280E+02  0.93661024030E+01  0.69567533042E+02  0.47000000000E+01 0. -1.
        -13    1    4    4    0    0  0.16224456484E+02  0.15506631226E+02 -0.59526816002E+01  0.23219022771E+02  0.00000000000E+00 0.  1.
         14    1    4    4    0    0 -0.36997864039E+02 -0.57811985436E+02 -0.56892384524E+02  0.89150496467E+02  0.00000000000E+00 0. -1.
         -5    1    5    5    0  502 -0.62441890511E+02  0.32903068473E+02 -0.39900907981E+02  0.81214371039E+02  0.47000000000E+01 0.  1.
         13    1    6    6    0    0  0.45323876702E+02 -0.22237902830E+02 -0.88188719146E+02  0.10161706700E+03  0.00000000000E+00 0. -1.
        -14    1    6    6    0    0  0.25513988707E+01 -0.27359053712E+02  0.76065813004E+01  0.28511182636E+02  0.00000000000E+00 0.  1.
</event>
<event>
12    1  0.1035051E+000  0.3415435E+03  0.7818608E-02  0.1066309E+00
         21   -1    0    0  503  502  0.00000000000E+00  0.00000000000E+00  0.16471473533E+04  0.16471473533E+04  0.00000000000E+00 0. -1.
         21   -1    0    0  501  503 -0.00000000000E+00 -0.00000000000E+00 -0.71957673597E+02  0.71957673597E+02  0.00000000000E+00 0. -1.
          6    2    1    2  501    0 -0.25136530838E+03 -0.15036433733E+03  0.90848854215E+03  0.97001066463E+03  0.17255522615E+03 0.  0.
         24    2    3    3    0    0 -0.98334769471E+02 -0.73728958525E+02  0.23313226348E+03  0.27329011788E+03  0.72326689691E+02 0.  0.
         -6    2    1    2    0  502  0.25136530838E+03  0.15036433733E+03  0.66670113751E+03  0.74909436222E+03  0.17566446585E+03 0.  0.
        -24    2    5    5    0    0  0.18837040663E+03  0.15450380900E+03  0.39824828511E+03  0.47327826981E+03  0.77690327545E+02 0.  0.
          5    1    3    3  501    0 -0.15303053891E+03 -0.76635378806E+02  0.67535627867E+03  0.69672054675E+03  0.47000000000E+01 0. -1.
        -11    1    4    4    0    0 -0.11002042441E+02 -0.49617662274E+02  0.10120017916E+03  0.11324501582E+03  0.00000000000E+00 0.  1.
         12    1    4    4    0    0 -0.87332727030E+02 -0.24111296251E+02  0.13193208432E+03  0.16004510205E+03  0.00000000000E+00 0. -1.
         -5    1    5    5    0  502  0.62994901755E+02 -0.41394716727E+01  0.26845285240E+03  0.27581609241E+03  0.47000000000E+01 0.  1.
         13    1    6    6    0    0  0.27864783350E+02  0.67248209401E+02  0.10449926782E+03  0.12735330696E+03  0.00000000000E+00 0. -1.
        -14    1    6    6    0    0  0.16050562328E+03  0.87255599603E+02  0.29374901728E+03  0.34592496285E+03  0.00000000000E+00 0.  1.
</event>
<event>
12    1  0.1035051E+000  0.1749619E+03  0.7818608E-02  0.1173148E+00
         21   -1    0    0  503  502  0.00000000000E+00  0.00000000000E+00  0.90977912453E+02  0.90977912453E+02  0.00000000000E+00 0. -1.
         21   -1    0    0  501  503 -0.00000000000E+00 -0.00000000000E+00 -0.33480219398E+03  0.33480219398E+03  0.00000000000E+00 0. -1.
          6    2    1    2  501    0 -0.49709363765E+01 -0.27357583160E+02 -0.13416619186E+03  0.21929386481E+03  0.17121940469E+03 0.  0.
         24    2    3    3    0    0 -0.61739903655E+02 -0.21060795751E+01 -0.46740303184E+02  0.11193591173E+03  0.80800625732E+02 0.  0.
         -6    2    1    2    0  502  0.49709363765E+01  0.27357583160E+02 -0.10965808967E+03  0.20648624162E+03  0.17273831012E+03 0.  0.
        -24    2    5    5    0    0  0.65846091524E+02  0.19490708955E+02 -0.38009109486E+02  0.11202281703E+03  0.79930117146E+02 0.  0.
          5    1    3    3  501    0  0.56768967279E+02 -0.25251503585E+02 -0.87425888674E+02  0.10735795308E+03  0.47000000000E+01 0. -1.
        -13    1    4    4    0    0 -0.60278560010E+02  0.28605194081E+02 -0.46253770418E+02  0.81186040691E+02  0.00000000000E+00 0.  1.
         14    1    4    4    0    0 -0.14613436455E+01 -0.30711273656E+02 -0.48653276582E+00  0.30749871039E+02  0.00000000000E+00 0. -1.
         -5    1    5    5    0  502 -0.60875155148E+02  0.78668742052E+01 -0.71648980181E+02  0.94463424588E+02  0.47000000000E+01 0.  1.
         11    1    6    6    0    0  0.49070219086E+02  0.27370702819E+02 -0.60707152094E+02  0.82718801305E+02  0.00000000000E+00 0. -1.
        -12    1    6    6    0    0  0.16775872438E+02 -0.78799938635E+01  0.22698042609E+02  0.29304015725E+02  0.00000000000E+00 0.  1.
</event>
<event>
12    1  0.1035051E+000  0.2869592E+03  0.7818608E-02  0.1092433E+00
         21   -1    0    0  501  502  0.00000000000E+00  0.00000000000E+00  0.11723466335E+04  0.11723466335E+04  0.00000000000E+00 0.  1.
         21   -1    0    0  502  503 -0.00000000000E+00 -0.00000000000E+00 -0.79564032164E+02  0.79564032164E+02  0.00000000000E+00 0.  1.
         -6    2    1    2    0  503  0.14354083666E+03  0.17116453522E+03  0.77368854493E+03  0.82519062243E+03  0.18012309369E+03 0.  0.
        -24    2    3    3    0    0  0.56673727229E+02  0.65380709538E+02  0.17571227748E+03  0.21173009484E+03  0.80425618214E+02 0.  0.
          6    2    1    2  501    0 -0.14354083666E+03 -0.17116453522E+03  0.31909405641E+03  0.42672004324E+03  0.17426333108E+03 0.  0.
         24    2    5    5    0    0 -0.39990848764E+02 -0.84332135398E+02  0.64734176213E+02  0.13865146754E+03  0.79514393888E+02 0.  0.
          5    1    5    5  501    0 -0.10354998790E+03 -0.86832399821E+02  0.25435988020E+03  0.28806857570E+03  0.47000000000E+01 0. -1.
        -11    1    6    6    0    0 -0.24904055420E+02 -0.98116304435E+02  0.60004497766E+02  0.11767565986E+03  0.00000000000E+00 0.  1.
         12    1    6    6    0    0 -0.15086793344E+02  0.13784169037E+02  0.47296784473E+01  0.20975807676E+02  0.00000000000E+00 0. -1.
         -5    1    3    3    0  503  0.86867109433E+02  0.10578382568E+03  0.59797626745E+03  0.61346052759E+03  0.47000000000E+01 0.  1.
         13    1    4    4    0    0 -0.10216569959E+02  0.35915847084E+02  0.27172537200E+02  0.46180874303E+02  0.00000000000E+00 0. -1.
        -14    1    4    4    0    0  0.66890297188E+02  0.29464862453E+02  0.14853974028E+03  0.16554922053E+03  0.00000000000E+00 0.  1.
</event>
<event>
12    1  0.1035051E+000  0.1950828E+03  0.7818608E-02  0.1154169E+00
         21   -1    0    0  501  502  0.00000000000E+00  0.00000000000E+00  0.11213514774E+03  0.11213514774E+03  0.00000000000E+00 0.  1.
         21   -1    0    0  502  503 -0.00000000000E+00 -0.00000000000E+00 -0.35512983075E+03  0.35512983075E+03  0.00000000000E+00 0.  1.
         -6    2    1    2    0  503  0.49602333769E+02  0.77422070604E+02 -0.69424511851E+02  0.20614450889E+03  0.17094217492E+03 0.  0.
        -24    2    3    3    0    0  0.12374666109E+02  0.48761943982E+02 -0.10946144073E+03  0.14423854979E+03  0.79322712360E+02 0.  0.
          6    2    1    2  501    0 -0.49602333769E+02 -0.77422070604E+02 -0.17357017116E+03  0.26112046960E+03  0.17205442975E+03 0.  0.
         24    2    5    5    0    0 -0.71447318111E+02 -0.31218847036E+00 -0.12089444129E+03  0.16509984796E+03  0.86819796896E+02 0.  0.
          5    1    5    5  501    0  0.21844984342E+02 -0.77109882133E+02 -0.52675729873E+02  0.96020621645E+02  0.47000000000E+01 0. -1.
        -13    1    6    6    0    0 -0.14792639470E+02  0.37300208756E+02 -0.24107224911E+02  0.46811174399E+02  0.00000000000E+00 0.  1.
         14    1    6    6    0    0 -0.56654678641E+02 -0.37612397227E+02 -0.96787216381E+02  0.11828867356E+03  0.00000000000E+00 0. -1.
         -5    1    3    3    0  503  0.37227667660E+02  0.28660126622E+02  0.40036928881E+02  0.61905959096E+02  0.47000000000E+01 0.  1.
         13    1    4    4    0    0  0.28281295856E+02  0.55831463818E+02 -0.44006377096E+02  0.76508465364E+02  0.00000000000E+00 0. -1.
        -14    1    4    4    0    0 -0.15906629747E+02 -0.70695198357E+01 -0.65455063637E+02  0.67730084426E+02  0.00000000000E+00 0.  1.
</event>
<event>
12    1  0.1035051E+000  0.1997082E+03  0.7818608E-02  0.1150907E+00
         21   -1    0    0  501  502  0.00000000000E+00  0.00000000000E+00  0.62528177961E+02  0.62528177961E+02  0.00000000000E+00 0.  1.
         21   -1    0    0  502  503 -0.00000000000E+00 -0.00000000000E+00 -0.68123190599E+03  0.68123190599E+03  0.00000000000E+00 0.  1.
         -6    2    1    2    0  503 -0.44533089899E+02 -0.90696890510E+02 -0.20480923123E+03  0.28605973380E+03  0.17226209120E+03 0.  0.
        -24    2    3    3    0    0  0.25271437067E+02 -0.94635589292E+02 -0.10886159527E+03  0.16724801645E+03  0.80786829321E+02 0.  0.
          6    2    1    2  501    0  0.44533089899E+02  0.90696890510E+02 -0.41389449681E+03  0.45770035015E+03  0.16724782211E+03 0.  0.
         24    2    5    5    0    0 -0.69117315347E+00 -0.12446405609E+02 -0.19997661880E+03  0.21590142122E+03  0.80420052754E+02 0.  0.
          5    1    5    5  501    0  0.45224263053E+02  0.10314329612E+03 -0.21391787801E+03  0.24179892894E+03  0.47000000000E+01 0. -1.
        -11    1    6    6    0    0 -0.13841355501E+02  0.13712546222E+02 -0.69795256120E+01  0.20696154806E+02  0.00000000000E+00 0.  1.
         12    1    6    6    0    0  0.13150182347E+02 -0.26158951831E+02 -0.19299709318E+03  0.19520526641E+03  0.00000000000E+00 0. -1.
         -5    1    3    3    0  503 -0.69804526966E+02  0.39386987818E+01 -0.95947635961E+02  0.11881171735E+03  0.47000000000E+01 0.  1.
         11    1    4    4    0    0 -0.27364840280E+02 -0.22854390755E+02 -0.17582718406E+02  0.39753108644E+02  0.00000000000E+00 0. -1.
        -12    1    4    4    0    0  0.52636277347E+02 -0.71781198537E+02 -0.91278876861E+02  0.12749490781E+03  0.00000000000E+00 0.  1.
</event>
<event>
12    1  0.1035051E+000  0.3382465E+03  0.7818608E-02  0.1067577E+00
         21   -1    0    0  501  502  0.00000000000E+00  0.00000000000E+00  0.83958576590E+02  0.83958576590E+02  0.00000000000E+00 0.  1.
         21   -1    0    0  502  503 -0.00000000000E+00 -0.00000000000E+00 -0.14092557549E+04  0.14092557549E+04  0.00000000000E+00 0.  1.
         -6    2    1    2    0  503 -0.74758064044E+02 -0.28011189857E+03 -0.52552561439E+03  0.62497031436E+03  0.17423914196E+03 0.  0.
        -24    2    3    3    0    0  0.14325228059E+02 -0.20814156672E+03 -0.33772330789E+03  0.40495359244E+03  0.80014094889E+02 0.  0.
          6    2    1    2  501    0  0.74758064044E+02  0.28011189857E+03 -0.79977156396E+03  0.86824401717E+03  0.17367116909E+03 0.  0.
         24    2    5    5    0    0  0.70533191106E+02  0.15737424742E+03 -0.31656572870E+03  0.36965365446E+03  0.81782509546E+02 0.  0.
          5    1    5    5  501    0  0.42248729377E+01  0.12273765115E+03 -0.48320583526E+03  0.49859036271E+03  0.47000000000E+01 0. -1.
        -11    1    6    6    0    0 -0.18540356772E+02  0.23654586112E+02 -0.44864606603E+02  0.54001085165E+02  0.00000000000E+00 0.  1.
         12    1    6    6    0    0  0.89073547878E+02  0.13371966131E+03 -0.27170112210E+03  0.31565256929E+03  0.00000000000E+00 0. -1.
         -5    1    3    3    0  503 -0.89083292103E+02 -0.71970331844E+02 -0.18780230650E+03  0.22001672192E+03  0.47000000000E+01 0.  1.
         11    1    4    4    0    0 -0.65910728266E+01 -0.19601534037E+03 -0.27534492518E+03  0.33805366989E+03  0.00000000000E+00 0. -1.
        -12    1    4    4    0    0  0.20916300885E+02 -0.12126226357E+02 -0.62378382711E+02  0.66899922557E+02  0.00000000000E+00 0.  1.
</event>
<event>
12    1  0.1035051E+000  0.1907443E+03  0.7818608E-02  0.1159031E+00
         21   -1    0    0  503  502  0.00000000000E+00  0.00000000000E+00  0.66236830371E+02  0.66236830371E+02  0.00000000000E+00 0.  1.
         21   -1    0    0  501  503 -0.00000000000E+00 -0.00000000000E+00 -0.82128518376E+03  0.82128518376E+03  0.00000000000E+00 0.  1.
          6    2    1    2  501    0  0.47509696430E+02 -0.65497849699E+02 -0.11142107959E+03  0.21622516245E+03  0.16670790122E+03 0.  0.
         24    2    3    3    0    0  0.44552474327E+01 -0.77081567122E+02 -0.16689505478E+02  0.11142044298E+03  0.78578357719E+02 0.  0.
         -6    2    1    2    0  502 -0.47509696430E+02  0.65497849699E+02 -0.64362727380E+03  0.67129685169E+03  0.17273174559E+03 0.  0.
        -24    2    5    5    0    0  0.65022858265E+01  0.14695344057E+02 -0.17821705468E+03  0.19999339225E+03  0.89318561958E+02 0.  0.
          5    1    3    3  501    0  0.43054448997E+02  0.11583717423E+02 -0.94731574111E+02  0.10480471946E+03  0.47000000000E+01 0. -1.
        -13    1    4    4    0    0  0.14539028159E+02  0.34737596908E+01 -0.25706975205E+02  0.29737163961E+02  0.00000000000E+00 0.  1.
         14    1    4    4    0    0 -0.10083780727E+02 -0.80555326813E+02  0.90174697273E+01  0.81683279023E+02  0.00000000000E+00 0. -1.
         -5    1    5    5    0  502 -0.54011982257E+02  0.50802505642E+02 -0.46541021913E+03  0.47130345943E+03  0.47000000000E+01 0.  1.
         13    1    6    6    0    0 -0.42941723161E+01  0.27006051833E+02 -0.18128361400E+03  0.18333443609E+03  0.00000000000E+00 0. -1.
        -14    1    6    6    0    0  0.10796458143E+02 -0.12310707776E+02  0.30665593254E+01  0.16658956164E+02  0.00000000000E+00 0.  1.
</event>
<event>
12    1  0.1035051E+000  0.2532703E+03  0.7818608E-02  0.1111568E+00
         21   -1    0    0  501  502  0.00000000000E+00  0.00000000000E+00  0.17304846223E+02  0.17304846223E+02  0.00000000000E+00 0.  1.
         21   -1    0    0  502  503 -0.00000000000E+00 -0.00000000000E+00 -0.40883352662E+04  0.40883352662E+04  0.00000000000E+00 0.  1.
         -6    2    1    2    0  503  0.18142295928E+03 -0.42261583693E+02 -0.13920618162E+04  0.14149141109E+04  0.17159693980E+03 0.  0.
        -24    2    3    3    0    0  0.77438426077E+02 -0.54202526171E+02 -0.10393536652E+04  0.10469732203E+04  0.83440152238E+02 0.  0.
          6    2    1    2  501    0 -0.18142295928E+03  0.42261583693E+02 -0.26789686038E+04  0.26907260014E+04  0.16862177543E+03 0.  0.
         24    2    5    5    0    0 -0.23938663544E+02  0.44685795991E+02 -0.11086940196E+04  0.11125651922E+04  0.77646620879E+02 0.  0.
          5    1    5    5  501    0 -0.15748429574E+03 -0.24242122979E+01 -0.15702745842E+04  0.15781608093E+04  0.47000000000E+01 0. -1.
        -13    1    6    6    0    0 -0.49465396104E+02  0.35572403388E+02 -0.90906507369E+03  0.91110456563E+03  0.00000000000E+00 0.  1.
         14    1    6    6    0    0  0.25526732560E+02  0.91133926028E+01 -0.19962894592E+03  0.20146062655E+03  0.00000000000E+00 0. -1.
         -5    1    3    3    0  503  0.10398453320E+03  0.11940942478E+02 -0.35270815100E+03  0.36794089068E+03  0.47000000000E+01 0.  1.
         11    1    4    4    0    0  0.50737288042E+02  0.50830483412E+01 -0.26273481578E+03  0.26763724181E+03  0.00000000000E+00 0. -1.
        -12    1    4    4    0    0  0.26701138035E+02 -0.59285574513E+02 -0.77661884938E+03  0.77933597846E+03  0.00000000000E+00 0.  1.
</event>
<event>
12    1  0.1035051E+000  0.2986880E+03  0.7818608E-02  0.1085996E+00
         21   -1    0    0  501  502  0.00000000000E+00  0.00000000000E+00  0.10113098231E+04  0.10113098231E+04  0.00000000000E+00 0.  1.
         21   -1    0    0  502  503 -0.00000000000E+00 -0.00000000000E+00 -0.12318749438E+03  0.12318749438E+03  0.00000000000E+00 0.  1.
         -6    2    1    2    0  503  0.22676217640E+03 -0.90817766386E+02  0.74770034141E+03  0.80515234246E+03  0.17188816910E+03 0.  0.
        -24    2    3    3    0    0  0.21529638086E+03 -0.76198810811E+02  0.74798232032E+03  0.78598602195E+03  0.78343377593E+02 0.  0.
          6    2    1    2  501    0 -0.22676217640E+03  0.90817766386E+02  0.14042198735E+03  0.32934497507E+03  0.17053101401E+03 0.  0.
         24    2    5    5    0    0 -0.13609381016E+03  0.12176725384E+03  0.11542868670E+03  0.23022192786E+03  0.79558563881E+02 0.  0.
          5    1    5    5  501    0 -0.90668366239E+02 -0.30949487451E+02  0.24993300648E+02  0.99123047205E+02  0.47000000000E+01 0. -1.
        -13    1    6    6    0    0 -0.13361234543E+02  0.49888434969E+02  0.86423596269E+01  0.52364767851E+02  0.00000000000E+00 0.  1.
         14    1    6    6    0    0 -0.12273257561E+03  0.71878818868E+02  0.10678632707E+03  0.17785716001E+03  0.00000000000E+00 0. -1.
         -5    1    3    3    0  503  0.11465795540E+02 -0.14618955576E+02 -0.28197890979E+00  0.19166320502E+02  0.47000000000E+01 0.  1.
         11    1    4    4    0    0  0.83682948527E+01  0.11637887279E+02  0.77711809114E+02  0.79022743909E+02  0.00000000000E+00 0. -1.
        -12    1    4    4    0    0  0.20692808600E+03 -0.87836698090E+02  0.67027051121E+03  0.70696327805E+03  0.00000000000E+00 0.  1.
</event>
<event>
12    1  0.1035051E+000  0.1775025E+03  0.7818608E-02  0.1170272E+00
         21   -1    0    0  503  502  0.00000000000E+00  0.00000000000E+00  0.61234945990E+03  0.61234945990E+03  0.00000000000E+00 0. -1.
         21   -1    0    0  501  503 -0.00000000000E+00 -0.00000000000E+00 -0.51810282529E+02  0.51810282529E+02  0.00000000000E+00 0. -1.
          6    2    1    2  501    0  0.20566806994E+02 -0.37242360085E+02  0.30907965587E+03  0.35636266775E+03  0.17220374665E+03 0.  0.
         24    2    3    3    0    0  0.48514183629E+02 -0.92245197369E+01  0.67596540814E+02  0.11161332639E+03  0.73820894876E+02 0.  0.
         -6    2    1    2    0  502 -0.20566806994E+02  0.37242360085E+02  0.25145952150E+03  0.30779707468E+03  0.17232864327E+03 0.  0.
        -24    2    5    5    0    0 -0.72211501655E+02 -0.78810864431E+01  0.14627383934E+03  0.18214112518E+03  0.80639574103E+02 0.  0.
          5    1    3    3  501    0 -0.27947376635E+02 -0.28017840348E+02  0.24148311506E+03  0.24474934136E+03  0.47000000000E+01 0. -1.
        -13    1    4    4    0    0 -0.16451578519E+02 -0.11894396204E+02  0.40587443936E+01  0.20702765586E+02  0.00000000000E+00 0.  1.
         14    1    4    4    0    0  0.64965762149E+02  0.26698764675E+01  0.63537796420E+02  0.90910560805E+02  0.00000000000E+00 0. -1.
         -5    1    5    5    0  502  0.51644694660E+02  0.45123446528E+02  0.10518568215E+03  0.12565594949E+03  0.47000000000E+01 0.  1.
         11    1    6    6    0    0  0.10325386997E+01 -0.99579226181E+01  0.87872538326E+02  0.88440993611E+02  0.00000000000E+00 0. -1.
        -12    1    6    6    0    0 -0.73244040354E+02  0.20768361750E+01  0.58401301018E+02  0.93700131572E+02  0.00000000000E+00 0.  1.
</event>
<event>
12    1  0.1035051E+000  0.2276346E+03  0.7818608E-02  0.1128621E+00
         21   -1    0    0  503  502  0.00000000000E+00  0.00000000000E+00  0.23129877108E+03  0.23129877108E+03  0.00000000000E+00 0.  1.
         21   -1    0    0  501  503 -0.00000000000E+00 -0.00000000000E+00 -0.29842793379E+03  0.29842793379E+03  0.00000000000E+00 0. -1.
          6    2    1    2  501    0 -0.88703844115E+02 -0.11939738807E+03  0.10006819327E+03  0.24865875146E+03  0.17231779692E+03 0.  0.
         24    2    3    3    0    0 -0.22743298257E+02 -0.13189801279E+03  0.48769563558E+02  0.16403784010E+03  0.81336334206E+02 0.  0.
         -6    2    1    2    0  502  0.88703844115E+02  0.11939738807E+03 -0.16719735598E+03  0.28106795341E+03  0.17005919660E+03 0.  0.
        -24    2    5    5    0    0  0.35844935322E+02  0.68645166998E+01 -0.24332260781E+02  0.91620766038E+02  0.80438329650E+02 0.  0.
          5    1    3    3  501    0 -0.65960545858E+02  0.12500624723E+02  0.51298629708E+02  0.84620911353E+02  0.47000000000E+01 0. -1.
        -13    1    4    4    0    0  0.18484906020E+02 -0.59717819575E+00  0.10166952645E+02  0.21104864332E+02  0.00000000000E+00 0.  1.
         14    1    4    4    0    0 -0.41228204277E+02 -0.13130083460E+03  0.38602610912E+02  0.14293297577E+03  0.00000000000E+00 0. -1.
         -5    1    5    5    0  502  0.52858908793E+02  0.11253287137E+03 -0.14286509520E+03  0.18944718737E+03  0.47000000000E+01 0.  1.
         13    1    6    6    0    0  0.21590035436E+02  0.81746423764E+01 -0.53973743010E+02  0.58703656978E+02  0.00000000000E+00 0. -1.
        -14    1    6    6    0    0  0.14254899886E+02 -0.13101256765E+01  0.29641482229E+02  0.32917109059E+02  0.00000000000E+00 0.  1.
</event>
<event>
12    1  0.1035051E+000  0.3288922E+03  0.7818608E-02  0.1071733E+00
         21   -1    0    0  501  502  0.00000000000E+00  0.00000000000E+00  0.15116922510E+03  0.15116922510E+03  0.00000000000E+00 0.  1.
         21   -1    0    0  502  503 -0.00000000000E+00 -0.00000000000E+00 -0.78871547882E+03  0.78871547882E+03  0.00000000000E+00 0.  1.
         -6    2    1    2    0  503  0.34866211654E+02  0.27899204577E+03 -0.17407072807E+03  0.37211647527E+03  0.17063949858E+03 0.  0.
        -24    2    3    3    0    0 -0.45457657158E+02  0.16225848261E+03 -0.96067134454E+02  0.21029775173E+03  0.81252915565E+02 0.  0.
          6    2    1    2  501    0 -0.34866211654E+02 -0.27899204577E+03 -0.46347552565E+03  0.56776822866E+03  0.16881642182E+03 0.  0.
         24    2    5    5    0    0  0.21587645709E+02 -0.80689394826E+02 -0.22208445374E+03  0.25027378937E+03  0.79615703006E+02 0.  0.
          5    1    5    5  501    0 -0.56453857362E+02 -0.19830265095E+03 -0.24139107191E+03  0.31749443929E+03  0.47000000000E+01 0. -1.
        -11    1    6    6    0    0  0.10513327068E+02 -0.14577657279E+02  0.33118256219E+00  0.17976312739E+02  0.00000000000E+00 0.  1.
         12    1    6    6    0    0  0.11074318640E+02 -0.66111737546E+02 -0.22241563630E+03  0.23229747663E+03  0.00000000000E+00 0. -1.
         -5    1    3    3    0  503  0.80323868812E+02  0.11673356316E+03 -0.78003593615E+02  0.16181872353E+03  0.47000000000E+01 0.  1.
         13    1    4    4    0    0 -0.15808048211E+02  0.11473414346E+03 -0.10152625047E+03  0.15401752368E+03  0.00000000000E+00 0. -1.
        -14    1    4    4    0    0 -0.29649608947E+02  0.47524339149E+02  0.54591160194E+01  0.56280228055E+02  0.00000000000E+00 0.  1.
</event>
<event>
12    1  0.1035051E+000  0.2052419E+03  0.7818608E-02  0.1145781E+00
         21   -1    0    0  501  502  0.00000000000E+00  0.00000000000E+00  0.16553856412E+03  0.16553856412E+03  0.00000000000E+00 0.  1.
         21   -1    0    0  502  503 -0.00000000000E+00 -0.00000000000E+00 -0.46850264988E+03  0.46850264988E+03  0.00000000000E+00 0.  1.
         -6    2    1    2    0  503 -0.37566169879E+02  0.10224070244E+03 -0.36655424613E+03  0.41917389921E+03  0.17169846845E+03 0.  0.
        -24    2    3    3    0    0  0.17174616122E+02 -0.88485459527E+01 -0.16777111814E+03  0.18492147823E+03  0.75336185359E+02 0.  0.
          6    2    1    2  501    0  0.37566169879E+02 -0.10224070244E+03  0.63590160363E+02  0.21486731479E+03  0.17395366083E+03 0.  0.
         24    2    5    5    0    0 -0.31846797530E+02 -0.52183212053E+01  0.32361736256E+02  0.91462262313E+02  0.79225084821E+02 0.  0.
          5    1    5    5  501    0  0.69412967409E+02 -0.97022381238E+02  0.31228424107E+02  0.12340505248E+03  0.47000000000E+01 0. -1.
        -13    1    6    6    0    0 -0.46831041318E+02 -0.94926338326E+01  0.49155567989E+02  0.68553091778E+02  0.00000000000E+00 0.  1.
         14    1    6    6    0    0  0.14984243788E+02  0.42743126274E+01 -0.16793831733E+02  0.22909170535E+02  0.00000000000E+00 0. -1.
         -5    1    3    3    0  503 -0.54740786001E+02  0.11108924840E+03 -0.19878312799E+03  0.23425242098E+03  0.47000000000E+01 0.  1.
         11    1    4    4    0    0 -0.15826343595E+02 -0.33136381385E+02 -0.75193006257E+02  0.83680828825E+02  0.00000000000E+00 0. -1.
        -12    1    4    4    0    0  0.33000959716E+02  0.24287835432E+02 -0.92578111878E+02  0.10124064940E+03  0.00000000000E+00 0.  1.
</event>
<event>
12    1  0.1035051E+000  0.2282450E+03  0.7818608E-02  0.1128035E+00
         21   -1    0    0  501  502  0.00000000000E+00  0.00000000000E+00  0.38778288497E+02  0.38778288497E+02  0.00000000000E+00 0. -1.
         21   -1    0    0  502  503 -0.00000000000E+00 -0.00000000000E+00 -0.13707597207E+04  0.13707597207E+04  0.00000000000E+00 0. -1.
         -6    2    1    2    0  503  0.14075925844E+03  0.48026433821E+02 -0.77557525020E+03  0.80846320801E+03  0.17313602401E+03 0.  0.
        -24    2    3    3    0    0  0.15408681074E+03  0.65237481694E+02 -0.51958215903E+03  0.55150329568E+03  0.78686662800E+02 0.  0.
          6    2    1    2  501    0 -0.14075925844E+03 -0.48026433821E+02 -0.55640618197E+03  0.60107480115E+03  0.17199816877E+03 0.  0.
         24    2    5    5    0    0 -0.10290524323E+03  0.18929371979E+02 -0.22526262905E+03  0.26108340561E+03  0.80457954438E+02 0.  0.
          5    1    5    5  501    0 -0.37854015204E+02 -0.66955805800E+02 -0.33114355292E+03  0.33999139554E+03  0.47000000000E+01 0. -1.
        -13    1    6    6    0    0 -0.94553383239E+02 -0.16143911859E+02 -0.16201271710E+03  0.18827928371E+03  0.00000000000E+00 0.  1.
         14    1    6    6    0    0 -0.83518599917E+01  0.35073283839E+02 -0.63249911953E+02  0.72804121906E+02  0.00000000000E+00 0. -1.
         -5    1    3    3    0  503 -0.13327552309E+02 -0.17211047873E+02 -0.25599309117E+03  0.25695991233E+03  0.47000000000E+01 0.  1.
         11    1    4    4    0    0  0.72877254478E+02 -0.90525219455E+01 -0.17546417789E+03  0.19021230269E+03  0.00000000000E+00 0. -1.
        -12    1    4    4    0    0  0.81209556266E+02  0.74290003639E+02 -0.34411798114E+03  0.36129099299E+03  0.00000000000E+00 0.  1.
</event>
<event>
12    1  0.1035051E+000  0.2295136E+03  0.7818608E-02  0.1127545E+00
         21   -1    0    0  501  502  0.00000000000E+00  0.00000000000E+00  0.23769383929E+03  0.23769383929E+03  0.00000000000E+00 0.  1.
         21   -1    0    0  502  503 -0.00000000000E+00 -0.00000000000E+00 -0.22155941188E+03  0.22155941188E+03  0.00000000000E+00 0. -1.
         -6    2    1    2    0  503  0.14091844894E+03 -0.51262393964E+02 -0.18663927098E+02  0.22711658125E+03  0.16955163525E+03 0.  0.
        -24    2    3    3    0    0  0.16814184075E+03 -0.49920768933E+02  0.29463835071E+00  0.19358405640E+03  0.81920316754E+02 0.  0.
          6    2    1    2  501    0 -0.14091844894E+03  0.51262393964E+02  0.34798354500E+02  0.23213666992E+03  0.17375461363E+03 0.  0.
         24    2    5    5    0    0 -0.55581889909E+02  0.57877193089E+02  0.77229285499E+02  0.13648857647E+03  0.78902807315E+02 0.  0.
          5    1    5    5  501    0 -0.85336559034E+02 -0.66147991243E+01 -0.42430930999E+02  0.95648093450E+02  0.47000000000E+01 0. -1.
        -11    1    6    6    0    0 -0.81529038583E+00 -0.24328646474E+01  0.50768247667E+02  0.50833045354E+02  0.00000000000E+00 0.  1.
         12    1    6    6    0    0 -0.54766599523E+02  0.60310057736E+02  0.26461037832E+02  0.85655531115E+02  0.00000000000E+00 0. -1.
         -5    1    3    3    0  503 -0.27223391807E+02 -0.13416250313E+01 -0.18958565448E+02  0.33532524854E+02  0.47000000000E+01 0.  1.
         11    1    4    4    0    0  0.52884084139E+02  0.20617956842E+02  0.11767486236E+02  0.57968096673E+02  0.00000000000E+00 0. -1.
        -12    1    4    4    0    0  0.11525775661E+03 -0.70538725775E+02 -0.11472847885E+02  0.13561595972E+03  0.00000000000E+00 0.  1.
</event>
<event>
12    1  0.1035051E+000  0.2010973E+03  0.7818608E-02  0.1148947E+00
         21   -1    0    0  501  502  0.00000000000E+00  0.00000000000E+00  0.23545773017E+02  0.23545773017E+02  0.00000000000E+00 0.  1.
         21   -1    0    0  502  503 -0.00000000000E+00 -0.00000000000E+00 -0.24845180949E+04  0.24845180949E+04  0.00000000000E+00 0.  1.
         -6    2    1    2    0  503  0.96396156134E+02  0.42434691691E+02 -0.53262812515E+03  0.56932665272E+03  0.17131023267E+03 0.  0.
        -24    2    3    3    0    0  0.63024901604E+02 -0.33958597944E+02 -0.20689859523E+03  0.23306575402E+03  0.79920537989E+02 0.  0.
          6    2    1    2  501    0 -0.96396156134E+02 -0.42434691691E+02 -0.19283441967E+04  0.19387372152E+04  0.17058055736E+03 0.  0.
         24    2    5    5    0    0 -0.10825009753E+03 -0.20876969417E+02 -0.93097907521E+03  0.94105764393E+03  0.81936067973E+02 0.  0.
          5    1    5    5  501    0  0.11853941398E+02 -0.21557722274E+02 -0.99736512151E+03  0.99767957126E+03  0.47000000000E+01 0. -1.
        -11    1    6    6    0    0 -0.17249310532E+02  0.26026112454E+01 -0.26608884713E+02  0.31817370174E+02  0.00000000000E+00 0.  1.
         12    1    6    6    0    0 -0.91000787000E+02 -0.23479580662E+02 -0.90437019050E+03  0.90924027375E+03  0.00000000000E+00 0. -1.
         -5    1    3    3    0  503  0.33371254529E+02  0.76393289635E+02 -0.32572952993E+03  0.33626089870E+03  0.47000000000E+01 0.  1.
         13    1    4    4    0    0  0.59366917786E+02  0.40246775071E+01 -0.74881889192E+02  0.95644792254E+02  0.00000000000E+00 0. -1.
        -14    1    4    4    0    0  0.36579838185E+01 -0.37983275451E+02 -0.13201670604E+03  0.13742096176E+03  0.00000000000E+00 0.  1.
</event>
<event>
12    1  0.1035051E+000  0.5517582E+03  0.7818608E-02  0.1001128E+00
         21   -1    0    0  503  502  0.00000000000E+00  0.00000000000E+00  0.19047277014E+03  0.19047277014E+03  0.00000000000E+00 0.  1.
         21   -1    0    0  501  503 -0.00000000000E+00 -0.00000000000E+00 -0.16010765261E+04  0.16010765261E+04  0.00000000000E+00 0.  1.
          6    2    1    2  501    0 -0.37072462361E+03 -0.37087285660E+03 -0.75473589079E+03  0.93491354404E+03  0.17162065046E+03 0.  0.
         24    2    3    3    0    0 -0.12061018175E+03 -0.15558047008E+03 -0.36238552230E+03  0.42220607640E+03  0.90457755674E+02 0.  0.
         -6    2    1    2    0  502  0.37072462361E+03  0.37087285660E+03 -0.65586786522E+03  0.85663575225E+03  0.16934796452E+03 0.  0.
        -24    2    5    5    0    0  0.34656101428E+03  0.32797974630E+03 -0.64437206957E+03  0.80586231190E+03  0.80767884086E+02 0.  0.
          5    1    3    3  501    0 -0.25011444186E+03 -0.21529238652E+03 -0.39235036849E+03  0.51270746764E+03  0.47000000000E+01 0. -1.
        -13    1    4    4    0    0 -0.13201547188E+03 -0.12887360203E+03 -0.28449469685E+03  0.33907775310E+03  0.00000000000E+00 0.  1.
         14    1    4    4    0    0  0.11405290127E+02 -0.26706868050E+02 -0.77890825453E+02  0.83128323294E+02  0.00000000000E+00 0. -1.
         -5    1    5    5    0  502  0.24163609329E+02  0.42893110300E+02 -0.11495795651E+02  0.50773440347E+02  0.47000000000E+01 0.  1.
         13    1    6    6    0    0  0.24624530953E+03  0.25566354348E+03 -0.42219591675E+03  0.55158860761E+03  0.00000000000E+00 0. -1.
        -14    1    6    6    0    0  0.10031570476E+03  0.72316202818E+02 -0.22217615282E+03  0.25427370429E+03  0.00000000000E+00 0.  1.
</event>
<event>
12    1  0.1035051E+000  0.1917736E+03  0.7818608E-02  0.1157168E+00
         21   -1    0    0  503  502  0.00000000000E+00  0.00000000000E+00  0.40302301615E+02  0.40302301615E+02  0.00000000000E+00 0. -1.
         21   -1    0    0  501  503 -0.00000000000E+00 -0.00000000000E+00 -0.93856169080E+03  0.93856169080E+03  0.00000000000E+00 0. -1.
          6    2    1    2  501    0  0.84102052248E+02 -0.64247348504E+01 -0.35676957051E+03  0.40441787598E+03  0.17074794160E+03 0.  0.
         24    2    3    3    0    0  0.43561919045E+02  0.51986001422E+02 -0.21675635009E+03  0.24731565319E+03  0.97885299590E+02 0.  0.
         -6    2    1    2    0  502 -0.84102052248E+02  0.64247348504E+01 -0.54148981867E+03  0.57444611643E+03  0.17222858226E+03 0.  0.
        -24    2    5    5    0    0 -0.48025694150E+02 -0.18563655748E+02 -0.13273962676E+03  0.16331994034E+03  0.80015734622E+02 0.  0.
          5    1    3    3  501    0  0.40540133203E+02 -0.58410736273E+02 -0.14001322042E+03  0.15710222279E+03  0.47000000000E+01 0. -1.
        -13    1    4    4    0    0  0.41264270583E+02  0.59002120528E+02 -0.70150535203E+02  0.10052406599E+03  0.00000000000E+00 0.  1.
         14    1    4    4    0    0  0.22976484616E+01 -0.70161191058E+01 -0.14660581489E+03  0.14679158721E+03  0.00000000000E+00 0. -1.
         -5    1    5    5    0  502 -0.36076358098E+02  0.24988390599E+02 -0.40875019191E+03  0.41112617609E+03  0.47000000000E+01 0.  1.
         11    1    6    6    0    0  0.69084699250E+01  0.22827034784E+02 -0.19405057086E+02  0.30746653708E+02  0.00000000000E+00 0. -1.
        -12    1    6    6    0    0 -0.54934164075E+02 -0.41390690532E+02 -0.11333456967E+03  0.13257328663E+03  0.00000000000E+00 0.  1.
</event>
<event>
12    1  0.1035051E+000  0.2014971E+03  0.7818608E-02  0.1148517E+00
         21   -1    0    0  503  502  0.00000000000E+00  0.00000000000E+00  0.15609906987E+03  0.15609906987E+03  0.00000000000E+00 0. -1.
         21   -1    0    0  501  503 -0.00000000000E+00 -0.00000000000E+00 -0.26324338791E+03  0.26324338791E+03  0.00000000000E+00 0. -1.
          6    2    1    2  501    0 -0.10378705718E+03  0.15685446293E+02 -0.77246977718E+02  0.21563943897E+03  0.17180071482E+03 0.  0.
         24    2    3    3    0    0 -0.12497031929E+03 -0.11961606600E+02 -0.21952220466E+02  0.15012081333E+03  0.79332829745E+02 0.  0.
         -6    2    1    2    0  502  0.10378705718E+03 -0.15685446293E+02 -0.29897340321E+02  0.20370301880E+03  0.17199791408E+03 0.  0.
        -24    2    5    5    0    0  0.65374518954E+02 -0.77702229742E+02 -0.24958588840E+02  0.13043579702E+03  0.77968594645E+02 0.  0.
          5    1    3    3  501    0  0.21183262110E+02  0.27647052893E+02 -0.55294757252E+02  0.65518625648E+02  0.47000000000E+01 0. -1.
        -13    1    4    4    0    0 -0.65085191843E+02  0.27868652017E+02 -0.31641908169E+02  0.77549689330E+02  0.00000000000E+00 0.  1.
         14    1    4    4    0    0 -0.59885127442E+02 -0.39830258617E+02  0.96896877033E+01  0.72571123996E+02  0.00000000000E+00 0. -1.
         -5    1    5    5    0  502  0.38412538221E+02  0.62016783449E+02 -0.49387514808E+01  0.73267221785E+02  0.47000000000E+01 0.  1.
         11    1    6    6    0    0  0.82850818972E+02 -0.57476031480E+02 -0.15173164897E+02  0.10197047284E+03  0.00000000000E+00 0. -1.
        -12    1    6    6    0    0 -0.17476300018E+02 -0.20226198262E+02 -0.97854239433E+01  0.28465324172E+02  0.00000000000E+00 0.  1.
</event>
<event>
12    1  0.1035051E+000  0.2557230E+03  0.7818608E-02  0.1110087E+00
         21   -1    0    0  503  502  0.00000000000E+00  0.00000000000E+00  0.15299630461E+04  0.15299630461E+04  0.00000000000E+00 0. -1.
         21   -1    0    0  501  503 -0.00000000000E+00 -0.00000000000E+00 -0.51076744870E+02  0.51076744870E+02  0.00000000000E+00 0. -1.
          6    2    1    2  501    0  0.18522307335E+03  0.33906822726E+01  0.10631627387E+04  0.10929615953E+04  0.17300565406E+03 0.  0.
         24    2    3    3    0    0  0.11900384344E+03 -0.26248966249E+02  0.39414047671E+03  0.42000069589E+03  0.78758784802E+02 0.  0.
         -6    2    1    2    0  502 -0.18522307335E+03 -0.33906822726E+01  0.41572356254E+03  0.48807819562E+03  0.17628148220E+03 0.  0.
        -24    2    5    5    0    0 -0.43939621622E+02 -0.51328769714E+02  0.17614115911E+03  0.20580015540E+03  0.82235412576E+02 0.  0.
          5    1    3    3  501    0  0.66219229905E+02  0.29639648522E+02  0.66902226197E+03  0.67296089945E+03  0.47000000000E+01 0. -1.
        -13    1    4    4    0    0  0.10829048629E+03  0.30674344870E+01  0.34654521882E+03  0.36308377444E+03  0.00000000000E+00 0.  1.
         14    1    4    4    0    0  0.10713357149E+02 -0.29316400736E+02  0.47595257893E+02  0.56916921451E+02  0.00000000000E+00 0. -1.
         -5    1    5    5    0  502 -0.14128345173E+03  0.47938087442E+02  0.23958240343E+03  0.28227804023E+03  0.47000000000E+01 0.  1.
         13    1    6    6    0    0 -0.77753640307E+01 -0.51175291807E+02  0.41376798562E+02  0.66267686217E+02  0.00000000000E+00 0. -1.
        -14    1    6    6    0    0 -0.36164257591E+02 -0.15347790785E+00  0.13476436054E+03  0.13953246918E+03  0.00000000000E+00 0.  1.
</event>
<event>
12    1  0.1035051E+000  0.2206793E+03  0.7818608E-02  0.1133400E+00
         21   -1    0    0  501  502  0.00000000000E+00  0.00000000000E+00  0.10342829560E+03  0.10342829560E+03  0.00000000000E+00 0.  1.
         21   -1    0    0  502  503 -0.00000000000E+00 -0.00000000000E+00 -0.47327887781E+03  0.47327887781E+03  0.00000000000E+00 0.  1.
         -6    2    1    2    0  503 -0.65740724244E+02  0.12125256722E+03 -0.16313985197E+03  0.27433539094E+03  0.17210830178E+03 0.  0.
        -24    2    3    3    0    0 -0.25605886173E+02  0.57659861444E+02 -0.17100587914E+03  0.19858051098E+03  0.78809184817E+02 0.  0.
          6    2    1    2  501    0  0.65740724244E+02 -0.12125256722E+03 -0.20671073024E+03  0.30237178247E+03  0.17226532141E+03 0.  0.
         24    2    5    5    0    0  0.14235858594E+02  0.77503826137E+01 -0.89438802096E+02  0.12052209900E+03  0.79142586043E+02 0.  0.
          5    1    5    5  501    0  0.51504865650E+02 -0.12900294983E+03 -0.11727192814E+03  0.18184968348E+03  0.47000000000E+01 0. -1.
        -13    1    6    6    0    0 -0.18091743076E+02 -0.26423390587E+02 -0.48736660259E+02  0.58316110903E+02  0.00000000000E+00 0.  1.
         14    1    6    6    0    0  0.32327601670E+02  0.34173773201E+02 -0.40702141838E+02  0.62205988094E+02  0.00000000000E+00 0. -1.
         -5    1    3    3    0  503 -0.40134838071E+02  0.63592705774E+02  0.78660271709E+01  0.75754879962E+02  0.47000000000E+01 0.  1.
         13    1    4    4    0    0 -0.32629111860E+02  0.75171502960E+02 -0.13482981698E+03  0.15777988891E+03  0.00000000000E+00 0. -1.
        -14    1    4    4    0    0  0.70232256872E+01 -0.17511641516E+02 -0.36176062160E+02  0.40800622067E+02  0.00000000000E+00 0.  1.
</event>
<event>
12    1  0.1035051E+000  0.2156287E+03  0.7818608E-02  0.1137241E+00
         21   -1    0    0  501  502  0.00000000000E+00  0.00000000000E+00  0.14445428215E+04  0.14445428215E+04  0.00000000000E+00 0. -1.
         21   -1    0    0  502  503 -0.00000000000E+00 -0.00000000000E+00 -0.50848059450E+02  0.50848059450E+02  0.00000000000E+00 0. -1.
         -6    2    1    2    0  503  0.71493219367E+02 -0.10821858915E+03  0.11506382541E+04  0.11706682431E+04  0.17225910761E+03 0.  0.
        -24    2    3    3    0    0  0.33682084166E+02  0.13260428678E+02  0.53502006586E+03  0.54202313064E+03  0.78944800488E+02 0.  0.
          6    2    1    2  501    0 -0.71493219367E+02  0.10821858915E+03  0.24305650800E+03  0.32472263790E+03  0.17188886535E+03 0.  0.
         24    2    5    5    0    0  0.14265675662E+02  0.74356477905E+01  0.75042724488E+02  0.11080089802E+03  0.79916394702E+02 0.  0.
          5    1    5    5  501    0 -0.85758895028E+02  0.10078294136E+03  0.16801378351E+03  0.21392173988E+03  0.47000000000E+01 0. -1.
        -11    1    6    6    0    0 -0.21227413646E+02  0.10003841393E+02  0.71248252278E+02  0.75013288059E+02  0.00000000000E+00 0.  1.
         12    1    6    6    0    0  0.35493089308E+02 -0.25681936024E+01  0.37944722101E+01  0.35787609956E+02  0.00000000000E+00 0. -1.
         -5    1    3    3    0  503  0.37811135200E+02 -0.12147901782E+03  0.61561818820E+03  0.62864511241E+03  0.47000000000E+01 0.  1.
         11    1    4    4    0    0  0.22945799352E+02  0.89608695862E+01  0.52783124960E+03  0.52840574840E+03  0.00000000000E+00 0. -1.
        -12    1    4    4    0    0  0.10736284814E+02  0.42995590917E+01  0.71888162576E+01  0.13617382244E+02  0.00000000000E+00 0.  1.
</event>
<event>
12    1  0.1035051E+000  0.2191041E+03  0.7818608E-02  0.1134922E+00
         21   -1    0    0  501  502  0.00000000000E+00  0.00000000000E+00  0.92754526966E+03  0.92754526966E+03  0.00000000000E+00 0.  1.
         21   -1    0    0  502  503 -0.00000000000E+00 -0.00000000000E+00 -0.76799980269E+02  0.76799980269E+02  0.00000000000E+00 0. -1.
         -6    2    1    2    0  503 -0.11975427019E+03 -0.57960747350E+02  0.71603816253E+03  0.74881055885E+03  0.17408638481E+03 0.  0.
        -24    2    3    3    0    0 -0.70125204144E+02 -0.68821368055E+02  0.66458688982E+03  0.67635146182E+03  0.78240915299E+02 0.  0.
          6    2    1    2  501    0  0.11975427019E+03  0.57960747350E+02  0.13470712686E+03  0.25553469108E+03  0.17161420355E+03 0.  0.
         24    2    5    5    0    0  0.13664542624E+03  0.25466932101E+02  0.14299002848E+03  0.21769482267E+03  0.87317526463E+02 0.  0.
          5    1    5    5  501    0 -0.16891156056E+02  0.32493815249E+02 -0.82829016234E+01  0.37839868415E+02  0.47000000000E+01 0. -1.
        -11    1    6    6    0    0  0.56439863130E+02 -0.86312997265E+01  0.11105988006E+03  0.12487695722E+03  0.00000000000E+00 0.  1.
         12    1    6    6    0    0  0.80205563113E+02  0.34098231827E+02  0.31930148417E+02  0.92817865446E+02  0.00000000000E+00 0. -1.
         -5    1    3    3    0  503 -0.49629066042E+02  0.10860620705E+02  0.51451272712E+02  0.72459097027E+02  0.47000000000E+01 0.  1.
         13    1    4    4    0    0 -0.49667754678E+02 -0.26698947985E+02  0.16094722622E+03  0.17053952418E+03  0.00000000000E+00 0. -1.
        -14    1    4    4    0    0 -0.20457449466E+02 -0.42122420070E+02  0.50363966360E+03  0.50581193764E+03  0.00000000000E+00 0.  1.
</event>
<event>
12    1  0.1035051E+000  0.2010396E+03  0.7818608E-02  0.1148955E+00
         21   -1    0    0  501  502  0.00000000000E+00  0.00000000000E+00  0.26588500507E+02  0.26588500507E+02  0.00000000000E+00 0. -1.
         21   -1    0    0  502  503 -0.00000000000E+00 -0.00000000000E+00 -0.15485516989E+04  0.15485516989E+04  0.00000000000E+00 0. -1.
         -6    2    1    2    0  503 -0.41323727165E+01  0.10418129333E+03 -0.64908021944E+03  0.67950133138E+03  0.17188981849E+03 0.  0.
        -24    2    3    3    0    0  0.14174153871E+02 -0.11926669307E+02 -0.22364570464E+03  0.23810264054E+03  0.79575838957E+02 0.  0.
          6    2    1    2  501    0  0.41323727165E+01 -0.10418129333E+03 -0.87288297892E+03  0.89563886799E+03  0.17138689734E+03 0.  0.
         24    2    5    5    0    0  0.60274766079E+02 -0.85902173543E+02 -0.51387469117E+03  0.53177744488E+03  0.87794201486E+02 0.  0.
          5    1    5    5  501    0 -0.56142393363E+02 -0.18279119784E+02 -0.35900828775E+03  0.36386142311E+03  0.47000000000E+01 0. -1.
        -13    1    6    6    0    0 -0.65002024862E+01 -0.56556169075E+02 -0.31151204692E+03  0.31667113583E+03  0.00000000000E+00 0.  1.
         14    1    6    6    0    0  0.66774968565E+02 -0.29346004468E+02 -0.20236264425E+03  0.21510630905E+03  0.00000000000E+00 0. -1.
         -5    1    3    3    0  503 -0.18306526587E+02  0.11610796263E+03 -0.42543451480E+03  0.44139869085E+03  0.47000000000E+01 0.  1.
         11    1    4    4    0    0  0.44274990191E+02  0.82092268186E+01 -0.11129034908E+03  0.12005502056E+03  0.00000000000E+00 0. -1.
        -12    1    4    4    0    0 -0.30100836321E+02 -0.20135896126E+02 -0.11235535556E+03  0.11804761998E+03  0.00000000000E+00 0.  1.
</event>
<event>
12    1  0.1035051E+000  0.2644106E+03  0.7818608E-02  0.1104581E+00
         21   -1    0    0  503  502  0.00000000000E+00  0.00000000000E+00  0.65669680947E+03  0.65669680947E+03  0.00000000000E+00 0. -1.
         21   -1    0    0  501  503 -0.00000000000E+00 -0.00000000000E+00 -0.14731643929E+03  0.14731643929E+03  0.00000000000E+00 0. -1.
          6    2    1    2  501    0  0.28070838061E+02  0.19865666331E+03  0.46695169410E+03  0.53661608651E+03  0.17222223388E+03 0.  0.
         24    2    3    3    0    0  0.52609358294E+02  0.11651876610E+03  0.40029049489E+03  0.42792119880E+03  0.80868440357E+02 0.  0.
         -6    2    1    2    0  502 -0.28070838061E+02 -0.19865666331E+03  0.42428676086E+02  0.26739716226E+03  0.17160596726E+03 0.  0.
        -24    2    5    5    0    0  0.20923551468E+02 -0.15648616580E+03  0.77969168569E+02  0.19347816827E+03  0.80180391979E+02 0.  0.
          5    1    3    3  501    0 -0.24538520233E+02  0.82137897212E+02  0.66661199211E+02  0.10869488771E+03  0.47000000000E+01 0. -1.
        -13    1    4    4    0    0 -0.16862598091E+02  0.58065069458E+02  0.16332813608E+03  0.17416078646E+03  0.00000000000E+00 0.  1.
         14    1    4    4    0    0  0.69471956385E+02  0.58453696641E+02  0.23696235881E+03  0.25376041233E+03  0.00000000000E+00 0. -1.
         -5    1    5    5    0  502 -0.48994389529E+02 -0.42170497512E+02 -0.35540492483E+02  0.73918993985E+02  0.47000000000E+01 0.  1.
         13    1    6    6    0    0  0.39284863488E+02 -0.75590451283E+02  0.69782563724E+02  0.11012185534E+03  0.00000000000E+00 0. -1.
        -14    1    6    6    0    0 -0.18361312020E+02 -0.80895714515E+02  0.81866048454E+01  0.83356312928E+02  0.00000000000E+00 0.  1.
</event>
<event>
12    1  0.1035051E+000  0.2430412E+03  0.7818608E-02  0.1117967E+00
         21   -1    0    0  503  502  0.00000000000E+00  0.00000000000E+00  0.11519914101E+03  0.11519914101E+03  0.00000000000E+00 0. -1.
         21   -1    0    0  501  503 -0.00000000000E+00 -0.00000000000E+00 -0.51693816807E+03  0.51693816807E+03  0.00000000000E+00 0. -1.
          6    2    1    2  501    0 -0.12168090751E+03  0.11888377826E+03 -0.16577465213E+03  0.29419425529E+03  0.17357830674E+03 0.  0.
         24    2    3    3    0    0 -0.58128357603E+02  0.67471861186E+00 -0.37228208428E+02  0.10829485623E+03  0.83441447618E+02 0.  0.
         -6    2    1    2    0  502  0.12168090751E+03 -0.11888377826E+03 -0.23596437493E+03  0.33794305379E+03  0.17200792245E+03 0.  0.
        -24    2    5    5    0    0  0.15080924120E+03 -0.77200819972E+02 -0.20041460261E+03  0.27571922277E+03  0.84567624011E+02 0.  0.
          5    1    3    3  501    0 -0.63552549906E+02  0.11820905964E+03 -0.12854644370E+03  0.18589939906E+03  0.47000000000E+01 0. -1.
        -13    1    4    4    0    0 -0.36544036188E+01  0.31312185391E+02 -0.33023904103E+02  0.45655074877E+02  0.00000000000E+00 0.  1.
         14    1    4    4    0    0 -0.54473953984E+02 -0.30637466779E+02 -0.42043043244E+01  0.62639781355E+02  0.00000000000E+00 0. -1.
         -5    1    5    5    0  502 -0.29128333691E+02 -0.41682958284E+02 -0.35549772316E+02  0.62223831019E+02  0.47000000000E+01 0.  1.
         13    1    6    6    0    0  0.24736246020E+02 -0.52145816463E+02 -0.86382835536E+02  0.10388966415E+03  0.00000000000E+00 0. -1.
        -14    1    6    6    0    0  0.12607299518E+03 -0.25055003509E+02 -0.11403176707E+03  0.17182955862E+03  0.00000000000E+00 0.  1.
</event>
<event>
12    1  0.1035051E+000  0.1751170E+03  0.7818608E-02  0.1173164E+00
         21   -1    0    0  501  502  0.00000000000E+00  0.00000000000E+00  0.35956238521E+03  0.35956238521E+03  0.00000000000E+00 0. -1.
         21   -1    0    0  502  503 -0.00000000000E+00 -0.00000000000E+00 -0.12785601282E+03  0.12785601282E+03  0.00000000000E+00 0. -1.
         -6    2    1    2    0  503 -0.51852422078E+01 -0.92063115051E+01  0.25868599983E+03  0.31238503608E+03  0.17479794435E+03 0.  0.
        -24    2    3    3    0    0 -0.48429590950E+02 -0.15111481841E+02  0.25005075905E+03  0.26764576789E+03  0.80839920851E+02 0.  0.
          6    2    1    2  501    0  0.51852422078E+01  0.92063115051E+01 -0.26979627441E+02  0.17503336195E+03  0.17261846538E+03 0.  0.
         24    2    5    5    0    0  0.69809083857E+02  0.12669137879E+02 -0.18134163655E+02  0.10954623111E+03  0.81472164660E+02 0.  0.
          5    1    5    5  501    0 -0.64623841649E+02 -0.34628263741E+01 -0.88454637854E+01  0.65487130839E+02  0.47000000000E+01 0. -1.
        -11    1    6    6    0    0 -0.47574410972E+01  0.29790508586E+02  0.25990925541E+01  0.30279744545E+02  0.00000000000E+00 0.  1.
         12    1    6    6    0    0  0.74566524954E+02 -0.17121370707E+02 -0.20733256210E+02  0.79266486561E+02  0.00000000000E+00 0. -1.
         -5    1    3    3    0  503  0.43244348742E+02  0.59051703358E+01  0.86352407810E+01  0.44739268190E+02  0.47000000000E+01 0.  1.
         11    1    4    4    0    0 -0.11911018440E+02  0.32843339771E+02  0.83009595100E+02  0.90061924287E+02  0.00000000000E+00 0. -1.
        -12    1    4    4    0    0 -0.36518572510E+02 -0.47954821612E+02  0.16704116395E+03  0.17758384360E+03  0.00000000000E+00 0.  1.
</event>
<event>
12    1  0.1035051E+000  0.1844925E+03  0.7818608E-02  0.1163904E+00
         21   -1    0    0  501  502  0.00000000000E+00  0.00000000000E+00  0.31130031205E+03  0.31130031205E+03  0.00000000000E+00 0.  1.
         21   -1    0    0  502  503 -0.00000000000E+00 -0.00000000000E+00 -0.10906829606E+03  0.10906829606E+03  0.00000000000E+00 0.  1.
         -6    2    1    2    0  503 -0.63425824895E+01 -0.65340399820E+02  0.11728706369E+03  0.21725991917E+03  0.17069276777E+03 0.  0.
        -24    2    3    3    0    0  0.27292962421E+02 -0.84587301667E+02  0.32050051372E+02  0.12350901848E+03  0.79544669532E+02 0.  0.
          6    2    1    2  501    0  0.63425824895E+01  0.65340399820E+02  0.84944952295E+02  0.20310868893E+03  0.17241780186E+03 0.  0.
         24    2    5    5    0    0  0.21021280303E+02  0.46072278797E+02  0.12445348055E+03  0.15652823743E+03  0.80298637543E+02 0.  0.
          5    1    5    5  501    0 -0.14678697814E+02  0.19268121023E+02 -0.39508528259E+02  0.46580451506E+02  0.47000000000E+01 0. -1.
        -11    1    6    6    0    0  0.91381459900E+01  0.91057913145E+01 -0.10163479328E+02  0.16423077046E+02  0.00000000000E+00 0.  1.
         12    1    6    6    0    0  0.11883134313E+02  0.36966487483E+02  0.13461695988E+03  0.14010516038E+03  0.00000000000E+00 0. -1.
         -5    1    3    3    0  503 -0.33635544911E+02  0.19246901847E+02  0.85237012322E+02  0.93750900698E+02  0.47000000000E+01 0.  1.
         13    1    4    4    0    0 -0.61905773709E+01 -0.45339498739E+02  0.51026312938E+02  0.68539609032E+02  0.00000000000E+00 0. -1.
        -14    1    4    4    0    0  0.33483539792E+02 -0.39247802927E+02 -0.18976261567E+02  0.54969409444E+02  0.00000000000E+00 0.  1.
</event>
<event>
12    1  0.1035051E+000  0.5540365E+03  0.7818608E-02  0.1000664E+00
         21   -1    0    0  503  502  0.00000000000E+00  0.00000000000E+00  0.14425985950E+03  0.14425985950E+03  0.00000000000E+00 0. -1.
         21   -1    0    0  501  503 -0.00000000000E+00 -0.00000000000E+00 -0.27143643217E+04  0.27143643217E+04  0.00000000000E+00 0.  1.
          6    2    1    2  501    0  0.44168030629E+03 -0.28420236659E+03 -0.61525798869E+03  0.82678237498E+03  0.17080463924E+03 0.  0.
         24    2    3    3    0    0  0.23004069537E+03 -0.93074686455E+02 -0.22958637185E+03  0.34710977720E+03  0.78699914234E+02 0.  0.
         -6    2    1    2    0  502 -0.44168030629E+03  0.28420236659E+03 -0.19548464735E+04  0.20318418062E+04  0.17636301315E+03 0.  0.
        -24    2    5    5    0    0 -0.26504006942E+03  0.23057483549E+03 -0.11073253109E+04  0.11644365397E+04  0.79574604078E+02 0.  0.
          5    1    3    3  501    0  0.21163961091E+03 -0.19112768014E+03 -0.38567161684E+03  0.47967259778E+03  0.47000000000E+01 0. -1.
        -11    1    4    4    0    0  0.16334646535E+03 -0.10252064709E+03 -0.16542187020E+03  0.25408058950E+03  0.00000000000E+00 0.  1.
         12    1    4    4    0    0  0.66694230028E+02  0.94459606374E+01 -0.64164501649E+02  0.93029187695E+02  0.00000000000E+00 0. -1.
         -5    1    5    5    0  502 -0.17664023686E+03  0.53627531100E+02 -0.84752116259E+03  0.86740526653E+03  0.47000000000E+01 0.  1.
         13    1    6    6    0    0 -0.25245892784E+02  0.60754218498E+02 -0.17832747334E+03  0.19007661065E+03  0.00000000000E+00 0. -1.
        -14    1    6    6    0    0 -0.23979417664E+03  0.16982061700E+03 -0.92899783758E+03  0.97435992905E+03  0.00000000000E+00 0.  1.
</event>
<event>
12    1  0.1035051E+000  0.4368734E+03  0.7818608E-02  0.1031722E+00
         21   -1    0    0  503  502  0.00000000000E+00  0.00000000000E+00  0.14545241547E+03  0.14545241547E+03  0.00000000000E+00 0.  1.
         21   -1    0    0  501  503 -0.00000000000E+00 -0.00000000000E+00 -0.15474233960E+04  0.15474233960E+04  0.00000000000E+00 0.  1.
          6    2    1    2  501    0  0.31561659154E+03 -0.24798273537E+03 -0.37052879396E+03  0.57272790046E+03  0.17209413387E+03 0.  0.
         24    2    3    3    0    0  0.19561812801E+03 -0.20420038639E+03 -0.18275401140E+03  0.34557600348E+03  0.77842762631E+02 0.  0.
         -6    2    1    2    0  502 -0.31561659154E+03  0.24798273537E+03 -0.10314421866E+04  0.11201479110E+04  0.17247924049E+03 0.  0.
        -24    2    5    5    0    0 -0.10347998534E+03  0.15528566892E+03 -0.53918957042E+03  0.57615396442E+03  0.80039062508E+02 0.  0.
          5    1    3    3  501    0  0.11999846354E+03 -0.43782348978E+02 -0.18777478257E+03  0.22715189698E+03  0.47000000000E+01 0. -1.
        -13    1    4    4    0    0  0.38821011055E+02 -0.67202528544E+02 -0.86424249712E+02  0.11615679782E+03  0.00000000000E+00 0.  1.
         14    1    4    4    0    0  0.15679711695E+03 -0.13699785784E+03 -0.96329761683E+02  0.22941920566E+03  0.00000000000E+00 0. -1.
         -5    1    5    5    0  502 -0.21213660620E+03  0.92697066443E+02 -0.49225261615E+03  0.54399394659E+03  0.47000000000E+01 0.  1.
         11    1    6    6    0    0 -0.99852390042E+02  0.89954005482E+02 -0.40776259050E+03  0.42933967102E+03  0.00000000000E+00 0. -1.
        -12    1    6    6    0    0 -0.36275952980E+01  0.65331663442E+02 -0.13142697992E+03  0.14681429340E+03  0.00000000000E+00 0.  1.
</event>
<event>
12    1  0.1035051E+000  0.2171825E+03  0.7818608E-02  0.1136099E+00
         21   -1    0    0  503  502  0.00000000000E+00  0.00000000000E+00  0.80241787614E+02  0.80241787614E+02  0.00000000000E+00 0.  1.
         21   -1    0    0  501  503 -0.00000000000E+00 -0.00000000000E+00 -0.80642320466E+03  0.80642320466E+03  0.00000000000E+00 0.  1.
          6    2    1    2  501    0 -0.82280405911E+02 -0.10282351386E+03 -0.13185266822E+03  0.25407350527E+03  0.17270054940E+03 0.  0.
         24    2    3    3    0    0 -0.11042995772E+03 -0.68318743586E+02 -0.51219304805E+02  0.16184115881E+03  0.81895770408E+02 0.  0.
         -6    2    1    2    0  502  0.82280405911E+02  0.10282351386E+03 -0.59432874883E+03  0.63259148701E+03  0.17205402509E+03 0.  0.
        -24    2    5    5    0    0  0.11531467903E+03  0.68483165271E+02 -0.53098031757E+03  0.55318344910E+03  0.78002638314E+02 0.  0.
          5    1    3    3  501    0  0.28149551813E+02 -0.34504770272E+02 -0.80633363414E+02  0.92232346465E+02  0.47000000000E+01 0. -1.
        -11    1    4    4    0    0 -0.70757668894E+00  0.11163563819E+02 -0.19828788189E+02  0.22766349355E+02  0.00000000000E+00 0.  1.
         12    1    4    4    0    0 -0.10972238104E+03 -0.79482307404E+02 -0.31390516616E+02  0.13907480945E+03  0.00000000000E+00 0. -1.
         -5    1    5    5    0  502 -0.33034273119E+02  0.34340348588E+02 -0.63348431260E+02  0.79408037910E+02  0.47000000000E+01 0.  1.
         13    1    6    6    0    0  0.91452963214E+02  0.10397913327E+02 -0.29818155879E+03  0.31206410092E+03  0.00000000000E+00 0. -1.
        -14    1    6    6    0    0  0.23861715816E+02  0.58085251944E+02 -0.23279875878E+03  0.24111934817E+03  0.00000000000E+00 0.  1.
</event>
<event>
12    1  0.1035051E+000  0.3780246E+03  0.7818608E-02  0.1051940E+00
         21   -1    0    0  501  502  0.00000000000E+00  0.00000000000E+00  0.44504096001E+03  0.44504096001E+03  0.00000000000E+00 0. -1.
         21   -1    0    0  502  503 -0.00000000000E+00 -0.00000000000E+00 -0.46607983720E+03  0.46607983720E+03  0.00000000000E+00 0.  1.
         -6    2    1    2    0  503 -0.18317642744E+03  0.28206328206E+03  0.24575342897E+03  0.44843221276E+03  0.16608251846E+03 0.  0.
        -24    2    3    3    0    0 -0.18162141986E+03  0.29633698399E+03  0.24473834462E+03  0.43329031686E+03  0.83914796835E+02 0.  0.
          6    2    1    2  501    0  0.18317642744E+03 -0.28206328206E+03 -0.26679230616E+03  0.46268858445E+03  0.17259574993E+03 0.  0.
         24    2    5    5    0    0  0.80735195932E+02 -0.50096080054E+02 -0.86129816316E+02  0.15129813187E+03  0.80280697236E+02 0.  0.
          5    1    5    5  501    0  0.10244123151E+03 -0.23196720201E+03 -0.18066248985E+03  0.31139045258E+03  0.47000000000E+01 0. -1.
        -13    1    6    6    0    0  0.76694776297E+02 -0.11643852543E+02 -0.30069137735E+02  0.83197482278E+02  0.00000000000E+00 0.  1.
         14    1    6    6    0    0  0.40404196347E+01 -0.38452227511E+02 -0.56060678581E+02  0.68100649588E+02  0.00000000000E+00 0. -1.
         -5    1    3    3    0  503 -0.15550075826E+01 -0.14273701927E+02  0.10150843424E+01  0.15141895902E+02  0.47000000000E+01 0.  1.
         13    1    4    4    0    0 -0.47132962304E+02  0.10100447684E+03  0.35361841565E+02  0.11693536812E+03  0.00000000000E+00 0. -1.
        -14    1    4    4    0    0 -0.13448845755E+03  0.19533250714E+03  0.20937650306E+03  0.31635494874E+03  0.00000000000E+00 0.  1.
</event>
<event>
12    1  0.1035051E+000  0.2146801E+03  0.7818608E-02  0.1138112E+00
         21   -1    0    0  503  502  0.00000000000E+00  0.00000000000E+00  0.47138993176E+03  0.47138993176E+03  0.00000000000E+00 0. -1.
         21   -1    0    0  501  503 -0.00000000000E+00 -0.00000000000E+00 -0.14228513809E+03  0.14228513809E+03  0.00000000000E+00 0.  1.
          6    2    1    2  501    0  0.12424963363E+03 -0.29807013480E+02 -0.77080405547E+01  0.21481839639E+03  0.17251405749E+03 0.  0.
         24    2    3    3    0    0  0.72628004208E+02 -0.63469971747E+02 -0.55676945753E+02  0.13658098048E+03  0.79064389150E+02 0.  0.
         -6    2    1    2    0  502 -0.12424963363E+03  0.29807013480E+02  0.33681283422E+03  0.39885667346E+03  0.17122304505E+03 0.  0.
        -24    2    5    5    0    0 -0.16888108861E+02 -0.63569001433E+01  0.24738143396E+03  0.25444617868E+03  0.56742097043E+02 0.  0.
          5    1    3    3  501    0  0.51621629419E+02  0.33662958267E+02  0.47968905198E+02  0.78237415915E+02  0.47000000000E+01 0. -1.
        -11    1    4    4    0    0  0.63932683172E+02 -0.10667027757E+02 -0.51716975942E+02  0.82920558725E+02  0.00000000000E+00 0.  1.
         12    1    4    4    0    0  0.86953210357E+01 -0.52802943990E+02 -0.39599698112E+01  0.53660421754E+02  0.00000000000E+00 0. -1.
         -5    1    5    5    0  502 -0.10736152477E+03  0.36163913623E+02  0.89431400263E+02  0.14441049478E+03  0.47000000000E+01 0.  1.
         13    1    6    6    0    0 -0.37090040354E+02 -0.11049915025E+02  0.16801346119E+03  0.17241315163E+03  0.00000000000E+00 0. -1.
        -14    1    6    6    0    0  0.20201931494E+02  0.46930148815E+01  0.79367972769E+02  0.82033027046E+02  0.00000000000E+00 0.  1.
</event>
<event>
12    1  0.1035051E+000  0.1843293E+03  0.7818608E-02  0.1165757E+00
         21   -1    0    0  501  502  0.00000000000E+00  0.00000000000E+00  0.31882868069E+03  0.31882868069E+03  0.00000000000E+00 0.  1.
         21   -1    0    0  502  503 -0.00000000000E+00 -0.00000000000E+00 -0.11226144585E+03  0.11226144585E+03  0.00000000000E+00 0.  1.
         -6    2    1    2    0  503  0.31867253014E+02  0.21485214780E+02  0.16734428933E+03  0.24263396785E+03  0.17143510409E+03 0.  0.
        -24    2    3    3    0    0  0.81333310458E+02  0.36242210419E+02  0.13984150105E+03  0.18395558067E+03  0.79720794244E+02 0.  0.
          6    2    1    2  501    0 -0.31867253014E+02 -0.21485214780E+02  0.39222945503E+02  0.18845615869E+03  0.18027797432E+03 0.  0.
         24    2    5    5    0    0 -0.22932956222E+02  0.49552036228E+02 -0.16508656429E+02  0.97603452931E+02  0.79199580248E+02 0.  0.
          5    1    5    5  501    0 -0.89342967914E+01 -0.71037251008E+02  0.55731601933E+02  0.90852705760E+02  0.47000000000E+01 0. -1.
        -11    1    6    6    0    0  0.18805721644E+02 -0.40978035082E+01 -0.22212114269E+02  0.29390903022E+02  0.00000000000E+00 0.  1.
         12    1    6    6    0    0 -0.41738677866E+02  0.53649839737E+02  0.57034578398E+01  0.68212549909E+02  0.00000000000E+00 0. -1.
         -5    1    3    3    0  503 -0.49466057444E+02 -0.14756995640E+02  0.27502788275E+02  0.58678387182E+02  0.47000000000E+01 0.  1.
         11    1    4    4    0    0  0.83020644081E+02  0.19381256045E+00  0.90309678007E+02  0.12267152420E+03  0.00000000000E+00 0. -1.
        -12    1    4    4    0    0 -0.16873336232E+01  0.36048397859E+02  0.49531823047E+02  0.61284056469E+02  0.00000000000E+00 0.  1.
</event>
<event>
12    1  0.1035051E+000  0.2083868E+03  0.7818608E-02  0.1142949E+00
         21   -1    0    0  501  502  0.00000000000E+00  0.00000000000E+00  0.16430925427E+03  0.16430925427E+03  0.00000000000E+00 0.  1.
         21   -1    0    0  502  503 -0.00000000000E+00 -0.00000000000E+00 -0.26855796726E+03  0.26855796726E+03  0.00000000000E+00 0.  1.
         -6    2    1    2    0  503  0.30499523397E+01  0.11800003877E+03 -0.22835734919E+02  0.20914160953E+03  0.17112986499E+03 0.  0.
        -24    2    3    3    0    0  0.72797649413E+02  0.76316635406E+02 -0.31733892635E+01  0.12541022235E+03  0.67778513342E+02 0.  0.
          6    2    1    2  501    0 -0.30499523397E+01 -0.11800003877E+03 -0.81412978072E+02  0.22372561200E+03  0.17173166600E+03 0.  0.
         24    2    5    5    0    0 -0.26299701656E+02 -0.10694676651E+03  0.69334726810E+01  0.13158489878E+03  0.71674454107E+02 0.  0.
          5    1    5    5  501    0  0.23249749316E+02 -0.11053272262E+02 -0.88346450753E+02  0.92140713215E+02  0.47000000000E+01 0. -1.
        -11    1    6    6    0    0 -0.19353495894E+02 -0.99783419628E+02 -0.19352423528E+02  0.10346885972E+03  0.00000000000E+00 0.  1.
         12    1    6    6    0    0 -0.69462057621E+01 -0.71633468771E+01  0.26285896209E+02  0.28116039061E+02  0.00000000000E+00 0. -1.
         -5    1    3    3    0  503 -0.69747697073E+02  0.41683403361E+02 -0.19662345656E+02  0.83731387182E+02  0.47000000000E+01 0.  1.
         11    1    4    4    0    0  0.56656215409E+01  0.50456756539E+02  0.11329182309E+02  0.52022436695E+02  0.00000000000E+00 0. -1.
        -12    1    4    4    0    0  0.67132027872E+02  0.25859878867E+02 -0.14502571573E+02  0.73387785655E+02  0.00000000000E+00 0.  1.
</event>
<event>
12    1  0.1035051E+000  0.2233392E+03  0.7818608E-02  0.1131758E+00
         21   -1    0    0  501  502  0.00000000000E+00  0.00000000000E+00  0.11836018263E+03  0.11836018263E+03  0.00000000000E+00 0.  1.
         21   -1    0    0  502  503 -0.00000000000E+00 -0.00000000000E+00 -0.48524347438E+03  0.48524347438E+03  0.00000000000E+00 0.  1.
         -6    2    1    2    0  503  0.34866707897E+02 -0.13779189763E+03 -0.71703681651E+02  0.23456732049E+03  0.17227337435E+03 0.  0.
        -24    2    3    3    0    0 -0.42101270004E+02 -0.91800181192E+02 -0.66083881993E+02  0.14460633033E+03  0.79649991271E+02 0.  0.
          6    2    1    2  501    0 -0.34866707897E+02  0.13779189763E+03 -0.29517961010E+03  0.36903633652E+03  0.16986618581E+03 0.  0.
         24    2    5    5    0    0 -0.62330126560E+02  0.33687708154E+02 -0.19224664833E+03  0.22000880132E+03  0.80157298505E+02 0.  0.
          5    1    5    5  501    0  0.27463418663E+02  0.10410418947E+03 -0.10293296176E+03  0.14902753520E+03  0.47000000000E+01 0. -1.
        -11    1    6    6    0    0 -0.32705102446E+02  0.49826002718E+01 -0.16990614600E+03  0.17309693377E+03  0.00000000000E+00 0.  1.
         12    1    6    6    0    0 -0.29625024114E+02  0.28705107882E+02 -0.22340502333E+02  0.46911867547E+02  0.00000000000E+00 0. -1.
         -5    1    3    3    0  503  0.76967977901E+02 -0.45991716435E+02 -0.56197996573E+01  0.89960990163E+02  0.47000000000E+01 0.  1.
         11    1    4    4    0    0 -0.39661158031E+01 -0.11207268107E+02 -0.53209740336E+02  0.54521641571E+02  0.00000000000E+00 0. -1.
        -12    1    4    4    0    0 -0.38135154201E+02 -0.80592913085E+02 -0.12874141657E+02  0.90084688759E+02  0.00000000000E+00 0.  1.
</event>
<event>
12    1  0.1035051E+000  0.1734226E+03  0.7818608E-02  0.1174632E+00
         21   -1    0    0  503  502  0.00000000000E+00  0.00000000000E+00  0.20090840583E+03  0.20090840583E+03  0.00000000000E+00 0.  1.
         21   -1    0    0  501  503 -0.00000000000E+00 -0.00000000000E+00 -0.15008696848E+03  0.15008696848E+03  0.00000000000E+00 0.  1.
          6    2    1    2  501    0 -0.86080177992E+01 -0.18423887485E+02  0.83753386660E+01  0.17362467572E+03  0.17222614239E+03 0.  0.
         24    2    3    3    0    0  0.33327088267E+01  0.50952907652E+02 -0.34585260396E+02  0.91020658099E+02  0.66942618845E+02 0.  0.
         -6    2    1    2    0  502  0.86080177992E+01  0.18423887485E+02  0.42446098684E+02  0.17737069860E+03  0.17101215111E+03 0.  0.
        -24    2    5    5    0    0  0.35982256017E+02  0.16730559255E+02 -0.34492774359E+02  0.95554462655E+02  0.79788905803E+02 0.  0.
          5    1    3    3  501    0 -0.11940726626E+02 -0.69376795137E+02  0.42960599062E+02  0.82604017624E+02  0.47000000000E+01 0. -1.
        -11    1    4    4    0    0  0.16299700087E+02  0.36485041240E+02  0.11017766695E+02  0.41451533629E+02  0.00000000000E+00 0.  1.
         12    1    4    4    0    0 -0.12966991260E+02  0.14467866412E+02 -0.45603027091E+02  0.49569124470E+02  0.00000000000E+00 0. -1.
         -5    1    5    5    0  502 -0.27374238218E+02  0.16933282305E+01  0.76938873043E+02  0.81816235942E+02  0.47000000000E+01 0.  1.
         13    1    6    6    0    0  0.10532281681E+02  0.33920965762E+02 -0.49856136153E+02  0.61214338089E+02  0.00000000000E+00 0. -1.
        -14    1    6    6    0    0  0.25449974336E+02 -0.17190406507E+02  0.15363361794E+02  0.34340124566E+02  0.00000000000E+00 0.  1.
</event>
<event>
12    1  0.1035051E+000  0.1734068E+03  0.7818608E-02  0.1174510E+00
         21   -1    0    0  501  502  0.00000000000E+00  0.00000000000E+00  0.53361020743E+02  0.53361020743E+02  0.00000000000E+00 0.  1.
         21   -1    0    0  502  503 -0.00000000000E+00 -0.00000000000E+00 -0.59910936230E+03  0.59910936230E+03  0.00000000000E+00 0.  1.
         -6    2    1    2    0  503  0.16455890264E+02 -0.16880188027E+01 -0.19050160853E+03  0.25716016974E+03  0.17195012160E+03 0.  0.
        -24    2    3    3    0    0  0.39460186403E+02 -0.19611263234E+01 -0.20916349727E+03  0.22716636505E+03  0.79336224336E+02 0.  0.
          6    2    1    2  501    0 -0.16455890264E+02  0.16880188027E+01 -0.35524673302E+03  0.39531021330E+03  0.17261598328E+03 0.  0.
         24    2    5    5    0    0  0.16780604872E+02  0.47149455654E+02 -0.30186221197E+03  0.31757088002E+03  0.85004758437E+02 0.  0.
          5    1    5    5  501    0 -0.33236495136E+02 -0.45461436851E+02 -0.53384521054E+02  0.77739333272E+02  0.47000000000E+01 0. -1.
        -13    1    6    6    0    0  0.32218617180E+02 -0.13931227799E+02 -0.12439253751E+03  0.12925022936E+03  0.00000000000E+00 0.  1.
         14    1    6    6    0    0 -0.15438012308E+02  0.61080683452E+02 -0.17746967445E+03  0.18832065066E+03  0.00000000000E+00 0. -1.
         -5    1    3    3    0  503 -0.23004296139E+02  0.27310752069E+00  0.18661888740E+02  0.29993804692E+02  0.47000000000E+01 0.  1.
         11    1    4    4    0    0 -0.27986437604E+01  0.29773547538E+02 -0.40019151848E+02  0.49958273134E+02  0.00000000000E+00 0. -1.
        -12    1    4    4    0    0  0.42258830164E+02 -0.31734673861E+02 -0.16914434543E+03  0.17720809192E+03  0.00000000000E+00 0.  1.
</event>
<event>
12    1  0.1035051E+000  0.2428914E+03  0.7818608E-02  0.1118431E+00
         21   -1    0    0  501  502  0.00000000000E+00  0.00000000000E+00  0.35858098418E+03  0.35858098418E+03  0.00000000000E+00 0.  1.
         21   -1    0    0  502  503 -0.00000000000E+00 -0.00000000000E+00 -0.19510071017E+03  0.19510071017E+03  0.00000000000E+00 0.  1.
         -6    2    1    2    0  503 -0.14518851953E+03 -0.92427371289E+02  0.19481219625E+03  0.30877776205E+03  0.16664149953E+03 0.  0.
        -24    2    3    3    0    0 -0.16722800927E+03 -0.67092912029E+02  0.19346128411E+03  0.27484416663E+03  0.75135754150E+02 0.  0.
          6    2    1    2  501    0  0.14518851953E+03  0.92427371289E+02 -0.31331922245E+02  0.24490393230E+03  0.17138763531E+03 0.  0.
         24    2    5    5    0    0  0.17265954470E+02  0.16374127284E+02  0.19383233626E+02  0.87606775269E+02  0.82054933424E+02 0.  0.
          5    1    5    5  501    0  0.12792256506E+03  0.76053244004E+02 -0.50715155871E+02  0.15729715703E+03  0.47000000000E+01 0. -1.
        -13    1    6    6    0    0 -0.13963820554E+02 -0.27710936022E+02  0.11065771955E+02  0.32944431527E+02  0.00000000000E+00 0.  1.
         14    1    6    6    0    0  0.31229775023E+02  0.44085063306E+02  0.83174616703E+01  0.54662343742E+02  0.00000000000E+00 0. -1.
         -5    1    3    3    0  503  0.22039489748E+02 -0.25334459259E+02  0.13509121323E+01  0.33933595417E+02  0.47000000000E+01 0.  1.
         11    1    4    4    0    0 -0.10205280009E+03 -0.78427661322E+02  0.11974553195E+03  0.17579722549E+03  0.00000000000E+00 0. -1.
        -12    1    4    4    0    0 -0.65175209182E+02  0.11334749293E+02  0.73715752166E+02  0.99046941148E+02  0.00000000000E+00 0.  1.
</event>
<event>
12    1  0.1035051E+000  0.1754620E+03  0.7818608E-02  0.1172302E+00
         21   -1    0    0  501  502  0.00000000000E+00  0.00000000000E+00  0.28378610714E+03  0.28378610714E+03  0.00000000000E+00 0.  1.
         21   -1    0    0  502  503 -0.00000000000E+00 -0.00000000000E+00 -0.12302644701E+03  0.12302644701E+03  0.00000000000E+00 0.  1.
         -6    2    1    2    0  503 -0.27203532398E+02 -0.67405588558E+01  0.15047650796E+03  0.23104946971E+03  0.17307573687E+03 0.  0.
        -24    2    3    3    0    0 -0.64580877236E+02  0.56211352219E+01  0.16017795292E+03  0.19023176005E+03  0.79554126614E+02 0.  0.
          6    2    1    2  501    0  0.27203532398E+02  0.67405588558E+01  0.10283152161E+02  0.17576308444E+03  0.17320927032E+03 0.  0.
         24    2    5    5    0    0  0.23006752160E+01  0.11561347080E+01  0.72910069382E+02  0.10797253311E+03  0.79596230659E+02 0.  0.
          5    1    5    5  501    0  0.24902857182E+02  0.55844241477E+01 -0.62626917221E+02  0.67790551329E+02  0.47000000000E+01 0. -1.
        -13    1    6    6    0    0 -0.70388889543E+00  0.31123988729E+02  0.71312884312E+02  0.77812117327E+02  0.00000000000E+00 0.  1.
         14    1    6    6    0    0  0.30045641115E+01 -0.29967854021E+02  0.15971850703E+01  0.30160415784E+02  0.00000000000E+00 0. -1.
         -5    1    3    3    0  503  0.37377344838E+02 -0.12361694078E+02 -0.97014449586E+01  0.40817709660E+02  0.47000000000E+01 0.  1.
         11    1    4    4    0    0  0.52263808617E+01 -0.23176441496E+02  0.61826942468E+02  0.66234683605E+02  0.00000000000E+00 0. -1.
        -12    1    4    4    0    0 -0.69807258098E+02  0.28797576718E+02  0.98351010455E+02  0.12399707644E+03  0.00000000000E+00 0.  1.
</event>
<event>
12    1  0.1035051E+000  0.1766141E+03  0.7818608E-02  0.1171482E+00
         21   -1    0    0  503  502  0.00000000000E+00  0.00000000000E+00  0.22026195627E+03  0.22026195627E+03  0.00000000000E+00 0. -1.
         21   -1    0    0  501  503 -0.00000000000E+00 -0.00000000000E+00 -0.25086393858E+03  0.25086393858E+03  0.00000000000E+00 0. -1.
          6    2    1    2  501    0 -0.32058736718E+02  0.63287311880E+01  0.14100747840E+03  0.22486925364E+03  0.17209083889E+03 0.  0.
         24    2    3    3    0    0 -0.25809599263E+02  0.49635290594E+02  0.15162023722E+03  0.17960082693E+03  0.78345154361E+02 0.  0.
         -6    2    1    2    0  502  0.32058736718E+02 -0.63287311880E+01 -0.17160946070E+03  0.24625664121E+03  0.17356471675E+03 0.  0.
        -24    2    5    5    0    0  0.59434416899E+02 -0.58925158380E+02 -0.12082688873E+03  0.16804684877E+03  0.81461537775E+02 0.  0.
          5    1    3    3  501    0 -0.62491374545E+01 -0.43306559406E+02 -0.10612758827E+02  0.45268426706E+02  0.47000000000E+01 0. -1.
        -13    1    4    4    0    0 -0.22361221861E+02 -0.27483640464E+01  0.39453065809E+01  0.22872323714E+02  0.00000000000E+00 0.  1.
         14    1    4    4    0    0 -0.34483774018E+01  0.52383654640E+02  0.14767493064E+03  0.15672850322E+03  0.00000000000E+00 0. -1.
         -5    1    5    5    0  502 -0.27375680181E+02  0.52596427192E+02 -0.50782571966E+02  0.78209792445E+02  0.47000000000E+01 0.  1.
         11    1    6    6    0    0 -0.21167790602E+01 -0.37488251763E+02 -0.86687061342E+02  0.94469552650E+02  0.00000000000E+00 0. -1.
        -12    1    6    6    0    0  0.61551195959E+02 -0.21436906617E+02 -0.34139827393E+02  0.73577296116E+02  0.00000000000E+00 0.  1.
</event>
<event>
12    1  0.1035051E+000  0.1796106E+03  0.7818608E-02  0.1168220E+00
         21   -1    0    0  503  502  0.00000000000E+00  0.00000000000E+00  0.78333462800E+02  0.78333462800E+02  0.00000000000E+00 0.  1.
         21   -1    0    0  501  503 -0.00000000000E+00 -0.00000000000E+00 -0.41638199419E+03  0.41638199419E+03  0.00000000000E+00 0.  1.
          6    2    1    2  501    0 -0.29779395829E+01 -0.49495999582E+02 -0.19584443207E+03  0.26562598741E+03  0.17246275400E+03 0.  0.
         24    2    3    3    0    0  0.30844608688E+01 -0.28808677400E+02 -0.32021640274E+02  0.10032409659E+03  0.90554321363E+02 0.  0.
         -6    2    1    2    0  502  0.29779395829E+01  0.49495999582E+02 -0.14220409932E+03  0.22908946958E+03  0.17263040610E+03 0.  0.
        -24    2    5    5    0    0  0.30725417203E+02  0.92099602361E+02 -0.12180629811E+03  0.17410629235E+03  0.77780709432E+02 0.  0.
          5    1    3    3  501    0 -0.60624004517E+01 -0.20687322182E+02 -0.16382279180E+03  0.16530189083E+03  0.47000000000E+01 0. -1.
        -13    1    4    4    0    0 -0.16136695545E+02  0.29260452741E+02 -0.16245063169E+02  0.37154664782E+02  0.00000000000E+00 0.  1.
         14    1    4    4    0    0  0.19221156414E+02 -0.58069130141E+02 -0.15776577105E+02  0.63169431803E+02  0.00000000000E+00 0. -1.
         -5    1    5    5    0  502 -0.27747477621E+02 -0.42603602779E+02 -0.20397801209E+02  0.54983177229E+02  0.47000000000E+01 0.  1.
         13    1    6    6    0    0 -0.17198698423E+02  0.90527577282E+01 -0.44778900053E+00  0.19440888995E+02  0.00000000000E+00 0. -1.
        -14    1    6    6    0    0  0.47924115626E+02  0.83046844633E+02 -0.12135850911E+03  0.15466540336E+03  0.00000000000E+00 0.  1.
</event>
<event>
12    1  0.1035051E+000  0.2433954E+03  0.7818608E-02  0.1117662E+00
         21   -1    0    0  503  502  0.00000000000E+00  0.00000000000E+00  0.12137430152E+04  0.12137430152E+04  0.00000000000E+00 0.  1.
         21   -1    0    0  501  503 -0.00000000000E+00 -0.00000000000E+00 -0.55425241343E+02  0.55425241343E+02  0.00000000000E+00 0. -1.
          6    2    1    2  501    0 -0.49749326904E+02  0.16435710034E+03  0.80136391955E+03  0.83751146371E+03  0.17249077755E+03 0.  0.
         24    2    3    3    0    0 -0.56654709752E+01  0.44748552136E+02  0.52647556456E+03  0.53446808585E+03  0.80281281982E+02 0.  0.
         -6    2    1    2    0  502  0.49749326904E+02 -0.16435710034E+03  0.35695385427E+03  0.43165679279E+03  0.17153215653E+03 0.  0.
        -24    2    5    5    0    0  0.66011551801E+02 -0.76286124961E+02  0.11153690816E+03  0.17036667797E+03  0.80045145069E+02 0.  0.
          5    1    3    3  501    0 -0.44083855929E+02  0.11960854821E+03  0.27488835499E+03  0.30304337786E+03  0.47000000000E+01 0. -1.
        -11    1    4    4    0    0  0.14796475166E+02  0.62275429307E+02  0.32962968422E+03  0.33578697636E+03  0.00000000000E+00 0.  1.
         12    1    4    4    0    0 -0.20461946141E+02 -0.17526877171E+02  0.19684588034E+03  0.19868110949E+03  0.00000000000E+00 0. -1.
         -5    1    5    5    0  502 -0.16262224896E+02 -0.88070975382E+02  0.24541694611E+03  0.26129011482E+03  0.47000000000E+01 0.  1.
         11    1    6    6    0    0 -0.29744541609E+01  0.11394196259E+02  0.29861553557E+02  0.32099649014E+02  0.00000000000E+00 0. -1.
        -12    1    6    6    0    0  0.68986005961E+02 -0.87680321220E+02  0.81675354604E+02  0.13826702896E+03  0.00000000000E+00 0.  1.
</event>
<event>
12    1  0.1035051E+000  0.1855205E+03  0.7818608E-02  0.1164393E+00
         21   -1    0    0  503  502  0.00000000000E+00  0.00000000000E+00  0.23206517524E+03  0.23206517524E+03  0.00000000000E+00 0. -1.
         21   -1    0    0  501  503 -0.00000000000E+00 -0.00000000000E+00 -0.15020324646E+03  0.15020324646E+03  0.00000000000E+00 0. -1.
          6    2    1    2  501    0 -0.47186379539E+02 -0.66989781375E+01 -0.39150606691E+01  0.17787773357E+03  0.17132930186E+03 0.  0.
         24    2    3    3    0    0 -0.41493279695E+02 -0.65715325421E+02 -0.21956914247E+02  0.11572518645E+03  0.82885562318E+02 0.  0.
         -6    2    1    2    0  502  0.47186379539E+02  0.66989781375E+01  0.85776989450E+02  0.20439068814E+03  0.17929425746E+03 0.  0.
        -24    2    5    5    0    0  0.67719512046E+02  0.61129987689E+02  0.79688480162E+02  0.14570930884E+03  0.80982350580E+02 0.  0.
          5    1    3    3  501    0 -0.56930998445E+01  0.59016347283E+02  0.18041853578E+02  0.62152547116E+02  0.47000000000E+01 0. -1.
        -11    1    4    4    0    0 -0.56893228379E+02 -0.14383764603E+02 -0.20341965757E+02  0.62108998466E+02  0.00000000000E+00 0.  1.
         12    1    4    4    0    0  0.15399948684E+02 -0.51331560818E+02 -0.16149484902E+01  0.53616187985E+02  0.00000000000E+00 0. -1.
         -5    1    5    5    0  502 -0.20533132506E+02 -0.54431009552E+02  0.60885092880E+01  0.58681379301E+02  0.47000000000E+01 0.  1.
         11    1    6    6    0    0  0.82964781350E+02  0.41118221683E+02  0.76964201044E+02  0.12040494733E+03  0.00000000000E+00 0. -1.
        -12    1    6    6    0    0 -0.15245269304E+02  0.20011766006E+02  0.27242791186E+01  0.25304361512E+02  0.00000000000E+00 0.  1.
</event>
<event>
12    1  0.1035051E+000  0.2626658E+03  0.7818608E-02  0.1105952E+00
         21   -1    0    0  503  502  0.00000000000E+00  0.00000000000E+00  0.16560824912E+03  0.16560824912E+03  0.00000000000E+00 0. -1.
         21   -1    0    0  501  503 -0.00000000000E+00 -0.00000000000E+00 -0.84793613613E+03  0.84793613613E+03  0.00000000000E+00 0. -1.
          6    2    1    2  501    0 -0.19237572839E+03  0.40734929965E+02 -0.70352312678E+03  0.75002486081E+03  0.17007276835E+03 0.  0.
         24    2    3    3    0    0 -0.56882337385E+02 -0.31990524623E+02 -0.34056360886E+03  0.35580518551E+03  0.79716776038E+02 0.  0.
         -6    2    1    2    0  502  0.19237572839E+03 -0.40734929965E+02  0.21195239769E+02  0.26351952443E+03  0.17414231587E+03 0.  0.
        -24    2    5    5    0    0  0.42182780609E+02  0.28361802186E+02 -0.10965833571E+02  0.95030045252E+02  0.79540437461E+02 0.  0.
          5    1    3    3  501    0 -0.13549339100E+03  0.72725454588E+02 -0.36295951792E+03  0.39421967531E+03  0.47000000000E+01 0. -1.
        -13    1    4    4    0    0 -0.57388714962E+02 -0.49877779345E+02 -0.31822796775E+03  0.32718541676E+03  0.00000000000E+00 0.  1.
         14    1    4    4    0    0  0.50637757700E+00  0.17887254722E+02 -0.22335641107E+02  0.28619768752E+02  0.00000000000E+00 0. -1.
         -5    1    5    5    0  502  0.15019294778E+03 -0.69096732151E+02  0.32161073340E+02  0.16848947918E+03  0.47000000000E+01 0.  1.
         11    1    6    6    0    0 -0.13301644853E+02  0.31450614257E+02  0.10085341489E+02  0.35606024854E+02  0.00000000000E+00 0. -1.
        -12    1    6    6    0    0  0.55484425462E+02 -0.30888120706E+01 -0.21051175060E+02  0.59424020398E+02  0.00000000000E+00 0.  1.
</event>
<event>
12    1  0.1035051E+000  0.1812425E+03  0.7818608E-02  0.1167161E+00
         21   -1    0    0  503  502  0.00000000000E+00  0.00000000000E+00  0.42362111822E+03  0.42362111822E+03  0.00000000000E+00 0.  1.
         21   -1    0    0  501  503 -0.00000000000E+00 -0.00000000000E+00 -0.79268462746E+02  0.79268462746E+02  0.00000000000E+00 0. -1.
          6    2    1    2  501    0 -0.46206566983E+02  0.29432309051E+02  0.12677625800E+03  0.22118106185E+03  0.17276439124E+03 0.  0.
         24    2    3    3    0    0  0.29377631978E+02  0.44279207392E+02  0.10307653043E+03  0.14045207938E+03  0.79235863154E+02 0.  0.
         -6    2    1    2    0  502  0.46206566983E+02 -0.29432309051E+02  0.21757639748E+03  0.28170851912E+03  0.17034932744E+03 0.  0.
        -24    2    5    5    0    0  0.57858843654E+02  0.57977749762E+01  0.22288048319E+03  0.24393077836E+03  0.80282344635E+02 0.  0.
          5    1    3    3  501    0 -0.75584198960E+02 -0.14846898341E+02  0.23699727569E+02  0.80728982464E+02  0.47000000000E+01 0. -1.
        -13    1    4    4    0    0  0.39652312494E+02  0.30584027288E+02  0.17295959980E+02  0.52979607802E+02  0.00000000000E+00 0.  1.
         14    1    4    4    0    0 -0.10274680516E+02  0.13695180104E+02  0.85780570450E+02  0.87472471581E+02  0.00000000000E+00 0. -1.
         -5    1    5    5    0  502 -0.11652276671E+02 -0.35230084027E+02 -0.53040857091E+01  0.37777740766E+02  0.47000000000E+01 0.  1.
         13    1    6    6    0    0  0.57528961249E+02 -0.24536986984E+01  0.69178181022E+02  0.90006792795E+02  0.00000000000E+00 0. -1.
        -14    1    6    6    0    0  0.32988240445E+00  0.82514736746E+01  0.15370230216E+03  0.15392398556E+03  0.00000000000E+00 0.  1.
</event>
<event>
12    1  0.1035051E+000  0.1894797E+03  0.7818608E-02  0.1159084E+00
         21   -1    0    0  501  502  0.00000000000E+00  0.00000000000E+00  0.12571262392E+03  0.12571262392E+03  0.00000000000E+00 0. -1.
         21   -1    0    0  502  503 -0.00000000000E+00 -0.00000000000E+00 -0.31307638560E+03  0.31307638560E+03  0.00000000000E+00 0. -1.
         -6    2    1    2    0  503 -0.70727044488E+02 -0.29203164816E+02 -0.15972437984E+03  0.24730408341E+03  0.17260443939E+03 0.  0.
        -24    2    3    3    0    0  0.63183413233E+01  0.34783224757E+02 -0.60445774542E+02  0.10620631236E+03  0.79851706076E+02 0.  0.
          6    2    1    2  501    0  0.70727044488E+02  0.29203164816E+02 -0.27639381842E+02  0.19148492611E+03  0.17334186407E+03 0.  0.
         24    2    5    5    0    0  0.70877252156E+01 -0.35726750846E+02  0.14920692610E+02  0.90989618540E+02  0.82035644932E+02 0.  0.
          5    1    5    5  501    0  0.63639319272E+02  0.64929915662E+02 -0.42560074452E+02  0.10049530757E+03  0.47000000000E+01 0. -1.
        -11    1    6    6    0    0  0.32788624977E+02 -0.49013861824E+02  0.18577636192E+02  0.61827026010E+02  0.00000000000E+00 0.  1.
         12    1    6    6    0    0 -0.25700899762E+02  0.13287110978E+02 -0.36569435829E+01  0.29162592530E+02  0.00000000000E+00 0. -1.
         -5    1    3    3    0  503 -0.77045385811E+02 -0.63986389573E+02 -0.99278605303E+02  0.14109777105E+03  0.47000000000E+01 0.  1.
         11    1    4    4    0    0  0.41185973442E+02  0.90958614682E+01 -0.18994803528E+02  0.46258206464E+02  0.00000000000E+00 0. -1.
        -12    1    4    4    0    0 -0.34867632119E+02  0.25687363289E+02 -0.41450971013E+02  0.59948105894E+02  0.00000000000E+00 0.  1.
</event>
<event>
12    1  0.1035051E+000  0.1734467E+03  0.7818608E-02  0.1174334E+00
         21   -1    0    0  503  502  0.00000000000E+00  0.00000000000E+00  0.37602825450E+03  0.37602825450E+03  0.00000000000E+00 0.  1.
         21   -1    0    0  501  503 -0.00000000000E+00 -0.00000000000E+00 -0.92692331920E+02  0.92692331920E+02  0.00000000000E+00 0.  1.
          6    2    1    2  501    0  0.41714161530E+01  0.15860891413E+02  0.54798989344E+02  0.18189749228E+03  0.17266962639E+03 0.  0.
         24    2    3    3    0    0 -0.21802714724E+02  0.90713449572E+01  0.10029150518E+03  0.12886530948E+03  0.77396603984E+02 0.  0.
         -6    2    1    2    0  502 -0.41714161530E+01 -0.15860891413E+02  0.22853693324E+03  0.28682309414E+03  0.17253807953E+03 0.  0.
        -24    2    5    5    0    0 -0.18379862317E+02 -0.17171220873E+01  0.24619609586E+03  0.25969631443E+03  0.80553648364E+02 0.  0.
          5    1    3    3  501    0  0.25974130877E+02  0.67895464562E+01 -0.45492515833E+02  0.53032182802E+02  0.47000000000E+01 0. -1.
        -11    1    4    4    0    0  0.14300848513E+01  0.36010581448E+02  0.80400727304E+02  0.88108365493E+02  0.00000000000E+00 0.  1.
         12    1    4    4    0    0 -0.23232799575E+02 -0.26939236491E+02  0.19890777873E+02  0.40756943987E+02  0.00000000000E+00 0. -1.
         -5    1    5    5    0  502  0.14208446164E+02 -0.14143769326E+02 -0.17659162619E+02  0.27126779712E+02  0.47000000000E+01 0.  1.
         11    1    6    6    0    0  0.83038757237E+00  0.37211118133E+02  0.85710297746E+02  0.93443094961E+02  0.00000000000E+00 0. -1.
        -12    1    6    6    0    0 -0.19210249889E+02 -0.38928240220E+02  0.16048579811E+03  0.16625321946E+03  0.00000000000E+00 0.  1.
</event>
<event>
12    1  0.1035051E+000  0.2497918E+03  0.7818608E-02  0.1113576E+00
         21   -1    0    0  503  502  0.00000000000E+00  0.00000000000E+00  0.47603793490E+03  0.47603793490E+03  0.00000000000E+00 0.  1.
         21   -1    0    0  501  503 -0.00000000000E+00 -0.00000000000E+00 -0.13239097018E+03  0.13239097018E+03  0.00000000000E+00 0.  1.
          6    2    1    2  501    0  0.16801948239E+03  0.62244160320E+02  0.20738988455E+03  0.32466365737E+03  0.17404322522E+03 0.  0.
         24    2    3    3    0    0  0.31393260660E+02  0.27377799703E+01  0.27035326275E+02  0.90660258978E+02  0.80593681124E+02 0.  0.
         -6    2    1    2    0  502 -0.16801948239E+03 -0.62244160320E+02  0.13625708017E+03  0.28376524770E+03  0.17277685595E+03 0.  0.
        -24    2    5    5    0    0 -0.13368821001E+03 -0.38116222737E+02  0.16693414868E+03  0.23157361842E+03  0.80211887020E+02 0.  0.
          5    1    3    3  501    0  0.13662622173E+03  0.59506380350E+02  0.18035455828E+03  0.23400339839E+03  0.47000000000E+01 0. -1.
        -13    1    4    4    0    0  0.51158441841E+02 -0.19748637786E+02  0.26037340146E+02  0.60705337062E+02  0.00000000000E+00 0.  1.
         14    1    4    4    0    0 -0.19765181181E+02  0.22486417756E+02  0.99798612966E+00  0.29954921915E+02  0.00000000000E+00 0. -1.
         -5    1    5    5    0  502 -0.34331272380E+02 -0.24127937583E+02 -0.30677068510E+02  0.52191629287E+02  0.47000000000E+01 0.  1.
         11    1    6    6    0    0 -0.94940806723E+02  0.15165806721E+01  0.63513451715E+02  0.11423666376E+03  0.00000000000E+00 0. -1.
        -12    1    6    6    0    0 -0.38747403290E+02 -0.39632803409E+02  0.10342069697E+03  0.11733695466E+03  0.00000000000E+00 0.  1.
</event>
<event>
12    1  0.1035051E+000  0.1846572E+03  0.7818608E-02  0.1163408E+00
         21   -1    0    0  501  502  0.00000000000E+00  0.00000000000E+00  0.33266862971E+03  0.33266862971E+03  0.00000000000E+00 0. -1.
         21   -1    0    0  502  503 -0.00000000000E+00 -0.00000000000E+00 -0.25365897777E+03  0.25365897777E+03  0.00000000000E+00 0. -1.
         -6    2    1    2    0  503  0.87041085389E+00 -0.68482717564E+02  0.26588884117E+03  0.32372079297E+03  0.17148654676E+03 0.  0.
        -24    2    3    3    0    0  0.23728130702E+02  0.26416381059E+02  0.13469279789E+03  0.16012737608E+03  0.78979601112E+02 0.  0.
          6    2    1    2  501    0 -0.87041085389E+00  0.68482717564E+02 -0.18687918923E+03  0.26260681452E+03  0.17131219293E+03 0.  0.
         24    2    5    5    0    0 -0.17432729195E+02  0.64606089258E+02 -0.36045025683E+02  0.11074380543E+03  0.80542533788E+02 0.  0.
          5    1    5    5  501    0  0.16562318341E+02  0.38766283058E+01 -0.15083416355E+03  0.15186300909E+03  0.47000000000E+01 0. -1.
        -11    1    6    6    0    0  0.15940855948E+02 -0.58006773203E+01 -0.27566612296E+02  0.32367836802E+02  0.00000000000E+00 0.  1.
         12    1    6    6    0    0 -0.33373585144E+02  0.70406766579E+02 -0.84784133870E+01  0.78375968632E+02  0.00000000000E+00 0. -1.
         -5    1    3    3    0  503 -0.22857719848E+02 -0.94899098623E+02  0.13119604328E+03  0.16359341689E+03  0.47000000000E+01 0.  1.
         11    1    4    4    0    0  0.46705746179E+02 -0.57261385989E+01  0.71174984758E+02  0.85323465968E+02  0.00000000000E+00 0. -1.
        -12    1    4    4    0    0 -0.22977615477E+02  0.32142519658E+02  0.63517813131E+02  0.74803910111E+02  0.00000000000E+00 0.  1.
</event>
<event>
12    1  0.1035051E+000  0.5426724E+03  0.7818608E-02  0.1003239E+00
         21   -1    0    0  503  502  0.00000000000E+00  0.00000000000E+00  0.70713182244E+03  0.70713182244E+03  0.00000000000E+00 0. -1.
         21   -1    0    0  501  503 -0.00000000000E+00 -0.00000000000E+00 -0.43437025939E+03  0.43437025939E+03  0.00000000000E+00 0. -1.
          6    2    1    2  501    0 -0.49034664353E+03 -0.15549094948E+03  0.25377813127E+03  0.59907983103E+03  0.17284686238E+03 0.  0.
         24    2    3    3    0    0 -0.49347988274E+03 -0.16485631736E+03  0.25656184146E+03  0.58779416110E+03  0.94752294363E+02 0.  0.
         -6    2    1    2    0  502  0.49034664353E+03  0.15549094948E+03  0.18983431778E+02  0.54242225081E+03  0.17100953568E+03 0.  0.
        -24    2    5    5    0    0  0.25462176120E+03  0.12136528979E+03  0.63701244993E+02  0.30003299028E+03  0.80001073741E+02 0.  0.
          5    1    3    3  501    0  0.31332392021E+01  0.93653678754E+01 -0.27837101920E+01  0.11285669930E+02  0.47000000000E+01 0. -1.
        -11    1    4    4    0    0 -0.38445463373E+03 -0.13557705878E+03  0.15560574126E+03  0.43634808465E+03  0.00000000000E+00 0.  1.
         12    1    4    4    0    0 -0.10902524901E+03 -0.29279258581E+02  0.10095610020E+03  0.15144607645E+03  0.00000000000E+00 0. -1.
         -5    1    5    5    0  502  0.23572488234E+03  0.34125659695E+02 -0.44717813215E+02  0.24238926053E+03  0.47000000000E+01 0.  1.
         11    1    6    6    0    0  0.19961049086E+03  0.12713714190E+03  0.40731582788E+02  0.24014008984E+03  0.00000000000E+00 0. -1.
        -12    1    6    6    0    0  0.55011270333E+02 -0.57718521111E+01  0.22969662205E+02  0.59892900433E+02  0.00000000000E+00 0.  1.
</event>
<event>
12    1  0.1035051E+000  0.2823932E+03  0.7818608E-02  0.1094671E+00
         21   -1    0    0  503  502  0.00000000000E+00  0.00000000000E+00  0.20946390911E+04  0.20946390911E+04  0.00000000000E+00 0. -1.
         21   -1    0    0  501  503 -0.00000000000E+00 -0.00000000000E+00 -0.38367453025E+02  0.38367453025E+02  0.00000000000E+00 0. -1.
          6    2    1    2  501    0 -0.18606271457E+03 -0.11852485328E+03  0.89368731854E+03  0.93661687651E+03  0.17293546612E+03 0.  0.
         24    2    3    3    0    0 -0.38085528958E+02 -0.44656058691E+02  0.19521750331E+03  0.21881744835E+03  0.79539493399E+02 0.  0.
         -6    2    1    2    0  502  0.18606271457E+03  0.11852485328E+03  0.11625843195E+04  0.11963896676E+04  0.17629084534E+03 0.  0.
        -24    2    5    5    0    0  0.16194461210E+03  0.44215110722E+02  0.98175455724E+03  0.99934877431E+03  0.81700236426E+02 0.  0.
          5    1    3    3  501    0 -0.14797718561E+03 -0.73868794586E+02  0.69846981524E+03  0.71779942816E+03  0.47000000000E+01 0. -1.
        -13    1    4    4    0    0 -0.91732807064E+01 -0.17804400494E+01  0.14950474327E+03  0.14979648629E+03  0.00000000000E+00 0.  1.
         14    1    4    4    0    0 -0.28912248252E+02 -0.42875618642E+02  0.45712760041E+02  0.69020962058E+02  0.00000000000E+00 0. -1.
         -5    1    5    5    0  502  0.24118102468E+02  0.74309742555E+02  0.18082976226E+03  0.19704089328E+03  0.47000000000E+01 0.  1.
         11    1    6    6    0    0  0.92852591245E+02 -0.14747816092E+02  0.56932059471E+03  0.57703123082E+03  0.00000000000E+00 0. -1.
        -12    1    6    6    0    0  0.69092020857E+02  0.58962926814E+02  0.41243396253E+03  0.42231754349E+03  0.00000000000E+00 0.  1.
</event>
<event>
12    1  0.1035051E+000  0.2059065E+03  0.7818608E-02  0.1145330E+00
         21   -1    0    0  501  502  0.00000000000E+00  0.00000000000E+00  0.11154541508E+04  0.11154541508E+04  0.00000000000E+00 0. -1.
         21   -1    0    0  502  503 -0.00000000000E+00 -0.00000000000E+00 -0.39876480116E+02  0.39876480116E+02  0.00000000000E+00 0. -1.
         -6    2    1    2    0  503 -0.10162744243E+03 -0.36024509738E+02  0.67362292631E+03  0.70370569130E+03  0.17264979223E+03 0.  0.
        -24    2    3    3    0    0 -0.69594710965E+02 -0.64577578005E+02  0.63090033823E+03  0.64297116137E+03  0.79768353417E+02 0.  0.
          6    2    1    2  501    0  0.10162744243E+03  0.36024509738E+02  0.40195474435E+03  0.45162493959E+03  0.17541826359E+03 0.  0.
         24    2    5    5    0    0 -0.35457765720E+01 -0.21367314716E+02  0.20507023416E+03  0.22110199527E+03  0.79769397024E+02 0.  0.
          5    1    5    5  501    0  0.10517321900E+03  0.57391824454E+02  0.19688451018E+03  0.23052294432E+03  0.47000000000E+01 0. -1.
        -11    1    6    6    0    0  0.11053887807E+02 -0.21370848682E+02  0.20509583517E+03  0.20650230801E+03  0.00000000000E+00 0.  1.
         12    1    6    6    0    0 -0.14599664379E+02  0.35339666589E-02 -0.25601011471E-01  0.14599687253E+02  0.00000000000E+00 0. -1.
         -5    1    3    3    0  503 -0.32032731468E+02  0.28553068267E+02  0.42722588085E+02  0.60734529927E+02  0.47000000000E+01 0.  1.
         13    1    4    4    0    0 -0.56437421981E+02  0.16679195254E+01  0.28586328257E+03  0.29138596548E+03  0.00000000000E+00 0. -1.
        -14    1    4    4    0    0 -0.13157288984E+02 -0.66245497530E+02  0.34503705566E+03  0.35158519589E+03  0.00000000000E+00 0.  1.
</event>
<event>
12    1  0.1035051E+000  0.2854963E+03  0.7818608E-02  0.1093147E+00
         21   -1    0    0  501  502  0.00000000000E+00  0.00000000000E+00  0.15107946587E+03  0.15107946587E+03  0.00000000000E+00 0.  1.
         21   -1    0    0  502  503 -0.00000000000E+00 -0.00000000000E+00 -0.58546884571E+03  0.58546884571E+03  0.00000000000E+00 0.  1.
         -6    2    1    2    0  503  0.22378289301E+03 -0.44684487050E+02 -0.32795404584E+03  0.43481261727E+03  0.17155952135E+03 0.  0.
        -24    2    3    3    0    0  0.59917600025E+02  0.48828170721E+01 -0.59468638717E+02  0.11635499729E+03  0.79925000526E+02 0.  0.
          6    2    1    2  501    0 -0.22378289301E+03  0.44684487050E+02 -0.10643533400E+03  0.30173569432E+03  0.16625420992E+03 0.  0.
         24    2    5    5    0    0 -0.79225777763E+02  0.63549102052E+01  0.11016314360E+02  0.11151767274E+03  0.77444970177E+02 0.  0.
          5    1    5    5  501    0 -0.14455711525E+03  0.38329576845E+02 -0.11745164836E+03  0.19021802158E+03  0.47000000000E+01 0. -1.
        -13    1    6    6    0    0 -0.51917651022E+01 -0.19830794971E+02 -0.18512212746E+02  0.27620949926E+02  0.00000000000E+00 0.  1.
         14    1    6    6    0    0 -0.74034012660E+02  0.26185705176E+02  0.29528527106E+02  0.83896722816E+02  0.00000000000E+00 0. -1.
         -5    1    3    3    0  503  0.16386529298E+03 -0.49567304122E+02 -0.26848540712E+03  0.31845761997E+03  0.47000000000E+01 0.  1.
         11    1    4    4    0    0  0.76429704497E+02  0.18451521427E+02 -0.46001147371E+02  0.91093709617E+02  0.00000000000E+00 0. -1.
        -12    1    4    4    0    0 -0.16512104471E+02 -0.13568704355E+02 -0.13467491347E+02  0.25261287677E+02  0.00000000000E+00 0.  1.
</event>
<event>
12    1  0.1035051E+000  0.2155818E+03  0.7818608E-02  0.1137321E+00
         21   -1    0    0  501  502  0.00000000000E+00  0.00000000000E+00  0.43937800950E+03  0.43937800950E+03  0.00000000000E+00 0.  1.
         21   -1    0    0  502  503 -0.00000000000E+00 -0.00000000000E+00 -0.10660654888E+03  0.10660654888E+03  0.00000000000E+00 0.  1.
         -6    2    1    2    0  503  0.11403248462E+03 -0.62962400266E+02  0.13861194475E+03  0.25585801096E+03  0.17112094889E+03 0.  0.
        -24    2    3    3    0    0  0.28504423511E+02 -0.90332591782E+02  0.66687003834E+02  0.14070826608E+03  0.79869771282E+02 0.  0.
          6    2    1    2  501    0 -0.11403248462E+03  0.62962400266E+02  0.19415951588E+03  0.29012654742E+03  0.17177841691E+03 0.  0.
         24    2    5    5    0    0 -0.29748434171E+02  0.67586962554E+02  0.15901731433E+03  0.19857190763E+03  0.93227299652E+02 0.  0.
          5    1    5    5  501    0 -0.84284050451E+02 -0.46245622873E+01  0.35142201544E+02  0.91554639784E+02  0.47000000000E+01 0. -1.
        -11    1    6    6    0    0  0.32999059603E+02  0.12090923372E+02  0.45451809638E+02  0.57454289327E+02  0.00000000000E+00 0.  1.
         12    1    6    6    0    0 -0.62747493774E+02  0.55496039182E+02  0.11356550469E+03  0.14111761830E+03  0.00000000000E+00 0. -1.
         -5    1    3    3    0  503  0.85528061110E+02  0.27370191516E+02  0.71924940913E+02  0.11514974488E+03  0.47000000000E+01 0.  1.
         11    1    4    4    0    0  0.12176848107E+02 -0.43964653244E+02  0.77911027571E+02  0.90284520167E+02  0.00000000000E+00 0. -1.
        -12    1    4    4    0    0  0.16327575405E+02 -0.46367938539E+02 -0.11224023737E+02  0.50423745912E+02  0.00000000000E+00 0.  1.
</event>
<event>
12    1  0.1035051E+000  0.1916675E+03  0.7818608E-02  0.1157132E+00
         21   -1    0    0  503  502  0.00000000000E+00  0.00000000000E+00  0.68636356436E+02  0.68636356436E+02  0.00000000000E+00 0.  1.
         21   -1    0    0  501  503 -0.00000000000E+00 -0.00000000000E+00 -0.59379532024E+03  0.59379532024E+03  0.00000000000E+00 0.  1.
          6    2    1    2  501    0 -0.74440322235E+02  0.39130658734E+02 -0.15627813832E+03  0.24672805921E+03  0.17140393420E+03 0.  0.
         24    2    3    3    0    0 -0.23792636834E+02  0.49397983767E+02 -0.16797023660E+03  0.19353594361E+03  0.78967782780E+02 0.  0.
         -6    2    1    2    0  502  0.74440322235E+02 -0.39130658734E+02 -0.36888082548E+03  0.41570361746E+03  0.17223200670E+03 0.  0.
        -24    2    5    5    0    0  0.78481175583E+02 -0.18325052301E+02 -0.11884711426E+03  0.16472921936E+03  0.80721599834E+02 0.  0.
          5    1    3    3  501    0 -0.50647685400E+02 -0.10267325033E+02  0.11692098286E+02  0.53192115600E+02  0.47000000000E+01 0. -1.
        -13    1    4    4    0    0 -0.21125077819E+02  0.61148621353E+02 -0.71933867427E+02  0.96746597300E+02  0.00000000000E+00 0.  1.
         14    1    4    4    0    0 -0.26675590156E+01 -0.11750637586E+02 -0.96036369177E+02  0.96789346312E+02  0.00000000000E+00 0. -1.
         -5    1    5    5    0  502 -0.40408533485E+01 -0.20805606433E+02 -0.25003371122E+03  0.25097439810E+03  0.47000000000E+01 0.  1.
         13    1    6    6    0    0  0.26275073528E+02 -0.29355744409E+02 -0.10108617384E+03  0.10849218294E+03  0.00000000000E+00 0. -1.
        -14    1    6    6    0    0  0.52206102055E+02  0.11030692108E+02 -0.17760940423E+02  0.56237036416E+02  0.00000000000E+00 0.  1.
</event>
<event>
12    1  0.1035051E+000  0.7244181E+03  0.7818608E-02  0.9676494E-01
         21   -1    0    0  503  502  0.00000000000E+00  0.00000000000E+00  0.79566441931E+03  0.79566441931E+03  0.00000000000E+00 0. -1.
         21   -1    0    0  501  503 -0.00000000000E+00 -0.00000000000E+00 -0.90802207876E+03  0.90802207876E+03  0.00000000000E+00 0.  1.
          6    2    1    2  501    0  0.54440904283E+03  0.44574647854E+03  0.38969722213E+03  0.82230084509E+03  0.17100767777E+03 0.  0.
         24    2    3    3    0    0  0.15369326956E+03  0.17604540892E+03  0.16641665230E+03  0.29763544190E+03  0.79238544945E+02 0.  0.
         -6    2    1    2    0  502 -0.54440904283E+03 -0.44574647854E+03 -0.50205488158E+03  0.88138565298E+03  0.17236715499E+03 0.  0.
        -24    2    5    5    0    0 -0.38077642077E+03 -0.35613877216E+03 -0.43232491190E+03  0.68216332814E+03  0.81341681561E+02 0.  0.
          5    1    3    3  501    0  0.39071577327E+03  0.26970106962E+03  0.22328056982E+03  0.52466540319E+03  0.47000000000E+01 0. -1.
        -11    1    4    4    0    0  0.14061220987E+03  0.11297932477E+03  0.10540236772E+03  0.20891572586E+03  0.00000000000E+00 0.  1.
         12    1    4    4    0    0  0.13081059692E+02  0.63066084150E+02  0.61014284582E+02  0.88719716049E+02  0.00000000000E+00 0. -1.
         -5    1    5    5    0  502 -0.16363262206E+03 -0.89607706386E+02 -0.69729969681E+02  0.19922232485E+03  0.47000000000E+01 0.  1.
         11    1    6    6    0    0 -0.19480317356E+03 -0.15660482386E+03 -0.25354388421E+03  0.35603068478E+03  0.00000000000E+00 0. -1.
        -12    1    6    6    0    0 -0.18597324721E+03 -0.19953394830E+03 -0.17878102769E+03  0.32613264336E+03  0.00000000000E+00 0.  1.
</event>
<event>
12    1  0.1035051E+000  0.2754908E+03  0.7818608E-02  0.1098198E+00
         21   -1    0    0  503  502  0.00000000000E+00  0.00000000000E+00  0.82293078423E+02  0.82293078423E+02  0.00000000000E+00 0.  1.
         21   -1    0    0  501  503 -0.00000000000E+00 -0.00000000000E+00 -0.14668720143E+04  0.14668720143E+04  0.00000000000E+00 0.  1.
          6    2    1    2  501    0 -0.14234491253E+01  0.21525762893E+03 -0.21999124271E+03  0.35243636308E+03  0.17168974964E+03 0.  0.
         24    2    3    3    0    0  0.43962636843E+02  0.10999068282E+03 -0.18229743431E+03  0.23167237865E+03  0.80056684470E+02 0.  0.
         -6    2    1    2    0  502  0.14234491253E+01 -0.21525762893E+03 -0.11645876931E+04  0.11967287296E+04  0.17192232043E+03 0.  0.
        -24    2    5    5    0    0  0.65341745875E+02 -0.11420864476E+03 -0.59155998833E+03  0.61134057946E+03  0.80504198738E+02 0.  0.
          5    1    3    3  501    0 -0.45386085969E+02  0.10526694611E+03 -0.37693808394E+02  0.12076398443E+03  0.47000000000E+01 0. -1.
        -11    1    4    4    0    0  0.65851900953E+02  0.67578096665E+02 -0.10854623014E+03  0.14382474087E+03  0.00000000000E+00 0.  1.
         12    1    4    4    0    0 -0.21889264110E+02  0.42412586150E+02 -0.73751204170E+02  0.87847637781E+02  0.00000000000E+00 0. -1.
         -5    1    5    5    0  502 -0.63918296750E+02 -0.10104898417E+03 -0.57302770481E+03  0.58538815015E+03  0.47000000000E+01 0.  1.
         11    1    6    6    0    0  0.72102538050E+02 -0.10901254837E+03 -0.42689019140E+03  0.44645016207E+03  0.00000000000E+00 0. -1.
        -12    1    6    6    0    0 -0.67607921750E+01 -0.51960963872E+01 -0.16466979692E+03  0.16489041739E+03  0.00000000000E+00 0.  1.
</event>
<event>
12    1  0.1035051E+000  0.3942830E+03  0.7818608E-02  0.1046054E+00
         21   -1    0    0  501  502  0.00000000000E+00  0.00000000000E+00  0.28763594666E+03  0.28763594666E+03  0.00000000000E+00 0. -1.
         21   -1    0    0  502  503 -0.00000000000E+00 -0.00000000000E+00 -0.11719867060E+04  0.11719867060E+04  0.00000000000E+00 0.  1.
         -6    2    1    2    0  503  0.61984510736E+02 -0.34634756526E+03  0.96160380717E+02  0.40280611291E+03  0.17090122950E+03 0.  0.
        -24    2    3    3    0    0  0.46921589184E+02 -0.75292364649E+02  0.35427957011E+02  0.12458258645E+03  0.79969400420E+02 0.  0.
          6    2    1    2  501    0 -0.61984510736E+02  0.34634756526E+03 -0.98051114010E+03  0.10568165398E+04  0.17793366009E+03 0.  0.
         24    2    5    5    0    0 -0.61768977007E+02  0.36308814669E+03 -0.93799202550E+03  0.10108789884E+04  0.79993002932E+02 0.  0.
          5    1    5    5  501    0 -0.21553372867E+00 -0.16740581423E+02 -0.42519114594E+02  0.45937551382E+02  0.47000000000E+01 0. -1.
        -11    1    6    6    0    0 -0.26953700947E+02  0.23890697619E+03 -0.70076852974E+03  0.74086407494E+03  0.00000000000E+00 0.  1.
         12    1    6    6    0    0 -0.34815276060E+02  0.12418117050E+03 -0.23722349577E+03  0.27001491347E+03  0.00000000000E+00 0. -1.
         -5    1    3    3    0  503  0.15062921552E+02 -0.27105520062E+03  0.60732423706E+02  0.27822352646E+03  0.47000000000E+01 0.  1.
         13    1    4    4    0    0 -0.16639216092E+02 -0.42367649029E+02  0.19527488149E+01  0.45559789555E+02  0.00000000000E+00 0. -1.
        -14    1    4    4    0    0  0.63560805276E+02 -0.32924715620E+02  0.33475208196E+02  0.79022796899E+02  0.00000000000E+00 0.  1.
</event>
<event>
12    1  0.1035051E+000  0.2361240E+03  0.7818608E-02  0.1122419E+00
         21   -1    0    0  503  502  0.00000000000E+00  0.00000000000E+00  0.41241660882E+03  0.41241660882E+03  0.00000000000E+00 0.  1.
         21   -1    0    0  501  503 -0.00000000000E+00 -0.00000000000E+00 -0.13741206651E+03  0.13741206651E+03  0.00000000000E+00 0.  1.
          6    2    1    2  501    0  0.16140869853E+03  0.11122007470E+02  0.10208127565E+03  0.25715650106E+03  0.17184997000E+03 0.  0.
         24    2    3    3    0    0  0.29955349350E+02 -0.28912546982E+02  0.72440765460E+01  0.90126764504E+02  0.79605896184E+02 0.  0.
         -6    2    1    2    0  502 -0.16140869853E+03 -0.11122007470E+02  0.17292326665E+03  0.29267217426E+03  0.17198278527E+03 0.  0.
        -24    2    5    5    0    0 -0.13329862921E+03  0.45109432805E+02  0.16307245517E+03  0.22886559655E+03  0.77352764481E+02 0.  0.
          5    1    3    3  501    0  0.13145334918E+03  0.40034554452E+02  0.94837199107E+02  0.16702973656E+03  0.47000000000E+01 0. -1.
        -13    1    4    4    0    0  0.54040472569E+02 -0.16204756721E+02 -0.10822941948E+02  0.57446521986E+02  0.00000000000E+00 0.  1.
         14    1    4    4    0    0 -0.24085123219E+02 -0.12707790261E+02  0.18067018494E+02  0.32680242518E+02  0.00000000000E+00 0. -1.
         -5    1    5    5    0  502 -0.28110069315E+02 -0.56231440275E+02  0.98508114816E+01  0.63806577711E+02  0.47000000000E+01 0.  1.
         11    1    6    6    0    0 -0.12609392876E+03  0.19295572636E+02  0.10615645104E+03  0.16595538584E+03  0.00000000000E+00 0. -1.
        -12    1    6    6    0    0 -0.72047004560E+01  0.25813860169E+02  0.56916004133E+02  0.62910210713E+02  0.00000000000E+00 0.  1.
</event>
<event>
12    1  0.1035051E+000  0.1826465E+03  0.7818608E-02  0.1165305E+00
         21   -1    0    0  503  502  0.00000000000E+00  0.00000000000E+00  0.26790351950E+03  0.26790351950E+03  0.00000000000E+00 0. -1.
         21   -1    0    0  501  503 -0.00000000000E+00 -0.00000000000E+00 -0.12898662372E+03  0.12898662372E+03  0.00000000000E+00 0. -1.
          6    2    1    2  501    0  0.44851271162E+02 -0.39286598256E+02  0.10681187768E+03  0.21144348243E+03  0.17246592625E+03 0.  0.
         24    2    3    3    0    0  0.25696803740E+02 -0.80866976193E+02  0.27807540851E+02  0.12001265234E+03  0.80187179979E+02 0.  0.
         -6    2    1    2    0  502 -0.44851271162E+02  0.39286598256E+02  0.32105018100E+02  0.18544666080E+03  0.17264025743E+03 0.  0.
        -24    2    5    5    0    0 -0.44197482549E+02  0.88754272990E+02  0.44332474648E+02  0.13426972286E+03  0.78944611790E+02 0.  0.
          5    1    3    3  501    0  0.19154467423E+02  0.41580377937E+02  0.79004336832E+02  0.91430830084E+02  0.47000000000E+01 0. -1.
        -13    1    4    4    0    0  0.13968886804E+00 -0.14898253564E+02  0.44835341352E+02  0.47246008365E+02  0.00000000000E+00 0.  1.
         14    1    4    4    0    0  0.25557114872E+02 -0.65968722628E+02 -0.17027800501E+02  0.72766643977E+02  0.00000000000E+00 0. -1.
         -5    1    5    5    0  502 -0.65378861381E+00 -0.49467674735E+02 -0.12227456548E+02  0.51176937939E+02  0.47000000000E+01 0.  1.
         13    1    6    6    0    0 -0.14658706179E+02 -0.13383170089E+02  0.11750209696E+02  0.23066303049E+02  0.00000000000E+00 0. -1.
        -14    1    6    6    0    0 -0.29538776370E+02  0.10213744308E+03  0.32582264952E+02  0.11120341981E+03  0.00000000000E+00 0.  1.
</event>
<event>
12    1  0.1035051E+000  0.2995451E+03  0.7818608E-02  0.1085805E+00
         21   -1    0    0  501  502  0.00000000000E+00  0.00000000000E+00  0.23162645750E+04  0.23162645750E+04  0.00000000000E+00 0.  1.
         21   -1    0    0  502  503 -0.00000000000E+00 -0.00000000000E+00 -0.60706593133E+02  0.60706593133E+02  0.00000000000E+00 0.  1.
         -6    2    1    2    0  503  0.16777604356E+03 -0.17787042087E+03  0.40402261566E+03  0.50136180761E+03  0.16835290539E+03 0.  0.
        -24    2    3    3    0    0  0.16751090490E+03 -0.14745122498E+03  0.40520706018E+03  0.47055773830E+03  0.86197775206E+02 0.  0.
          6    2    1    2  501    0 -0.16777604356E+03  0.17787042087E+03  0.18515353662E+04  0.18756093605E+04  0.17303344632E+03 0.  0.
         24    2    5    5    0    0 -0.10585622871E+02  0.59450843709E+02  0.39344506709E+03  0.40428973685E+03  0.70743991111E+02 0.  0.
          5    1    5    5  501    0 -0.15719042069E+03  0.11841957716E+03  0.14580902991E+04  0.14713196236E+04  0.47000000000E+01 0. -1.
        -11    1    6    6    0    0 -0.82031207847E-03 -0.82398550254E+00  0.22617298844E+03  0.22617448939E+03  0.00000000000E+00 0.  1.
         12    1    6    6    0    0 -0.10584802558E+02  0.60274829212E+02  0.16727207865E+03  0.17811524746E+03  0.00000000000E+00 0. -1.
         -5    1    3    3    0  503  0.26513865847E+00 -0.30419195890E+02 -0.11844445156E+01  0.30804069308E+02  0.47000000000E+01 0.  1.
         11    1    4    4    0    0  0.13059064197E+03 -0.64007435999E+02  0.21462349485E+03  0.25925684595E+03  0.00000000000E+00 0. -1.
        -12    1    4    4    0    0  0.36920262936E+02 -0.83443788983E+02  0.19058356533E+03  0.21130089235E+03  0.00000000000E+00 0.  1.
</event>
<event>
12    1  0.1035051E+000  0.2742233E+03  0.7818608E-02  0.1100327E+00
         21   -1    0    0  503  502  0.00000000000E+00  0.00000000000E+00  0.58601114027E+03  0.58601114027E+03  0.00000000000E+00 0.  1.
         21   -1    0    0  501  503 -0.00000000000E+00 -0.00000000000E+00 -0.12367236617E+03  0.12367236617E+03  0.00000000000E+00 0.  1.
          6    2    1    2  501    0 -0.18940172864E+03  0.61268079631E+02  0.23126552452E+03  0.35872293141E+03  0.18860436445E+03 0.  0.
         24    2    3    3    0    0 -0.53220780495E+02  0.10307451839E+01  0.17461605646E+02  0.98131310614E+02  0.80568806240E+02 0.  0.
         -6    2    1    2    0  502  0.18940172864E+03 -0.61268079631E+02  0.23107324958E+03  0.35096057504E+03  0.17364240889E+03 0.  0.
        -24    2    5    5    0    0  0.93932403451E+02 -0.99187814296E+02  0.16243187164E+03  0.22732390129E+03  0.81428031113E+02 0.  0.
          5    1    3    3  501    0 -0.13618094815E+03  0.60237334447E+02  0.21380391888E+03  0.26059162079E+03  0.47000000000E+01 0. -1.
        -13    1    4    4    0    0 -0.42123688699E+02 -0.21350802636E+02  0.41936850454E+02  0.63158224712E+02  0.00000000000E+00 0.  1.
         14    1    4    4    0    0 -0.11097091796E+02  0.22381547820E+02 -0.24475244807E+02  0.34973085902E+02  0.00000000000E+00 0. -1.
         -5    1    5    5    0  502  0.95469325194E+02  0.37919734666E+02  0.68641377938E+02  0.12363667375E+03  0.47000000000E+01 0.  1.
         13    1    6    6    0    0  0.91922159885E+02 -0.41830156818E+02  0.93521252896E+02  0.13764327169E+03  0.00000000000E+00 0. -1.
        -14    1    6    6    0    0  0.20102435654E+01 -0.57357657478E+02  0.68910618744E+02  0.89680629604E+02  0.00000000000E+00 0.  1.
</event>
<event>
12    1  0.1035051E+000  0.1734958E+03  0.7818608E-02  0.1174498E+00
         21   -1    0    0  501  502  0.00000000000E+00  0.00000000000E+00  0.52241520456E+03  0.52241520456E+03  0.00000000000E+00 0. -1.
         21   -1    0    0  502  503 -0.00000000000E+00 -0.00000000000E+00 -0.57320974934E+02  0.57320974934E+02  0.00000000000E+00 0. -1.
         -6    2    1    2    0  503  0.17428011678E+02  0.78382437515E+01  0.22586794286E+03  0.28421968986E+03  0.17146233067E+03 0.  0.
        -24    2    3    3    0    0  0.43603991637E+02  0.57685362819E+02  0.10816138532E+03  0.15365613869E+03  0.81746036683E+02 0.  0.
          6    2    1    2  501    0 -0.17428011678E+02 -0.78382437515E+01  0.23922628677E+03  0.29551648963E+03  0.17244015109E+03 0.  0.
         24    2    5    5    0    0  0.39092811413E+02 -0.53903072218E+02  0.14665268003E+03  0.17758203949E+03  0.74796945747E+02 0.  0.
          5    1    5    5  501    0 -0.56520823090E+02  0.46064828467E+02  0.92573606740E+02  0.11793445014E+03  0.47000000000E+01 0. -1.
        -13    1    6    6    0    0 -0.57340734304E+01  0.15997210211E+02  0.28128988672E+02  0.32863815000E+02  0.00000000000E+00 0.  1.
         14    1    6    6    0    0  0.44826884843E+02 -0.69900282429E+02  0.11852369135E+03  0.14471822449E+03  0.00000000000E+00 0. -1.
         -5    1    3    3    0  503 -0.26175979960E+02 -0.49847119068E+02  0.11770655754E+03  0.13056355117E+03  0.47000000000E+01 0.  1.
         13    1    4    4    0    0  0.12332876326E+02  0.23160325730E+01  0.85090286188E+02  0.86010584517E+02  0.00000000000E+00 0. -1.
        -14    1    4    4    0    0  0.31271115312E+02  0.55369330246E+02  0.23071099134E+02  0.67645554177E+02  0.00000000000E+00 0.  1.
</event>
<event>
12    1  0.1035051E+000  0.3745837E+03  0.7818608E-02  0.1052978E+00
         21   -1    0    0  503  502  0.00000000000E+00  0.00000000000E+00  0.20369412688E+04  0.20369412688E+04  0.00000000000E+00 0. -1.
         21   -1    0    0  501  503 -0.00000000000E+00 -0.00000000000E+00 -0.86004972150E+02  0.86004972150E+02  0.00000000000E+00 0.  1.
          6    2    1    2  501    0 -0.12804973842E+02  0.33129680681E+03  0.14499930340E+04  0.14975956466E+04  0.17433123788E+03 0.  0.
         24    2    3    3    0    0  0.61263612842E+02  0.18858995063E+03  0.79454906935E+03  0.82270285279E+03  0.78818529868E+02 0.  0.
         -6    2    1    2    0  502  0.12804973842E+02 -0.33129680681E+03  0.50094326258E+03  0.62535059428E+03  0.17377477344E+03 0.  0.
        -24    2    5    5    0    0  0.42565480843E+02 -0.26726166042E+03  0.29712612209E+03  0.40959678897E+03  0.79025197332E+02 0.  0.
          5    1    3    3  501    0 -0.74068586684E+02  0.14270685618E+03  0.65544396468E+03  0.67489279383E+03  0.47000000000E+01 0. -1.
        -11    1    4    4    0    0  0.21218893921E+02  0.64920552335E+01  0.43202646156E+02  0.48568064356E+02  0.00000000000E+00 0.  1.
         12    1    4    4    0    0  0.40044718921E+02  0.18209789539E+03  0.75134642319E+03  0.77413478843E+03  0.00000000000E+00 0. -1.
         -5    1    5    5    0  502 -0.29760507001E+02 -0.64035146389E+02  0.20381714049E+03  0.21575380531E+03  0.47000000000E+01 0.  1.
         13    1    6    6    0    0 -0.72927334744E+01 -0.16917847400E+03  0.20649386474E+03  0.26704729207E+03  0.00000000000E+00 0. -1.
        -14    1    6    6    0    0  0.49858214317E+02 -0.98083186425E+02  0.90632257355E+02  0.14254949690E+03  0.00000000000E+00 0.  1.
</event>
<event>
12    1  0.1035051E+000  0.2604087E+03  0.7818608E-02  0.1106913E+00
         21   -1    0    0  501  502  0.00000000000E+00  0.00000000000E+00  0.58143506982E+03  0.58143506982E+03  0.00000000000E+00 0.  1.
         21   -1    0    0  502  503 -0.00000000000E+00 -0.00000000000E+00 -0.14633410937E+03  0.14633410937E+03  0.00000000000E+00 0.  1.
         -6    2    1    2    0  503 -0.36437233253E+02 -0.19185198172E+03  0.53444257773E+02  0.26573614499E+03  0.17211785267E+03 0.  0.
        -24    2    3    3    0    0 -0.69122908997E+01 -0.12047548209E+03  0.99453407143E+02  0.17570693447E+03  0.80123810940E+02 0.  0.
          6    2    1    2  501    0  0.36437233253E+02  0.19185198172E+03  0.38165670268E+03  0.46203303419E+03  0.17227254897E+03 0.  0.
         24    2    5    5    0    0  0.50620548041E+02  0.52172753521E+02  0.23621866824E+03  0.25983074669E+03  0.80176814654E+02 0.  0.
          5    1    5    5  501    0 -0.14183314788E+02  0.13967922820E+03  0.14543803444E+03  0.20220228750E+03  0.47000000000E+01 0. -1.
        -11    1    6    6    0    0 -0.16995499504E+01 -0.86277861119E+01 -0.15207645100E+01  0.89241183274E+01  0.00000000000E+00 0.  1.
         12    1    6    6    0    0  0.52320097992E+02  0.60800539633E+02  0.23773943275E+03  0.25090662837E+03  0.00000000000E+00 0. -1.
         -5    1    3    3    0  503 -0.29524942353E+02 -0.71376499628E+02 -0.46009149370E+02  0.90029210515E+02  0.47000000000E+01 0.  1.
         13    1    4    4    0    0  0.32545833387E+02 -0.26734501341E+02  0.38929005588E+02  0.57353572765E+02  0.00000000000E+00 0. -1.
        -14    1    4    4    0    0 -0.39458124287E+02 -0.93740980752E+02  0.60524401554E+02  0.11835336171E+03  0.00000000000E+00 0.  1.
</event>
<event>
12    1  0.1035051E+000  0.2633962E+03  0.7818608E-02  0.1105953E+00
         21   -1    0    0  501  502  0.00000000000E+00  0.00000000000E+00  0.77699518785E+03  0.77699518785E+03  0.00000000000E+00 0.  1.
         21   -1    0    0  502  503 -0.00000000000E+00 -0.00000000000E+00 -0.11640632183E+03  0.11640632183E+03  0.00000000000E+00 0.  1.
         -6    2    1    2    0  503 -0.77961325757E+02 -0.17563474966E+03  0.10470106964E+03  0.27826836359E+03  0.17188785469E+03 0.  0.
        -24    2    3    3    0    0 -0.75070494858E+02 -0.15633108057E+03  0.14047622365E+03  0.23724470958E+03  0.80476685226E+02 0.  0.
          6    2    1    2  501    0  0.77961325757E+02  0.17563474966E+03  0.55588779638E+03  0.61513314610E+03  0.18014441892E+03 0.  0.
         24    2    5    5    0    0  0.26829032909E+02  0.87254169389E+02  0.45733379353E+03  0.47314504865E+03  0.79868337105E+02 0.  0.
          5    1    5    5  501    0  0.51132292848E+02  0.88380580267E+02  0.98554002841E+02  0.14198809745E+03  0.47000000000E+01 0. -1.
        -13    1    6    6    0    0 -0.10351981275E+02  0.77637061652E+02  0.24038675476E+03  0.25282497646E+03  0.00000000000E+00 0.  1.
         14    1    6    6    0    0  0.37181014184E+02  0.96171077371E+01  0.21694703878E+03  0.22032007219E+03  0.00000000000E+00 0. -1.
         -5    1    3    3    0  503 -0.28908308989E+01 -0.19303669084E+02 -0.35775154008E+02  0.41023654002E+02  0.47000000000E+01 0.  1.
         11    1    4    4    0    0 -0.83977667732E+02 -0.86371427273E+02  0.83422213152E+02  0.14653169546E+03  0.00000000000E+00 0. -1.
        -12    1    4    4    0    0  0.89071728742E+01 -0.69959653298E+02  0.57054010494E+02  0.90713014125E+02  0.00000000000E+00 0.  1.
</event>
<event>
12    1  0.1035433E+000  0.1742212E+03  0.7818608E-02  0.1173656E+00
         21   -1    0    0  501  502  0.00000000000E+00  0.00000000000E+00  0.56141357675E+03  0.56141357675E+03  0.00000000000E+00 0. -1.
         21   -1    0    0  502  503 -0.00000000000E+00 -0.00000000000E+00 -0.23225606135E+03  0.23225606135E+03  0.00000000000E+00 0. -1.
         -6    2    1    2    0  503 -0.26523721089E+02  0.14276510564E+01  0.51239746954E+03  0.54120623720E+03  0.17218443143E+03 0.  0.
        -24    2    3    3    0    0  0.89985230146E+01  0.38060609608E+02  0.28702057409E+03  0.31007718563E+03  0.11062308835E+03 0.  0.
          6    2    1    2  501    0  0.26523721089E+02 -0.14276510564E+01 -0.18323995414E+03  0.25246340090E+03  0.17162558676E+03 0.  0.
         24    2    5    5    0    0  0.50349733081E+02 -0.44392502239E+02 -0.17212043786E+03  0.20187297762E+03  0.81372379162E+02 0.  0.
          5    1    5    5  501    0 -0.23826011992E+02  0.42964851183E+02 -0.11119516282E+02  0.50590423273E+02  0.47000000000E+01 0. -1.
        -11    1    6    6    0    0 -0.52723255183E+01  0.71431871670E+01 -0.88687643769E+02  0.89130918859E+02  0.00000000000E+00 0.  1.
         12    1    6    6    0    0  0.55622058599E+02 -0.51535689406E+02 -0.83432794086E+02  0.11274205876E+03  0.00000000000E+00 0. -1.
         -5    1    3    3    0  503 -0.35522244103E+02 -0.36632958552E+02  0.22537689545E+03  0.23112905158E+03  0.47000000000E+01 0.  1.
         13    1    4    4    0    0  0.45884882533E+01  0.15452987944E+02 -0.52095249211E+01  0.16940726393E+02  0.00000000000E+00 0. -1.
        -14    1    4    4    0    0  0.44100347614E+01  0.22607621664E+02  0.29223009901E+03  0.29313645923E+03  0.00000000000E+00 0.  1.
</event>
<event>
12    1  0.1035051E+000  0.2351469E+03  0.7818608E-02  0.1123103E+00
         21   -1    0    0  501  502  0.00000000000E+00  0.00000000000E+00  0.15295594757E+03  0.15295594757E+03  0.00000000000E+00 0. -1.
         21   -1    0    0  502  503 -0.00000000000E+00 -0.00000000000E+00 -0.36654837352E+03  0.36654837352E+03  0.00000000000E+00 0. -1.
         -6    2    1    2    0  503 -0.15977957184E+03 -0.32634290414E+01 -0.75369876882E+02  0.24674156614E+03  0.17222259019E+03 0.  0.
        -24    2    3    3    0    0 -0.41760683452E+02  0.15377337299E+01 -0.90153988317E+02  0.12761067538E+03  0.80065120710E+02 0.  0.
          6    2    1    2  501    0  0.15977957184E+03  0.32634290414E+01 -0.13822254907E+03  0.27276275495E+03  0.17249314731E+03 0.  0.
         24    2    5    5    0    0  0.78773616642E+02  0.52121786129E+02 -0.12674101173E+03  0.17735300946E+03  0.80429115635E+02 0.  0.
          5    1    5    5  501    0  0.81005955203E+02 -0.48858357088E+02 -0.11481537346E+02  0.95409745495E+02  0.47000000000E+01 0. -1.
        -13    1    6    6    0    0  0.82588914035E+02  0.20948496380E+02 -0.61928924705E+02  0.10533261573E+03  0.00000000000E+00 0.  1.
         14    1    6    6    0    0 -0.38152973932E+01  0.31173289749E+02 -0.64812087024E+02  0.72020393726E+02  0.00000000000E+00 0. -1.
         -5    1    3    3    0  503 -0.11801888839E+03 -0.48011627712E+01  0.14784111435E+02  0.11913089076E+03  0.47000000000E+01 0.  1.
         11    1    4    4    0    0 -0.14325067631E+02  0.37469846805E+02 -0.21790913766E+02  0.45651296860E+02  0.00000000000E+00 0. -1.
        -12    1    4    4    0    0 -0.27435615822E+02 -0.35932113075E+02 -0.68363074550E+02  0.81959378521E+02  0.00000000000E+00 0.  1.
</event>
<event>
12    1  0.1035051E+000  0.1895190E+03  0.7818608E-02  0.1159208E+00
         21   -1    0    0  501  502  0.00000000000E+00  0.00000000000E+00  0.19433314566E+03  0.19433314566E+03  0.00000000000E+00 0.  1.
         21   -1    0    0  502  503 -0.00000000000E+00 -0.00000000000E+00 -0.67095403681E+03  0.67095403681E+03  0.00000000000E+00 0.  1.
         -6    2    1    2    0  503  0.64741584971E+02 -0.43946552460E+02 -0.60731889647E+03  0.63620254307E+03  0.17261130180E+03 0.  0.
        -24    2    3    3    0    0  0.12873291429E+02  0.36106967468E+02 -0.36856292673E+03  0.37905396926E+03  0.79836369675E+02 0.  0.
          6    2    1    2  501    0 -0.64741584971E+02  0.43946552460E+02  0.13069800531E+03  0.22908463939E+03  0.17109947725E+03 0.  0.
         24    2    5    5    0    0 -0.33452746732E+02 -0.27230237643E+02  0.12156497084E+03  0.15065869237E+03  0.77842323610E+02 0.  0.
          5    1    5    5  501    0 -0.31288838239E+02  0.71176790103E+02  0.91330344720E+01  0.78425947023E+02  0.47000000000E+01 0. -1.
        -11    1    6    6    0    0  0.14550758675E+02 -0.16189017072E+02  0.88969090468E+02  0.91593165196E+02  0.00000000000E+00 0.  1.
         12    1    6    6    0    0 -0.48003505407E+02 -0.11041220571E+02  0.32595880372E+02  0.59065527173E+02  0.00000000000E+00 0. -1.
         -5    1    3    3    0  503  0.51868293541E+02 -0.80053519928E+02 -0.23875596974E+03  0.25714857381E+03  0.47000000000E+01 0.  1.
         13    1    4    4    0    0 -0.25228813776E+02 -0.61302152607E+01 -0.18686294258E+03  0.18865797596E+03  0.00000000000E+00 0. -1.
        -14    1    4    4    0    0  0.38102105206E+02  0.42237182729E+02 -0.18169998415E+03  0.19039599330E+03  0.00000000000E+00 0.  1.
</event>
<event>
12    1  0.1035051E+000  0.1726371E+03  0.7818608E-02  0.1175133E+00
         21   -1    0    0  503  502  0.00000000000E+00  0.00000000000E+00  0.26762819285E+02  0.26762819285E+02  0.00000000000E+00 0.  1.
         21   -1    0    0  501  503 -0.00000000000E+00 -0.00000000000E+00 -0.11194803273E+04  0.11194803273E+04  0.00000000000E+00 0.  1.
          6    2    1    2  501    0 -0.96579874888E+00 -0.18644232049E+02 -0.50419039534E+03  0.53291801081E+03  0.17159577890E+03 0.  0.
         24    2    3    3    0    0 -0.64696862931E+02  0.81789968182E+01 -0.31069794124E+03  0.32738807639E+03  0.79982259340E+02 0.  0.
         -6    2    1    2    0  502  0.96579874888E+00  0.18644232049E+02 -0.58852711266E+03  0.61332513576E+03  0.17162464761E+03 0.  0.
        -24    2    5    5    0    0  0.20032472817E+02  0.75394645748E+02 -0.34638325307E+03  0.36384590566E+03  0.79478503281E+02 0.  0.
          5    1    3    3  501    0  0.63731064182E+02 -0.26823228867E+02 -0.19349245410E+03  0.20552993442E+03  0.47000000000E+01 0. -1.
        -11    1    4    4    0    0 -0.42780190771E+02  0.28349101676E+02 -0.27981346077E+03  0.28448091169E+03  0.00000000000E+00 0.  1.
         12    1    4    4    0    0 -0.21916672160E+02 -0.20170104858E+02 -0.30884480468E+02  0.42907164697E+02  0.00000000000E+00 0. -1.
         -5    1    5    5    0  502 -0.19066674068E+02 -0.56750413699E+02 -0.24214385959E+03  0.24947923011E+03  0.47000000000E+01 0.  1.
         13    1    6    6    0    0  0.39026743092E+02  0.65666766483E+02 -0.32414608486E+03  0.33302536725E+03  0.00000000000E+00 0. -1.
        -14    1    6    6    0    0 -0.18994270275E+02  0.97278792653E+01 -0.22237168203E+02  0.30820538412E+02  0.00000000000E+00 0.  1.
</event>
<event>
12    1  0.1035051E+000  0.5720459E+03  0.7818608E-02  0.9965379E-01
         21   -1    0    0  503  502  0.00000000000E+00  0.00000000000E+00  0.36437792611E+03  0.36437792611E+03  0.00000000000E+00 0.  1.
         21   -1    0    0  501  503 -0.00000000000E+00 -0.00000000000E+00 -0.10605878614E+04  0.10605878614E+04  0.00000000000E+00 0.  1.
          6    2    1    2  501    0 -0.14356248357E+03  0.52652015574E+03 -0.68569930210E+02  0.57574941405E+03  0.17015255320E+03 0.  0.
         24    2    3    3    0    0 -0.99390437505E+02  0.19985021957E+03 -0.81684276311E+02  0.24581230955E+03  0.62712049890E+02 0.  0.
         -6    2    1    2    0  502  0.14356248357E+03 -0.52652015574E+03 -0.62764000511E+03  0.84921637349E+03  0.17147248150E+03 0.  0.
        -24    2    5    5    0    0  0.45288599503E+02 -0.26353220803E+03 -0.22592772630E+03  0.35909877345E+03  0.80051918572E+02 0.  0.
          5    1    3    3  501    0 -0.44172046070E+02  0.32666993616E+03  0.13114346100E+02  0.32993710449E+03  0.47000000000E+01 0. -1.
        -11    1    4    4    0    0  0.22031085654E+01  0.14571943066E+02 -0.21569860807E+02  0.26123822601E+02  0.00000000000E+00 0.  1.
         12    1    4    4    0    0 -0.10159354607E+03  0.18527827651E+03 -0.60114415504E+02  0.21968848695E+03  0.00000000000E+00 0. -1.
         -5    1    5    5    0  502  0.98273884072E+02 -0.26298794771E+03 -0.40171227881E+03  0.49011760005E+03  0.47000000000E+01 0.  1.
         11    1    6    6    0    0  0.45211750337E+02 -0.62458072849E+02 -0.49753130073E+02  0.91763212589E+02  0.00000000000E+00 0. -1.
        -12    1    6    6    0    0  0.76849165888E-01 -0.20107413518E+03 -0.17617459622E+03  0.26733556086E+03  0.00000000000E+00 0.  1.
</event>
<event>
12    1  0.1035051E+000  0.2064354E+03  0.7818608E-02  0.1145217E+00
         21   -1    0    0  503  502  0.00000000000E+00  0.00000000000E+00  0.41746687678E+02  0.41746687678E+02  0.00000000000E+00 0.  1.
         21   -1    0    0  501  503 -0.00000000000E+00 -0.00000000000E+00 -0.12152229345E+04  0.12152229345E+04  0.00000000000E+00 0.  1.
          6    2    1    2  501    0 -0.77733906273E+02 -0.69281971003E+02 -0.85481862347E+03  0.87939209166E+03  0.17824988120E+03 0.  0.
         24    2    3    3    0    0  0.78031493904E+01 -0.69250678749E+02 -0.63291032252E+03  0.64152243638E+03  0.78224129149E+02 0.  0.
         -6    2    1    2    0  502  0.77733906273E+02  0.69281971003E+02 -0.31865762336E+03  0.37757753053E+03  0.17372264948E+03 0.  0.
        -24    2    5    5    0    0 -0.17079094235E+02 -0.54851068326E+01 -0.13649802091E+03  0.15898239847E+03  0.79510448715E+02 0.  0.
          5    1    3    3  501    0 -0.85537055664E+02 -0.31292254433E-01 -0.22190830096E+03  0.23786965528E+03  0.47000000000E+01 0. -1.
        -13    1    4    4    0    0  0.35190982548E+02 -0.89140541230E+01 -0.29052268876E+03  0.29278199791E+03  0.00000000000E+00 0.  1.
         14    1    4    4    0    0 -0.27387833157E+02 -0.60336624626E+02 -0.34238763375E+03  0.34874043847E+03  0.00000000000E+00 0. -1.
         -5    1    5    5    0  502  0.94813000508E+02  0.74767077836E+02 -0.18215960245E+03  0.21859513205E+03  0.47000000000E+01 0.  1.
         13    1    6    6    0    0 -0.30181900478E+02  0.26117938698E+02 -0.10556979925E+03  0.11286308675E+03  0.00000000000E+00 0. -1.
        -14    1    6    6    0    0  0.13102806243E+02 -0.31603045531E+02 -0.30928221664E+02  0.46119311720E+02  0.00000000000E+00 0.  1.
</event>
<event>
12    1  0.1035051E+000  0.1829431E+03  0.7818608E-02  0.1165704E+00
         21   -1    0    0  501  502  0.00000000000E+00  0.00000000000E+00  0.41024747242E+03  0.41024747242E+03  0.00000000000E+00 0.  1.
         21   -1    0    0  502  503 -0.00000000000E+00 -0.00000000000E+00 -0.83242385562E+02  0.83242385562E+02  0.00000000000E+00 0.  1.
         -6    2    1    2    0  503  0.10858010025E+02  0.56561515940E+02  0.21164498972E+03  0.27975307417E+03  0.17364066162E+03 0.  0.
        -24    2    3    3    0    0  0.62756242414E+02  0.75941973600E+02  0.16143270661E+03  0.20483717439E+03  0.78690659758E+02 0.  0.
          6    2    1    2  501    0 -0.10858010025E+02 -0.56561515940E+02  0.11536009713E+03  0.21373678381E+03  0.17046512627E+03 0.  0.
         24    2    5    5    0    0  0.50864965377E+02 -0.60000054317E+02  0.97981462070E+02  0.14935001347E+03  0.80732944898E+02 0.  0.
          5    1    5    5  501    0 -0.61722975401E+02  0.34385383770E+01  0.17378635063E+02  0.64386770343E+02  0.47000000000E+01 0. -1.
        -13    1    6    6    0    0  0.39351921924E+02 -0.60491266790E+02  0.26392687826E+02  0.76839710356E+02  0.00000000000E+00 0.  1.
         14    1    6    6    0    0  0.11513043453E+02  0.49121247252E+00  0.71588774244E+02  0.72510303109E+02  0.00000000000E+00 0. -1.
         -5    1    3    3    0  503 -0.51898232390E+02 -0.19380457660E+02  0.50212283111E+02  0.74915899777E+02  0.47000000000E+01 0.  1.
         11    1    4    4    0    0  0.23230324673E+01  0.37538834166E+02  0.12580997572E+02  0.39659072736E+02  0.00000000000E+00 0. -1.
        -12    1    4    4    0    0  0.60433209947E+02  0.38403139434E+02  0.14885170904E+03  0.16517810166E+03  0.00000000000E+00 0.  1.
</event>
<event>
12    1  0.1035051E+000  0.1964267E+03  0.7818608E-02  0.1152799E+00
         21   -1    0    0  503  502  0.00000000000E+00  0.00000000000E+00  0.12065335709E+04  0.12065335709E+04  0.00000000000E+00 0. -1.
         21   -1    0    0  501  503 -0.00000000000E+00 -0.00000000000E+00 -0.32891450905E+02  0.32891450905E+02  0.00000000000E+00 0. -1.
          6    2    1    2  501    0  0.58185887071E+02  0.74686798730E+02  0.48325298365E+03  0.52164822981E+03  0.17210378873E+03 0.  0.
         24    2    3    3    0    0 -0.31573863251E+02  0.52196535951E+02  0.20759363526E+03  0.23083421526E+03  0.80423443914E+02 0.  0.
         -6    2    1    2    0  502 -0.58185887071E+02 -0.74686798730E+02  0.69038913634E+03  0.71777679199E+03  0.17205420132E+03 0.  0.
        -24    2    5    5    0    0 -0.80121350082E+02 -0.77593865800E+02  0.34090104075E+03  0.36755738286E+03  0.80278710511E+02 0.  0.
          5    1    3    3  501    0  0.89759750321E+02  0.22490262779E+02  0.27565934839E+03  0.29081401454E+03  0.47000000000E+01 0. -1.
        -11    1    4    4    0    0  0.19264169373E+01  0.64953812798E+02  0.12850351480E+03  0.14399952151E+03  0.00000000000E+00 0.  1.
         12    1    4    4    0    0 -0.33500280188E+02 -0.12757276847E+02  0.79090120454E+02  0.86834693750E+02  0.00000000000E+00 0. -1.
         -5    1    5    5    0  502  0.21935463011E+02  0.29070670705E+01  0.34948809558E+03  0.35021940913E+03  0.47000000000E+01 0.  1.
         13    1    6    6    0    0  0.14144367802E+02  0.16893054629E+01  0.34552180540E+02  0.37373387236E+02  0.00000000000E+00 0. -1.
        -14    1    6    6    0    0 -0.94265717883E+02 -0.79283171263E+02  0.30634886021E+03  0.33018399563E+03  0.00000000000E+00 0.  1.
</event>
<event>
12    1  0.1035051E+000  0.2445405E+03  0.7818608E-02  0.1117229E+00
         21   -1    0    0  501  502  0.00000000000E+00  0.00000000000E+00  0.11077185045E+03  0.11077185045E+03  0.00000000000E+00 0.  1.
         21   -1    0    0  502  503 -0.00000000000E+00 -0.00000000000E+00 -0.55186536571E+03  0.55186536571E+03  0.00000000000E+00 0. -1.
         -6    2    1    2    0  503  0.48773395704E+02  0.16338221377E+03 -0.16229786585E+03  0.29349724540E+03  0.17529245247E+03 0.  0.
        -24    2    3    3    0    0 -0.24498968110E+02  0.96112707860E+02 -0.54174714584E+02  0.14650496137E+03  0.93225275301E+02 0.  0.
          6    2    1    2  501    0 -0.48773395704E+02 -0.16338221377E+03 -0.27879564940E+03  0.36913997076E+03  0.17165288224E+03 0.  0.
         24    2    5    5    0    0  0.28890922744E+02 -0.11476803814E+03 -0.21215533146E+03  0.25574638008E+03  0.79937089391E+02 0.  0.
          5    1    5    5  501    0 -0.77664318448E+02 -0.48614175630E+02 -0.66640317937E+02  0.11339359068E+03  0.47000000000E+01 0. -1.
        -13    1    6    6    0    0  0.16302369221E+02 -0.46684514750E+02 -0.23425651072E+02  0.54717202850E+02  0.00000000000E+00 0.  1.
         14    1    6    6    0    0  0.12588553523E+02 -0.68083523392E+02 -0.18872968039E+03  0.20102917723E+03  0.00000000000E+00 0. -1.
         -5    1    3    3    0  503  0.73272363813E+02  0.67269505912E+02 -0.10812315127E+03  0.14699228403E+03  0.47000000000E+01 0.  1.
         11    1    4    4    0    0 -0.63468855014E+01  0.42222184798E+02 -0.74706122261E+02  0.86046502242E+02  0.00000000000E+00 0. -1.
        -12    1    4    4    0    0 -0.18152082608E+02  0.53890523062E+02  0.20531407677E+02  0.60458459128E+02  0.00000000000E+00 0.  1.
</event>
<event>
12    1  0.1035051E+000  0.1872121E+03  0.7818608E-02  0.1161251E+00
         21   -1    0    0  501  502  0.00000000000E+00  0.00000000000E+00  0.81980679323E+03  0.81980679323E+03  0.00000000000E+00 0.  1.
         21   -1    0    0  502  503 -0.00000000000E+00 -0.00000000000E+00 -0.47782598782E+02  0.47782598782E+02  0.00000000000E+00 0.  1.
         -6    2    1    2    0  503 -0.60742745960E+02 -0.42712421656E+02  0.24082564861E+03  0.30436627145E+03  0.17066869079E+03 0.  0.
        -24    2    3    3    0    0  0.21210916040E+02 -0.29878758005E+02  0.18262414279E+03  0.20292362303E+03  0.80521898356E+02 0.  0.
          6    2    1    2  501    0  0.60742745960E+02  0.42712421656E+02  0.53119854583E+03  0.56322312056E+03  0.17185562630E+03 0.  0.
         24    2    5    5    0    0 -0.30823613924E+02  0.20442544160E+02  0.18956745938E+03  0.20880213510E+03  0.79337993286E+02 0.  0.
          5    1    5    5  501    0  0.91566359885E+02  0.22269877496E+02  0.34163108646E+03  0.35442098547E+03  0.47000000000E+01 0. -1.
        -11    1    6    6    0    0  0.56198132555E+01 -0.53047717836E+01  0.14677349943E+03  0.14697681123E+03  0.00000000000E+00 0.  1.
         12    1    6    6    0    0 -0.36443427180E+02  0.25747315943E+02  0.42793959945E+02  0.61825323862E+02  0.00000000000E+00 0. -1.
         -5    1    3    3    0  503 -0.81953662000E+02 -0.12833663650E+02  0.58201505824E+02  0.10144264842E+03  0.47000000000E+01 0.  1.
         13    1    4    4    0    0 -0.27873236134E+02 -0.14894769388E+02  0.37774324872E+02  0.49251102193E+02  0.00000000000E+00 0. -1.
        -14    1    4    4    0    0  0.49084152175E+02 -0.14983988618E+02  0.14484981792E+03  0.15367252084E+03  0.00000000000E+00 0.  1.
</event>
<event>
12    1  0.1035051E+000  0.1772719E+03  0.7818608E-02  0.1171589E+00
         21   -1    0    0  503  502  0.00000000000E+00  0.00000000000E+00  0.55142793049E+03  0.55142793049E+03  0.00000000000E+00 0. -1.
         21   -1    0    0  501  503 -0.00000000000E+00 -0.00000000000E+00 -0.58211737926E+02  0.58211737926E+02  0.00000000000E+00 0. -1.
          6    2    1    2  501    0 -0.76660595360E+01  0.12420408600E+02  0.30865875827E+03  0.35373582181E+03  0.17217946322E+03 0.  0.
         24    2    3    3    0    0  0.51041691908E+01  0.28707138008E+02  0.60999284034E+02  0.10516864482E+03  0.80556681191E+02 0.  0.
         -6    2    1    2    0  502  0.76660595360E+01 -0.12420408600E+02  0.18455743430E+03  0.25590384661E+03  0.17667002332E+03 0.  0.
        -24    2    5    5    0    0  0.31752450780E+02  0.71402321476E+01  0.15434779912E+02  0.83894151724E+02  0.75768035588E+02 0.  0.
          5    1    3    3  501    0 -0.12770228727E+02 -0.16286729408E+02  0.24765947424E+03  0.24856717699E+03  0.47000000000E+01 0. -1.
        -11    1    4    4    0    0 -0.29193981578E+02  0.39145811369E+02  0.27203483104E+02  0.55899128805E+02  0.00000000000E+00 0.  1.
         12    1    4    4    0    0  0.34298150769E+02 -0.10438673361E+02  0.33795800930E+02  0.49269516014E+02  0.00000000000E+00 0. -1.
         -5    1    5    5    0  502 -0.24086391244E+02 -0.19560640747E+02  0.16912265438E+03  0.17200969489E+03  0.47000000000E+01 0.  1.
         13    1    6    6    0    0 -0.99828169908E+01  0.24924681101E+02  0.25933328715E+02  0.37328727561E+02  0.00000000000E+00 0. -1.
        -14    1    6    6    0    0  0.41735267771E+02 -0.17784448954E+02 -0.10498548803E+02  0.46565424163E+02  0.00000000000E+00 0.  1.
</event>
<event>
12    1  0.1035051E+000  0.1745820E+03  0.7818608E-02  0.1173435E+00
         21   -1    0    0  503  502  0.00000000000E+00  0.00000000000E+00  0.78092533778E+02  0.78092533778E+02  0.00000000000E+00 0. -1.
         21   -1    0    0  501  503 -0.00000000000E+00 -0.00000000000E+00 -0.46779364026E+03  0.46779364026E+03  0.00000000000E+00 0. -1.
          6    2    1    2  501    0  0.14343352703E+01 -0.23549741545E+02 -0.81459219388E+02  0.19163778345E+03  0.17185106336E+03 0.  0.
         24    2    3    3    0    0  0.21057839079E+02 -0.69895565880E+02 -0.17481297493E+02  0.11010078679E+03  0.80546662087E+02 0.  0.
         -6    2    1    2    0  502 -0.14343352703E+01  0.23549741545E+02 -0.30824188709E+03  0.35424839058E+03  0.17298038510E+03 0.  0.
        -24    2    5    5    0    0  0.11889269630E+01  0.65648650196E+02 -0.10679336082E+03  0.14837756130E+03  0.79372035134E+02 0.  0.
          5    1    3    3  501    0 -0.19623503808E+02  0.46345824335E+02 -0.63977921895E+02  0.81536996664E+02  0.47000000000E+01 0. -1.
        -13    1    4    4    0    0  0.21837505071E+02  0.20764069888E+01  0.19347783023E+02  0.29249355576E+02  0.00000000000E+00 0.  1.
         14    1    4    4    0    0 -0.77966599228E+00 -0.71971972869E+02 -0.36829080516E+02  0.80851431214E+02  0.00000000000E+00 0. -1.
         -5    1    5    5    0  502 -0.26232622333E+01 -0.42098908651E+02 -0.20144852627E+03  0.20587082928E+03  0.47000000000E+01 0.  1.
         13    1    6    6    0    0  0.22342243677E+02  0.67244532815E+02 -0.47249101095E+02  0.85167368166E+02  0.00000000000E+00 0. -1.
        -14    1    6    6    0    0 -0.21153316714E+02 -0.15958826188E+01 -0.59544259730E+02  0.63210193135E+02  0.00000000000E+00 0.  1.
</event>
<event>
12    1  0.1035051E+000  0.2723284E+03  0.7818608E-02  0.1100044E+00
         21   -1    0    0  503  502  0.00000000000E+00  0.00000000000E+00  0.55466681646E+03  0.55466681646E+03  0.00000000000E+00 0. -1.
         21   -1    0    0  501  503 -0.00000000000E+00 -0.00000000000E+00 -0.15132427186E+03  0.15132427186E+03  0.00000000000E+00 0. -1.
          6    2    1    2  501    0 -0.80231000263E+02  0.19531705346E+03  0.32338533767E+03  0.42277751485E+03  0.17197960827E+03 0.  0.
         24    2    3    3    0    0 -0.95542419588E+02  0.84253775264E+02  0.22670741881E+03  0.27466201491E+03  0.88407669940E+02 0.  0.
         -6    2    1    2    0  502  0.80231000263E+02 -0.19531705346E+03  0.79957206922E+02  0.28321357347E+03  0.17097078254E+03 0.  0.
        -24    2    5    5    0    0  0.59488328073E+02 -0.11896472508E+03  0.11839829186E+03  0.19512416713E+03  0.79773542548E+02 0.  0.
          5    1    3    3  501    0  0.15311419325E+02  0.11106327820E+03  0.96677918859E+02  0.14811549993E+03  0.47000000000E+01 0. -1.
        -13    1    4    4    0    0  0.13473832871E+02  0.13018244969E+02  0.61550460303E+02  0.64338775539E+02  0.00000000000E+00 0.  1.
         14    1    4    4    0    0 -0.10901625246E+03  0.71235530295E+02  0.16515695851E+03  0.21032323937E+03  0.00000000000E+00 0. -1.
         -5    1    5    5    0  502  0.20742672191E+02 -0.76352328377E+02 -0.38441084940E+02  0.88089406341E+02  0.47000000000E+01 0.  1.
         11    1    6    6    0    0 -0.11263652250E+02 -0.23000014334E+02 -0.19918247450E+01  0.25687309847E+02  0.00000000000E+00 0. -1.
        -12    1    6    6    0    0  0.70751980322E+02 -0.95964710750E+02  0.12039011661E+03  0.16943685728E+03  0.00000000000E+00 0.  1.
</event>
<event>
12    1  0.1035051E+000  0.2317547E+03  0.7818608E-02  0.1125475E+00
         21   -1    0    0  503  502  0.00000000000E+00  0.00000000000E+00  0.13421987156E+03  0.13421987156E+03  0.00000000000E+00 0. -1.
         21   -1    0    0  501  503 -0.00000000000E+00 -0.00000000000E+00 -0.44433366366E+03  0.44433366366E+03  0.00000000000E+00 0.  1.
          6    2    1    2  501    0  0.14351074547E+03 -0.59734821677E+02 -0.63093623245E+02  0.23983654025E+03  0.17139771807E+03 0.  0.
         24    2    3    3    0    0  0.71795454762E+02  0.32862183800E+02 -0.48194784519E+02  0.12167836770E+03  0.79046679016E+02 0.  0.
         -6    2    1    2    0  502 -0.14351074547E+03  0.59734821677E+02 -0.24702016885E+03  0.33871699497E+03  0.17189140722E+03 0.  0.
        -24    2    5    5    0    0 -0.12086829372E+03  0.10292968179E+03 -0.16115524459E+03  0.23985673106E+03  0.79728130261E+02 0.  0.
          5    1    3    3  501    0  0.71715290711E+02 -0.92597005477E+02 -0.14898838725E+02  0.11815817255E+03  0.47000000000E+01 0. -1.
        -13    1    4    4    0    0  0.85929664559E+02  0.25895952857E+02 -0.54167600091E+02  0.10482669758E+03  0.00000000000E+00 0.  1.
         14    1    4    4    0    0 -0.14134209797E+02  0.69662309429E+01  0.59728155714E+01  0.16851670125E+02  0.00000000000E+00 0. -1.
         -5    1    5    5    0  502 -0.22642451754E+02 -0.43194860117E+02 -0.85864924266E+02  0.98860263914E+02  0.47000000000E+01 0.  1.
         13    1    6    6    0    0 -0.47931313917E+02  0.39166869333E+02 -0.13656189039E+02  0.63387270064E+02  0.00000000000E+00 0. -1.
        -14    1    6    6    0    0 -0.72936979802E+02  0.63762812461E+02 -0.14749905555E+03  0.17646946099E+03  0.00000000000E+00 0.  1.
</event>
<event>
12    1  0.1035051E+000  0.2964980E+03  0.7818608E-02  0.1087036E+00
         21   -1    0    0  503  502  0.00000000000E+00  0.00000000000E+00  0.35140704258E+03  0.35140704258E+03  0.00000000000E+00 0.  1.
         21   -1    0    0  501  503 -0.00000000000E+00 -0.00000000000E+00 -0.43812950278E+03  0.43812950278E+03  0.00000000000E+00 0. -1.
          6    2    1    2  501    0 -0.17986598752E+03  0.16044956924E+03 -0.30208392455E+03  0.42327980030E+03  0.17267094179E+03 0.  0.
         24    2    3    3    0    0 -0.15334888610E+03  0.12087056187E+03 -0.30990988495E+03  0.37477217051E+03  0.79274645419E+02 0.  0.
         -6    2    1    2    0  502  0.17986598752E+03 -0.16044956924E+03  0.21536146435E+03  0.36625674506E+03  0.17224286703E+03 0.  0.
        -24    2    5    5    0    0  0.12493054250E+03 -0.25795183196E+02  0.10841033652E+03  0.18567341099E+03  0.80304312213E+02 0.  0.
          5    1    3    3  501    0 -0.26517101420E+02  0.39579007362E+02  0.78259603996E+01  0.48507629788E+02  0.47000000000E+01 0. -1.
        -13    1    4    4    0    0 -0.13800363094E+02 -0.68069842529E+00 -0.72236696875E+02  0.73546269432E+02  0.00000000000E+00 0.  1.
         14    1    4    4    0    0 -0.13954852300E+03  0.12155126030E+03 -0.23767318808E+03  0.30122590108E+03  0.00000000000E+00 0. -1.
         -5    1    5    5    0  502  0.54935445016E+02 -0.13465438604E+03  0.10695112783E+03  0.18058333407E+03  0.47000000000E+01 0.  1.
         13    1    6    6    0    0  0.24663412743E+02  0.27165276569E+02  0.19316798342E+02  0.41465345499E+02  0.00000000000E+00 0. -1.
        -14    1    6    6    0    0  0.10026712976E+03 -0.52960459766E+02  0.89093538178E+02  0.14420806549E+03  0.00000000000E+00 0.  1.
</event>
<event>
12    1  0.1035051E+000  0.1930328E+03  0.7818608E-02  0.1159289E+00
         21   -1    0    0  503  502  0.00000000000E+00  0.00000000000E+00  0.16213108823E+04  0.16213108823E+04  0.00000000000E+00 0.  1.
         21   -1    0    0  501  503 -0.00000000000E+00 -0.00000000000E+00 -0.23164689535E+02  0.23164689535E+02  0.00000000000E+00 0.  1.
          6    2    1    2  501    0 -0.76846581358E+02  0.19368689835E+02  0.58972512749E+03  0.62051381839E+03  0.17601457212E+03 0.  0.
         24    2    3    3    0    0 -0.12209008282E+03  0.18232581466E+02  0.45317849426E+03  0.47658557858E+03  0.80775309954E+02 0.  0.
         -6    2    1    2    0  502  0.76846581358E+02 -0.19368689835E+02  0.10084210653E+04  0.10239617534E+04  0.15907257598E+03 0.  0.
        -24    2    5    5    0    0  0.91993416274E+02 -0.57649053858E+02  0.70486356292E+03  0.71758933284E+03  0.79470788468E+02 0.  0.
          5    1    3    3  501    0  0.45243501466E+02  0.11361083685E+01  0.13654663323E+03  0.14392823981E+03  0.47000000000E+01 0. -1.
        -11    1    4    4    0    0 -0.86034112974E+02 -0.25757160187E+02  0.30160058865E+03  0.31468748779E+03  0.00000000000E+00 0.  1.
         12    1    4    4    0    0 -0.36055969849E+02  0.43989741653E+02  0.15157790561E+03  0.16189809079E+03  0.00000000000E+00 0. -1.
         -5    1    5    5    0  502 -0.15146834916E+02  0.38280364024E+02  0.30355750235E+03  0.30637242061E+03  0.47000000000E+01 0.  1.
         11    1    6    6    0    0  0.29263349241E+02 -0.29986579859E+02  0.49589163637E+03  0.49765857132E+03  0.00000000000E+00 0. -1.
        -12    1    6    6    0    0  0.62730067034E+02 -0.27662473999E+02  0.20897192655E+03  0.21993076152E+03  0.00000000000E+00 0.  1.
</event>
<event>
12    1  0.1035051E+000  0.3090376E+03  0.7818608E-02  0.1080824E+00
         21   -1    0    0  503  502  0.00000000000E+00  0.00000000000E+00  0.62822759497E+03  0.62822759497E+03  0.00000000000E+00 0. -1.
         21   -1    0    0  501  503 -0.00000000000E+00 -0.00000000000E+00 -0.31511174760E+03  0.31511174760E+03  0.00000000000E+00 0. -1.
          6    2    1    2  501    0 -0.17970256941E+03 -0.18112179338E+03  0.49596688301E+03  0.58436920172E+03  0.17437344233E+03 0.  0.
         24    2    3    3    0    0 -0.13064335352E+03 -0.14670490593E+03  0.23478189150E+03  0.31635610765E+03  0.79803728153E+02 0.  0.
         -6    2    1    2    0  502  0.17970256941E+03  0.18112179338E+03 -0.18285103564E+03  0.35897014084E+03  0.17414632725E+03 0.  0.
        -24    2    5    5    0    0  0.78145472308E+02  0.10100562732E+03 -0.21981769054E+02  0.15249143742E+03  0.80384007882E+02 0.  0.
          5    1    3    3  501    0 -0.49059215892E+02 -0.34416887448E+02  0.26118499151E+03  0.26801309408E+03  0.47000000000E+01 0. -1.
        -13    1    4    4    0    0 -0.13025231911E+03 -0.10940513770E+03  0.21493646246E+03  0.27410369148E+03  0.00000000000E+00 0.  1.
         14    1    4    4    0    0 -0.39103441028E+00 -0.37299768236E+02  0.19845429037E+02  0.42252416168E+02  0.00000000000E+00 0. -1.
         -5    1    5    5    0  502  0.10155709710E+03  0.80116166060E+02 -0.16086926658E+03  0.20647870342E+03  0.47000000000E+01 0.  1.
         13    1    6    6    0    0 -0.58569395192E+01  0.71527525434E+01 -0.24839002901E+02  0.26503616255E+02  0.00000000000E+00 0. -1.
        -14    1    6    6    0    0  0.84002411827E+02  0.93852874776E+02  0.28572338473E+01  0.12598782116E+03  0.00000000000E+00 0.  1.
</event>
<event>
12    1  0.1035051E+000  0.1873000E+03  0.7818608E-02  0.1161020E+00
         21   -1    0    0  503  502  0.00000000000E+00  0.00000000000E+00  0.17731246351E+03  0.17731246351E+03  0.00000000000E+00 0.  1.
         21   -1    0    0  501  503 -0.00000000000E+00 -0.00000000000E+00 -0.28027291563E+03  0.28027291563E+03  0.00000000000E+00 0.  1.
          6    2    1    2  501    0 -0.27350558902E+02 -0.69392699997E+02  0.72898262307E+02  0.20098621925E+03  0.17180775243E+03 0.  0.
         24    2    3    3    0    0 -0.49764079715E+02  0.15349660338E+02  0.60813702808E+02  0.11237606109E+03  0.78854276708E+02 0.  0.
         -6    2    1    2    0  502  0.27350558902E+02  0.69392699997E+02 -0.17585871442E+03  0.25659915989E+03  0.17132846096E+03 0.  0.
        -24    2    5    5    0    0  0.11973677215E+02  0.11170431874E+03 -0.15247579997E+03  0.20565240082E+03  0.80142476971E+02 0.  0.
          5    1    3    3  501    0  0.22413520813E+02 -0.84742360335E+02  0.12084559500E+02  0.88610158157E+02  0.47000000000E+01 0. -1.
        -11    1    4    4    0    0 -0.67485370577E+02  0.27077581332E+01  0.60393816843E+02  0.90603644015E+02  0.00000000000E+00 0.  1.
         12    1    4    4    0    0  0.17721290862E+02  0.12641902205E+02  0.41988596455E+00  0.21772417077E+02  0.00000000000E+00 0. -1.
         -5    1    5    5    0  502  0.15376881687E+02 -0.42311618748E+02 -0.23382914447E+02  0.50946759067E+02  0.47000000000E+01 0.  1.
         13    1    6    6    0    0  0.40678054578E+02  0.46923490286E+02 -0.99068399554E+02  0.11692333324E+03  0.00000000000E+00 0. -1.
        -14    1    6    6    0    0 -0.28704377362E+02  0.64780828458E+02 -0.53407400418E+02  0.88729067588E+02  0.00000000000E+00 0.  1.
</event>
<event>
12    1  0.1035051E+000  0.3624378E+03  0.7818608E-02  0.1057692E+00
         21   -1    0    0  501  502  0.00000000000E+00  0.00000000000E+00  0.31487635077E+03  0.31487635077E+03  0.00000000000E+00 0. -1.
         21   -1    0    0  502  503 -0.00000000000E+00 -0.00000000000E+00 -0.41812651803E+03  0.41812651803E+03  0.00000000000E+00 0.  1.
         -6    2    1    2    0  503  0.31801100339E+03 -0.14123946475E+02 -0.75352754870E+02  0.36949296695E+03  0.17180375671E+03 0.  0.
        -24    2    3    3    0    0  0.15153748092E+03 -0.41653919245E+02  0.18332736215E+02  0.17643754920E+03  0.78073442592E+02 0.  0.
          6    2    1    2  501    0 -0.31801100339E+03  0.14123946475E+02 -0.27897412392E+02  0.36350990185E+03  0.17329367843E+03 0.  0.
         24    2    5    5    0    0 -0.16030813876E+03  0.31014139570E+02 -0.75416859220E+02  0.19787276845E+03  0.82494567290E+02 0.  0.
          5    1    5    5  501    0 -0.15770286462E+03 -0.16890193094E+02  0.47519446828E+02  0.16563713340E+03  0.47000000000E+01 0. -1.
        -13    1    6    6    0    0 -0.16034336224E+03  0.86565312435E+01 -0.66534707808E+02  0.17381540982E+03  0.00000000000E+00 0.  1.
         14    1    6    6    0    0  0.35223472247E-01  0.22357608326E+02 -0.88821514125E+01  0.24057358635E+02  0.00000000000E+00 0. -1.
         -5    1    3    3    0  503  0.16647352246E+03  0.27529972769E+02 -0.93685491085E+02  0.19305541775E+03  0.47000000000E+01 0.  1.
         11    1    4    4    0    0  0.62857483781E+01 -0.18829603215E+01 -0.19990425539E+02  0.21039802410E+02  0.00000000000E+00 0. -1.
        -12    1    4    4    0    0  0.14525173254E+03 -0.39770958923E+02  0.38323161754E+02  0.15539774679E+03  0.00000000000E+00 0.  1.
</event>
<event>
12    1  0.1035051E+000  0.2074274E+03  0.7818608E-02  0.1143786E+00
         21   -1    0    0  503  502  0.00000000000E+00  0.00000000000E+00  0.78885410808E+03  0.78885410808E+03  0.00000000000E+00 0. -1.
         21   -1    0    0  501  503 -0.00000000000E+00 -0.00000000000E+00 -0.90680710660E+02  0.90680710660E+02  0.00000000000E+00 0. -1.
          6    2    1    2  501    0  0.86376381800E+02 -0.72383935895E+02  0.71053169566E+02  0.21925939419E+03  0.17414308923E+03 0.  0.
         24    2    3    3    0    0  0.24831784063E+02 -0.10718809917E+03  0.38012836884E+02  0.14107486327E+03  0.79694637052E+02 0.  0.
         -6    2    1    2    0  502 -0.86376381800E+02  0.72383935895E+02  0.62712022785E+03  0.66027542454E+03  0.17315756573E+03 0.  0.
        -24    2    5    5    0    0 -0.11346100905E+03  0.96543225037E+02  0.54364399155E+03  0.56912927645E+03  0.78519735672E+02 0.  0.
          5    1    3    3  501    0  0.61544597737E+02  0.34804163276E+02  0.33040332682E+02  0.78184530923E+02  0.47000000000E+01 0. -1.
        -11    1    4    4    0    0  0.27319903545E+02 -0.31746765521E+02 -0.19478657039E+02  0.46191474655E+02  0.00000000000E+00 0.  1.
         12    1    4    4    0    0 -0.24881194821E+01 -0.75441333650E+02  0.57491493923E+02  0.94883388614E+02  0.00000000000E+00 0. -1.
         -5    1    5    5    0  502  0.27084627252E+02 -0.24159289142E+02  0.83476236300E+02  0.91146148092E+02  0.47000000000E+01 0.  1.
         11    1    6    6    0    0  0.38089113423E+01  0.34711983462E+02  0.13912076872E+03  0.14343645942E+03  0.00000000000E+00 0. -1.
        -12    1    6    6    0    0 -0.11726992039E+03  0.61831241575E+02  0.40452322283E+03  0.42569281703E+03  0.00000000000E+00 0.  1.
</event>
<event>
12    1  0.1035051E+000  0.1950856E+03  0.7818608E-02  0.1154069E+00
         21   -1    0    0  501  502  0.00000000000E+00  0.00000000000E+00  0.14082369768E+03  0.14082369768E+03  0.00000000000E+00 0. -1.
         21   -1    0    0  502  503 -0.00000000000E+00 -0.00000000000E+00 -0.27165515158E+03  0.27165515158E+03  0.00000000000E+00 0. -1.
         -6    2    1    2    0  503  0.26663152157E+02  0.86485644575E+02 -0.47043178165E+02  0.20016103667E+03  0.17222279056E+03 0.  0.
        -24    2    3    3    0    0  0.71744131686E+02  0.76054543928E+02  0.41267996772E+01  0.13101221738E+03  0.78839435209E+02 0.  0.
          6    2    1    2  501    0 -0.26663152157E+02 -0.86485644575E+02 -0.83788275739E+02  0.21231781259E+03  0.17282270682E+03 0.  0.
         24    2    5    5    0    0 -0.79764738307E+02 -0.56668630018E+02 -0.31528569798E+02  0.13193124858E+03  0.82692542181E+02 0.  0.
          5    1    5    5  501    0  0.53101586151E+02 -0.29817014557E+02 -0.52259705941E+02  0.80386564014E+02  0.47000000000E+01 0. -1.
        -13    1    6    6    0    0 -0.17631249839E+02 -0.54724005084E+01  0.26779215942E+02  0.32525905748E+02  0.00000000000E+00 0.  1.
         14    1    6    6    0    0 -0.62133488468E+02 -0.51196229510E+02 -0.58307785740E+02  0.99405342830E+02  0.00000000000E+00 0. -1.
         -5    1    3    3    0  503 -0.45080979529E+02  0.10431100647E+02 -0.51169977842E+02  0.69148819284E+02  0.47000000000E+01 0.  1.
         11    1    4    4    0    0  0.60342995252E+02  0.85965870863E+02 -0.15581541058E+02  0.10618000024E+03  0.00000000000E+00 0. -1.
        -12    1    4    4    0    0  0.11401136434E+02 -0.99113269351E+01  0.19708340735E+02  0.24832217141E+02  0.00000000000E+00 0.  1.
</event>
<event>
12    1  0.1035051E+000  0.2416621E+03  0.7818608E-02  0.1121557E+00
         21   -1    0    0  501  502  0.00000000000E+00  0.00000000000E+00  0.65733658745E+03  0.65733658745E+03  0.00000000000E+00 0. -1.
         21   -1    0    0  502  503 -0.00000000000E+00 -0.00000000000E+00 -0.85616217322E+02  0.85616217322E+02  0.00000000000E+00 0. -1.
         -6    2    1    2    0  503 -0.16740501931E+03  0.22395622655E+01  0.36304011758E+03  0.43611774717E+03  0.17427307966E+03 0.  0.
        -24    2    3    3    0    0 -0.13622358254E+03 -0.60938728947E+02  0.22776300426E+03  0.28352100452E+03  0.78979622491E+02 0.  0.
          6    2    1    2  501    0  0.16740501931E+03 -0.22395622655E+01  0.20868025254E+03  0.30683505759E+03  0.15023597651E+03 0.  0.
         24    2    5    5    0    0  0.88745345920E+02 -0.23632303189E+02  0.18431225798E+03  0.22162424407E+03  0.81927253961E+02 0.  0.
          5    1    5    5  501    0  0.78659673394E+02  0.21392740923E+02  0.24367994566E+02  0.85210813526E+02  0.47000000000E+01 0. -1.
        -11    1    6    6    0    0  0.37478721633E+02  0.30211014115E+02  0.62080616470E+02  0.78558022444E+02  0.00000000000E+00 0.  1.
         12    1    6    6    0    0  0.51266624287E+02 -0.53843317304E+02  0.12223164151E+03  0.14306622162E+03  0.00000000000E+00 0. -1.
         -5    1    3    3    0  503 -0.31181436771E+02  0.63178291212E+02  0.13527711332E+03  0.15259674265E+03  0.47000000000E+01 0.  1.
         11    1    4    4    0    0 -0.10065615233E+01 -0.22529802395E+02  0.10805978246E+02  0.25007485438E+02  0.00000000000E+00 0. -1.
        -12    1    4    4    0    0 -0.13521702102E+03 -0.38408926552E+02  0.21695702602E+03  0.25851351909E+03  0.00000000000E+00 0.  1.
</event>
<event>
12    1  0.1035051E+000  0.2409145E+03  0.7818608E-02  0.1119288E+00
         21   -1    0    0  503  502  0.00000000000E+00  0.00000000000E+00  0.54818436537E+02  0.54818436537E+02  0.00000000000E+00 0.  1.
         21   -1    0    0  501  503 -0.00000000000E+00 -0.00000000000E+00 -0.11240695631E+04  0.11240695631E+04  0.00000000000E+00 0.  1.
          6    2    1    2  501    0  0.16191166013E+03  0.42375039370E+02 -0.67897683914E+03  0.72024452746E+03  0.17242854057E+03 0.  0.
         24    2    3    3    0    0  0.16854669845E+03  0.49563044403E+01 -0.63589730490E+03  0.66260667768E+03  0.79054869649E+02 0.  0.
         -6    2    1    2    0  502 -0.16191166013E+03 -0.42375039370E+02 -0.39027428741E+03  0.45864347216E+03  0.17328815740E+03 0.  0.
        -24    2    5    5    0    0 -0.12405335773E+03 -0.13225383708E+01 -0.37137605968E+03  0.39950133904E+03  0.79310513275E+02 0.  0.
          5    1    3    3  501    0 -0.66350383192E+01  0.37418734930E+02 -0.43079534242E+02  0.57637849784E+02  0.47000000000E+01 0. -1.
        -13    1    4    4    0    0  0.10460827181E+02  0.24682730867E+02 -0.99930096174E+02  0.10346347293E+03  0.00000000000E+00 0.  1.
         14    1    4    4    0    0  0.15808587127E+03 -0.19726426426E+02 -0.53596720873E+03  0.55914320475E+03  0.00000000000E+00 0. -1.
         -5    1    5    5    0  502 -0.37858302396E+02 -0.41052500999E+02 -0.18898227724E+02  0.59142133118E+02  0.47000000000E+01 0.  1.
         13    1    6    6    0    0 -0.89703232873E+02  0.13042538181E+02 -0.15191088377E+03  0.17690023855E+03  0.00000000000E+00 0. -1.
        -14    1    6    6    0    0 -0.34350124862E+02 -0.14365076552E+02 -0.21946517591E+03  0.22260110049E+03  0.00000000000E+00 0.  1.
</event>
<event>
12    1  0.1035051E+000  0.1779300E+03  0.7818608E-02  0.1169905E+00
         21   -1    0    0  501  502  0.00000000000E+00  0.00000000000E+00  0.91426690113E+02  0.91426690113E+02  0.00000000000E+00 0.  1.
         21   -1    0    0  502  503 -0.00000000000E+00 -0.00000000000E+00 -0.34637461148E+03  0.34637461148E+03  0.00000000000E+00 0.  1.
         -6    2    1    2    0  503 -0.43838233981E+02  0.18184463654E+01 -0.13780320175E+03  0.22505286556E+03  0.17243541509E+03 0.  0.
        -24    2    3    3    0    0 -0.21380522058E+02  0.49831041692E+01 -0.16887369372E+03  0.18629942242E+03  0.75545961610E+02 0.  0.
          6    2    1    2  501    0  0.43838233981E+02 -0.18184463654E+01 -0.11714471962E+03  0.21274843604E+03  0.17208693790E+03 0.  0.
         24    2    5    5    0    0  0.63231148935E+02  0.20456040862E+02 -0.13314643837E+02  0.10469746395E+03  0.79797565217E+02 0.  0.
          5    1    5    5  501    0 -0.19392914954E+02 -0.22274487228E+02 -0.10383007578E+03  0.10805097208E+03  0.47000000000E+01 0. -1.
        -13    1    6    6    0    0  0.16434392149E+02  0.86336724196E+01 -0.43825802354E+02  0.47595488197E+02  0.00000000000E+00 0.  1.
         14    1    6    6    0    0  0.46796756786E+02  0.11822368443E+02  0.30511158518E+02  0.57101975757E+02  0.00000000000E+00 0. -1.
         -5    1    3    3    0  503 -0.22457711923E+02 -0.31646578038E+01  0.31070491963E+02  0.38753443133E+02  0.47000000000E+01 0.  1.
         13    1    4    4    0    0  0.23956560052E+02  0.19537138860E+02 -0.72013504806E+02  0.78368114938E+02  0.00000000000E+00 0. -1.
        -14    1    4    4    0    0 -0.45337082110E+02 -0.14554034691E+02 -0.96860188911E+02  0.10793130749E+03  0.00000000000E+00 0.  1.
</event>
<event>
12    1  0.1035051E+000  0.5257471E+03  0.7818608E-02  0.1007299E+00
         21   -1    0    0  501  502  0.00000000000E+00  0.00000000000E+00  0.10785145526E+04  0.10785145526E+04  0.00000000000E+00 0.  1.
         21   -1    0    0  502  503 -0.00000000000E+00 -0.00000000000E+00 -0.27814691729E+03  0.27814691729E+03  0.00000000000E+00 0.  1.
         -6    2    1    2    0  503 -0.48424154161E+03  0.10877930932E+03  0.59121905677E+03  0.79084065915E+03  0.17194815009E+03 0.  0.
        -24    2    3    3    0    0 -0.26828121047E+03 -0.25067126578E+01  0.26898040730E+03  0.38725265075E+03  0.75053744077E+02 0.  0.
          6    2    1    2  501    0  0.48424154161E+03 -0.10877930932E+03  0.20914857855E+03  0.56582081075E+03  0.17345677620E+03 0.  0.
         24    2    5    5    0    0  0.43539276517E+03 -0.61807137796E+02  0.13917671863E+03  0.46829779276E+03  0.80905385768E+02 0.  0.
          5    1    5    5  501    0  0.48848776437E+02 -0.46972171521E+02  0.69971859924E+02  0.97523017991E+02  0.47000000000E+01 0. -1.
        -13    1    6    6    0    0  0.46790365512E+02 -0.12942167965E+02  0.43344689629E+02  0.65081488423E+02  0.00000000000E+00 0.  1.
         14    1    6    6    0    0  0.38860239966E+03 -0.48864969831E+02  0.95832028998E+02  0.40321630434E+03  0.00000000000E+00 0. -1.
         -5    1    3    3    0  503 -0.21596033114E+03  0.11128602197E+03  0.32223864947E+03  0.40358800840E+03  0.47000000000E+01 0.  1.
         13    1    4    4    0    0 -0.14752725797E+03 -0.23705210057E+02  0.18874919859E+03  0.24073323160E+03  0.00000000000E+00 0. -1.
        -14    1    4    4    0    0 -0.12075395250E+03  0.21198497400E+02  0.80231208713E+02  0.14651941915E+03  0.00000000000E+00 0.  1.
</event>
<event>
12    1  0.1035051E+000  0.2238246E+03  0.7818608E-02  0.1131299E+00
         21   -1    0    0  503  502  0.00000000000E+00  0.00000000000E+00  0.80772291178E+03  0.80772291178E+03  0.00000000000E+00 0. -1.
         21   -1    0    0  501  503 -0.00000000000E+00 -0.00000000000E+00 -0.62630635893E+02  0.62630635893E+02  0.00000000000E+00 0. -1.
          6    2    1    2  501    0  0.80969949559E+02  0.11604604629E+03  0.42547420104E+03  0.48015723827E+03  0.17175523315E+03 0.  0.
         24    2    3    3    0    0 -0.12864359093E+02  0.55071824452E+02  0.27837827739E+03  0.29527339916E+03  0.80582363718E+02 0.  0.
         -6    2    1    2    0  502 -0.80969949559E+02 -0.11604604629E+03  0.31961807484E+03  0.39019630940E+03  0.17342038091E+03 0.  0.
        -24    2    5    5    0    0 -0.46794609703E+02 -0.12327003336E+03  0.32002854822E+03  0.35494863811E+03  0.78644945155E+02 0.  0.
          5    1    3    3  501    0  0.93834308653E+02  0.60974221841E+02  0.14709592365E+03  0.18488383911E+03  0.47000000000E+01 0. -1.
        -11    1    4    4    0    0 -0.28083617200E+02  0.70998038012E+02  0.22051715783E+03  0.23336072475E+03  0.00000000000E+00 0.  1.
         12    1    4    4    0    0  0.15219258107E+02 -0.15926213560E+02  0.57861119563E+02  0.61912674412E+02  0.00000000000E+00 0. -1.
         -5    1    5    5    0  502 -0.34175339856E+02  0.72239870671E+01 -0.41047337462E+00  0.35247671296E+02  0.47000000000E+01 0.  1.
         13    1    6    6    0    0 -0.81682572831E+01 -0.78950680572E+02  0.10263072989E+03  0.12974204063E+03  0.00000000000E+00 0. -1.
        -14    1    6    6    0    0 -0.38626352420E+02 -0.44319352788E+02  0.21739781833E+03  0.22520659747E+03  0.00000000000E+00 0.  1.
</event>
<event>
12    1  0.1035051E+000  0.1725147E+03  0.7818608E-02  0.1175321E+00
         21   -1    0    0  501  502  0.00000000000E+00  0.00000000000E+00  0.35385828627E+03  0.35385828627E+03  0.00000000000E+00 0. -1.
         21   -1    0    0  502  503 -0.00000000000E+00 -0.00000000000E+00 -0.83975786916E+02  0.83975786916E+02  0.00000000000E+00 0. -1.
         -6    2    1    2    0  503 -0.37493948041E+01 -0.19824861502E+02  0.13324637225E+03  0.21798145358E+03  0.17133077742E+03 0.  0.
        -24    2    3    3    0    0  0.48764588010E+02 -0.51241134484E+02  0.64805696364E+02  0.12605258589E+03  0.81766969013E+02 0.  0.
          6    2    1    2  501    0  0.37493948041E+01  0.19824861502E+02  0.13663612711E+03  0.21985261961E+03  0.17105162970E+03 0.  0.
         24    2    5    5    0    0  0.58489419339E+02  0.40590922780E+02  0.11524710704E+03  0.15734438202E+03  0.80042011998E+02 0.  0.
          5    1    5    5  501    0 -0.54740024535E+02 -0.20766061278E+02  0.21389020063E+02  0.62508237588E+02  0.47000000000E+01 0. -1.
        -11    1    6    6    0    0  0.18396313606E+01  0.18240225396E+02 -0.78995172369E+01  0.19962275386E+02  0.00000000000E+00 0.  1.
         12    1    6    6    0    0  0.56649787978E+02  0.22350697384E+02  0.12314662428E+03  0.13738210663E+03  0.00000000000E+00 0. -1.
         -5    1    3    3    0  503 -0.52513982814E+02  0.31416272982E+02  0.68440675887E+02  0.91928867691E+02  0.47000000000E+01 0.  1.
         13    1    4    4    0    0  0.38037189567E+02  0.14827048905E+02  0.29588338793E+02  0.50419628736E+02  0.00000000000E+00 0. -1.
        -14    1    4    4    0    0  0.10727398443E+02 -0.66068183389E+02  0.35217357571E+02  0.75632957155E+02  0.00000000000E+00 0.  1.
</event>
<event>
12    1  0.1035051E+000  0.2634346E+03  0.7818608E-02  0.1105969E+00
         21   -1    0    0  503  502  0.00000000000E+00  0.00000000000E+00  0.22667502841E+03  0.22667502841E+03  0.00000000000E+00 0.  1.
         21   -1    0    0  501  503 -0.00000000000E+00 -0.00000000000E+00 -0.36745216694E+03  0.36745216694E+03  0.00000000000E+00 0.  1.
          6    2    1    2  501    0 -0.19735903669E+03 -0.14989375084E+02 -0.19885041472E+03  0.33005948999E+03  0.17384622161E+03 0.  0.
         24    2    3    3    0    0 -0.10794840379E+03  0.56147305319E+02 -0.13937892020E+03  0.20116559085E+03  0.78966662402E+02 0.  0.
         -6    2    1    2    0  502  0.19735903669E+03  0.14989375084E+02  0.58073276192E+02  0.26406770536E+03  0.16487564064E+03 0.  0.
        -24    2    5    5    0    0  0.15632420737E+03 -0.34921288866E+02  0.80072922015E+02  0.19564982751E+03  0.78806268384E+02 0.  0.
          5    1    3    3  501    0 -0.89410632907E+02 -0.71136680403E+02 -0.59471494520E+02  0.12889389914E+03  0.47000000000E+01 0. -1.
        -13    1    4    4    0    0  0.69747924392E+01  0.16712714445E+02 -0.41029675987E+02  0.44848599369E+02  0.00000000000E+00 0.  1.
         14    1    4    4    0    0 -0.11492319623E+03  0.39434590874E+02 -0.98349244208E+02  0.15631699148E+03  0.00000000000E+00 0. -1.
         -5    1    5    5    0  502  0.41034829322E+02  0.49910663950E+02 -0.21999645823E+02  0.68417877852E+02  0.47000000000E+01 0.  1.
         11    1    6    6    0    0  0.13185191933E+03  0.39047310827E+01  0.51618269908E+02  0.14164964294E+03  0.00000000000E+00 0. -1.
        -12    1    6    6    0    0  0.24472288044E+02 -0.38826019949E+02  0.28454652106E+02  0.54000184571E+02  0.00000000000E+00 0.  1.
</event>
<event>
12    1  0.1035051E+000  0.1821535E+03  0.7818608E-02  0.1166624E+00
         21   -1    0    0  503  502  0.00000000000E+00  0.00000000000E+00  0.22400446065E+02  0.22400446065E+02  0.00000000000E+00 0. -1.
         21   -1    0    0  501  503 -0.00000000000E+00 -0.00000000000E+00 -0.14765265485E+04  0.14765265485E+04  0.00000000000E+00 0. -1.
          6    2    1    2  501    0  0.46689537771E+02 -0.93788050024E+00 -0.63653481231E+03  0.66208492735E+03  0.17606558772E+03 0.  0.
         24    2    3    3    0    0 -0.24195721975E+02  0.51318068740E+01 -0.51538139049E+03  0.52150824801E+03  0.75770090899E+02 0.  0.
         -6    2    1    2    0  502 -0.46689537771E+02  0.93788050024E+00 -0.81759129011E+03  0.83684206721E+03  0.17224498606E+03 0.  0.
        -24    2    5    5    0    0  0.18481092742E+02 -0.48088564301E+02 -0.39700992942E+03  0.40840120275E+03  0.80750217018E+02 0.  0.
          5    1    3    3  501    0  0.70885259746E+02 -0.60696873742E+01 -0.12115342182E+03  0.14057667933E+03  0.47000000000E+01 0. -1.
        -13    1    4    4    0    0  0.18705948237E+02  0.18024605790E+02 -0.87121724203E+02  0.90912010986E+02  0.00000000000E+00 0.  1.
         14    1    4    4    0    0 -0.42901670212E+02 -0.12892798916E+02 -0.42825966629E+03  0.43059623703E+03  0.00000000000E+00 0. -1.
         -5    1    5    5    0  502 -0.65170630513E+02  0.49026444801E+02 -0.42058136069E+03  0.42844086445E+03  0.47000000000E+01 0.  1.
         13    1    6    6    0    0  0.17380977189E+02 -0.15894645926E+02 -0.22711743638E+02  0.32719435146E+02  0.00000000000E+00 0. -1.
        -14    1    6    6    0    0  0.11001155523E+01 -0.32193918375E+02 -0.37429818578E+03  0.37568176761E+03  0.00000000000E+00 0.  1.
</event>
<event>
12    1  0.1035051E+000  0.2268694E+03  0.7818608E-02  0.1129383E+00
         21   -1    0    0  501  502  0.00000000000E+00  0.00000000000E+00  0.54295688652E+03  0.54295688652E+03  0.00000000000E+00 0.  1.
         21   -1    0    0  502  503 -0.00000000000E+00 -0.00000000000E+00 -0.13586889600E+03  0.13586889600E+03  0.00000000000E+00 0. -1.
         -6    2    1    2    0  503  0.20975122775E+02  0.14589202013E+03  0.13326188816E+02  0.22438316419E+03  0.16865876719E+03 0.  0.
        -24    2    3    3    0    0  0.79301206001E+01  0.16667766982E+03  0.45497704289E+02  0.18364851404E+03  0.61744661168E+02 0.  0.
          6    2    1    2  501    0 -0.20975122775E+02 -0.14589202013E+03  0.39376180171E+03  0.45444261833E+03  0.17246825666E+03 0.  0.
         24    2    5    5    0    0  0.32314334298E+02 -0.19781769726E+02  0.15727820397E+03  0.18114764309E+03  0.81501537031E+02 0.  0.
          5    1    5    5  501    0 -0.53289457073E+02 -0.12611025040E+03  0.23648359773E+03  0.27329497523E+03  0.47000000000E+01 0. -1.
        -11    1    6    6    0    0  0.55175724633E+02 -0.32176635958E+02  0.11165911309E+03  0.12863690772E+03  0.00000000000E+00 0.  1.
         12    1    6    6    0    0 -0.22861390334E+02  0.12394866232E+02  0.45619090879E+02  0.52510735374E+02  0.00000000000E+00 0. -1.
         -5    1    3    3    0  503  0.13045002175E+02 -0.20785649695E+02 -0.32171515473E+02  0.40734650149E+02  0.47000000000E+01 0.  1.
         13    1    4    4    0    0 -0.23959595038E+02  0.98637379785E+02  0.36947399432E+02  0.10802085544E+03  0.00000000000E+00 0. -1.
        -14    1    4    4    0    0  0.31889715639E+02  0.68040290038E+02  0.85503048575E+01  0.75627658599E+02  0.00000000000E+00 0.  1.
</event>
<event>
12    1  0.1035051E+000  0.3431922E+03  0.7818608E-02  0.1065530E+00
         21   -1    0    0  503  502  0.00000000000E+00  0.00000000000E+00  0.12296500600E+04  0.12296500600E+04  0.00000000000E+00 0.  1.
         21   -1    0    0  501  503 -0.00000000000E+00 -0.00000000000E+00 -0.12441208574E+03  0.12441208574E+03  0.00000000000E+00 0.  1.
          6    2    1    2  501    0  0.12503500818E+03 -0.26808735439E+03  0.22606467706E+03  0.41027901926E+03  0.17239214767E+03 0.  0.
         24    2    3    3    0    0  0.12843306719E+03 -0.12577007971E+03  0.10861964857E+03  0.22566813606E+03  0.82551280305E+02 0.  0.
         -6    2    1    2    0  502 -0.12503500818E+03  0.26808735439E+03  0.87917329724E+03  0.94378312652E+03  0.17400092093E+03 0.  0.
        -24    2    5    5    0    0 -0.94216759768E+02  0.24973282548E+03  0.85713768470E+03  0.90142381366E+03  0.81465326106E+02 0.  0.
          5    1    3    3  501    0 -0.33980590152E+01 -0.14231727468E+03  0.11744502849E+03  0.18461088320E+03  0.47000000000E+01 0. -1.
        -11    1    4    4    0    0  0.56211223327E+02 -0.63247369590E+02  0.50426915289E+01  0.84766503561E+02  0.00000000000E+00 0.  1.
         12    1    4    4    0    0  0.72221843865E+02 -0.62522710116E+02  0.10357695704E+03  0.14090163250E+03  0.00000000000E+00 0. -1.
         -5    1    5    5    0  502 -0.30818248409E+02  0.18354528903E+02  0.22035612534E+02  0.42359312860E+02  0.47000000000E+01 0.  1.
         11    1    6    6    0    0 -0.13862853685E+02  0.39325426988E+02  0.59915260835E+02  0.72996619107E+02  0.00000000000E+00 0. -1.
        -12    1    6    6    0    0 -0.80353906083E+02  0.21040739850E+03  0.79722242387E+03  0.82842719456E+03  0.00000000000E+00 0.  1.
</event>
<event>
12    1  0.1035051E+000  0.2062891E+03  0.7818608E-02  0.1144945E+00
         21   -1    0    0  503  502  0.00000000000E+00  0.00000000000E+00  0.25743804533E+03  0.25743804533E+03  0.00000000000E+00 0. -1.
         21   -1    0    0  501  503 -0.00000000000E+00 -0.00000000000E+00 -0.18403384963E+03  0.18403384963E+03  0.00000000000E+00 0.  1.
          6    2    1    2  501    0  0.21153359248E+01  0.11133333846E+03  0.11022022466E+03  0.23388823810E+03  0.17365374485E+03 0.  0.
         24    2    3    3    0    0 -0.15579601562E+02  0.61321266101E+02 -0.10000214690E+02  0.10239921867E+03  0.79891013443E+02 0.  0.
         -6    2    1    2    0  502 -0.21153359248E+01 -0.11133333846E+03 -0.36816028953E+02  0.20758365686E+03  0.17127745826E+03 0.  0.
        -24    2    5    5    0    0 -0.21346229339E+02 -0.13015484986E+03  0.79258417073E+01  0.15516227245E+03  0.81342272993E+02 0.  0.
          5    1    3    3  501    0  0.17694937487E+02  0.50012072362E+02  0.12022043935E+03  0.13148901944E+03  0.47000000000E+01 0. -1.
        -13    1    4    4    0    0  0.28962505596E+02  0.13683718495E+02  0.11024532166E+02  0.33876410550E+02  0.00000000000E+00 0.  1.
         14    1    4    4    0    0 -0.44542107159E+02  0.47637547605E+02 -0.21024746857E+02  0.68522808118E+02  0.00000000000E+00 0. -1.
         -5    1    5    5    0  502  0.19230893415E+02  0.18821511398E+02 -0.44741870661E+02  0.52421384406E+02  0.47000000000E+01 0.  1.
         11    1    6    6    0    0  0.17739897472E+02 -0.61026222650E+02  0.33359084758E+02  0.71775569305E+02  0.00000000000E+00 0. -1.
        -12    1    6    6    0    0 -0.39086126811E+02 -0.69128627211E+02 -0.25433243050E+02  0.83386703144E+02  0.00000000000E+00 0.  1.
</event>
<event>
12    1  0.1035051E+000  0.2880730E+03  0.7818608E-02  0.1091424E+00
         21   -1    0    0  501  502  0.00000000000E+00  0.00000000000E+00  0.75598027184E+03  0.75598027184E+03  0.00000000000E+00 0.  1.
         21   -1    0    0  502  503 -0.00000000000E+00 -0.00000000000E+00 -0.11667522409E+03  0.11667522409E+03  0.00000000000E+00 0.  1.
         -6    2    1    2    0  503 -0.86494549814E+02  0.21426271176E+03  0.42694795299E+03  0.51477061293E+03  0.17121452211E+03 0.  0.
        -24    2    3    3    0    0 -0.51131747157E+02  0.81962303084E+02  0.32211260388E+03  0.34224100281E+03  0.63561778846E+02 0.  0.
          6    2    1    2  501    0  0.86494549814E+02 -0.21426271176E+03  0.21235709476E+03  0.35788488299E+03  0.17203556895E+03 0.  0.
         24    2    5    5    0    0 -0.17287489057E+02 -0.55228092740E+02  0.72492929583E+02  0.12198915107E+03  0.79228332271E+02 0.  0.
          5    1    5    5  501    0  0.10378203887E+03 -0.15903461902E+03  0.13986416518E+03  0.23589573192E+03  0.47000000000E+01 0. -1.
        -13    1    6    6    0    0  0.11719985967E+02 -0.53291736520E+02  0.13482809475E+02  0.56206346650E+02  0.00000000000E+00 0.  1.
         14    1    6    6    0    0 -0.29007475024E+02 -0.19363562200E+01  0.59010120108E+02  0.65782804424E+02  0.00000000000E+00 0. -1.
         -5    1    3    3    0  503 -0.35362802657E+02  0.13230040867E+03  0.10483534910E+03  0.17252961012E+03  0.47000000000E+01 0.  1.
         11    1    4    4    0    0 -0.40085824800E+02  0.20307324771E+02  0.76073585622E+02  0.88354123948E+02  0.00000000000E+00 0. -1.
        -12    1    4    4    0    0 -0.11045922357E+02  0.61654978312E+02  0.24603901826E+03  0.25388687886E+03  0.00000000000E+00 0.  1.
</event>
<event>
12    1  0.1035051E+000  0.1799684E+03  0.7818608E-02  0.1167925E+00
         21   -1    0    0  501  502  0.00000000000E+00  0.00000000000E+00  0.87994273022E+02  0.87994273022E+02  0.00000000000E+00 0. -1.
         21   -1    0    0  502  503 -0.00000000000E+00 -0.00000000000E+00 -0.62029292307E+03  0.62029292307E+03  0.00000000000E+00 0. -1.
         -6    2    1    2    0  503 -0.34627484880E+02  0.20860165676E+02 -0.39815595686E+02  0.18395125278E+03  0.17498163480E+03 0.  0.
        -24    2    3    3    0    0 -0.42631537255E+02  0.15827752067E+02 -0.92954924075E+02  0.12977313669E+03  0.78310174261E+02 0.  0.
          6    2    1    2  501    0  0.34627484880E+02 -0.20860165676E+02 -0.49248305437E+03  0.52433594332E+03  0.17536936276E+03 0.  0.
         24    2    5    5    0    0  0.35434508880E+02 -0.60786643150E+02 -0.17990101421E+03  0.20917821023E+03  0.80252902247E+02 0.  0.
          5    1    5    5  501    0 -0.80702399990E+00  0.39926477474E+02 -0.31258204016E+03  0.31515773308E+03  0.47000000000E+01 0. -1.
        -13    1    6    6    0    0 -0.20225113613E+02 -0.13617903973E+02 -0.14418754064E+02  0.28326718800E+02  0.00000000000E+00 0.  1.
         14    1    6    6    0    0  0.55659622493E+02 -0.47168739178E+02 -0.16548226014E+03  0.18085149143E+03  0.00000000000E+00 0. -1.
         -5    1    3    3    0  503  0.80040523749E+01  0.50324136094E+01  0.53139328389E+02  0.54178116088E+02  0.47000000000E+01 0.  1.
         13    1    4    4    0    0 -0.59678439933E+02 -0.39456637470E+01 -0.43856426141E+02  0.74165157379E+02  0.00000000000E+00 0. -1.
        -14    1    4    4    0    0  0.17046902678E+02  0.19773415814E+02 -0.49098497934E+02  0.55607979313E+02  0.00000000000E+00 0.  1.
</event>
<event>
12    1  0.1035051E+000  0.1764380E+03  0.7818608E-02  0.1171473E+00
         21   -1    0    0  503  502  0.00000000000E+00  0.00000000000E+00  0.29298365636E+03  0.29298365636E+03  0.00000000000E+00 0.  1.
         21   -1    0    0  501  503 -0.00000000000E+00 -0.00000000000E+00 -0.13990308891E+03  0.13990308891E+03  0.00000000000E+00 0.  1.
          6    2    1    2  501    0  0.25326897932E+01 -0.40800150832E+02  0.18324980746E+03  0.25388796351E+03  0.17090213355E+03 0.  0.
         24    2    3    3    0    0 -0.59055351258E+02 -0.13390762127E+02  0.15512261922E+03  0.18069240279E+03  0.70141787908E+02 0.  0.
         -6    2    1    2    0  502 -0.25326897932E+01  0.40800150832E+02 -0.30169240012E+02  0.17899878176E+03  0.17163715799E+03 0.  0.
        -24    2    5    5    0    0  0.55987909877E+02  0.29871075085E+02  0.16680788159E+02  0.10309673685E+03  0.79522080431E+02 0.  0.
          5    1    3    3  501    0  0.61588041051E+02 -0.27409388706E+02  0.28127188241E+02  0.73195560713E+02  0.47000000000E+01 0. -1.
        -13    1    4    4    0    0 -0.12375681224E+02  0.27690055216E+02  0.55810607557E+02  0.63519450245E+02  0.00000000000E+00 0.  1.
         14    1    4    4    0    0 -0.46679670034E+02 -0.41080817343E+02  0.99312011662E+02  0.11717295255E+03  0.00000000000E+00 0. -1.
         -5    1    5    5    0  502 -0.58520599670E+02  0.10929075747E+02 -0.46850028171E+02  0.75902044913E+02  0.47000000000E+01 0.  1.
         11    1    6    6    0    0  0.31288261072E+02  0.51106473143E+02  0.31055450237E+02  0.67492724552E+02  0.00000000000E+00 0. -1.
        -12    1    6    6    0    0  0.24699648805E+02 -0.21235398058E+02 -0.14374662078E+02  0.35604012297E+02  0.00000000000E+00 0.  1.
</event>
<event>
12    1  0.1035051E+000  0.2047065E+03  0.7818608E-02  0.1151977E+00
         21   -1    0    0  503  502  0.00000000000E+00  0.00000000000E+00  0.14928035275E+03  0.14928035275E+03  0.00000000000E+00 0. -1.
         21   -1    0    0  501  503 -0.00000000000E+00 -0.00000000000E+00 -0.11055272063E+04  0.11055272063E+04  0.00000000000E+00 0. -1.
          6    2    1    2  501    0  0.37636170866E+02  0.58212505558E+02  0.67762635853E+02  0.21563056488E+03  0.19261253472E+03 0.  0.
         24    2    3    3    0    0  0.43627742490E+02 -0.43428243542E+02  0.48435123254E+02  0.11188865652E+03  0.79898172949E+02 0.  0.
         -6    2    1    2    0  502 -0.37636170866E+02 -0.58212505558E+02 -0.10240094894E+04  0.10391769942E+04  0.16275200047E+03 0.  0.
        -24    2    5    5    0    0 -0.25714871315E+02  0.14216277254E+02 -0.77543482455E+03  0.77994833069E+03  0.78465752219E+02 0.  0.
          5    1    3    3  501    0 -0.59915716248E+01  0.10164074910E+03  0.19327512599E+02  0.10374190837E+03  0.47000000000E+01 0. -1.
        -13    1    4    4    0    0 -0.22107204504E+02 -0.16562282802E+02  0.34785286032E+01  0.27841297811E+02  0.00000000000E+00 0.  1.
         14    1    4    4    0    0  0.65734946994E+02 -0.26865960740E+02  0.44956594651E+02  0.84047358705E+02  0.00000000000E+00 0. -1.
         -5    1    5    5    0  502 -0.11921299551E+02 -0.72428782812E+02 -0.24857466489E+03  0.25922866352E+03  0.47000000000E+01 0.  1.
         13    1    6    6    0    0 -0.49783425679E+02  0.18853638370E+02 -0.37445468472E+03  0.37821972458E+03  0.00000000000E+00 0. -1.
        -14    1    6    6    0    0  0.24068554364E+02 -0.46373611155E+01 -0.40098013983E+03  0.40172860611E+03  0.00000000000E+00 0.  1.
</event>
<event>
12    1  0.1035051E+000  0.2223061E+03  0.7818608E-02  0.1132540E+00
         21   -1    0    0  503  502  0.00000000000E+00  0.00000000000E+00  0.70131175252E+02  0.70131175252E+02  0.00000000000E+00 0. -1.
         21   -1    0    0  501  503 -0.00000000000E+00 -0.00000000000E+00 -0.13247734327E+04  0.13247734327E+04  0.00000000000E+00 0. -1.
          6    2    1    2  501    0  0.58175680712E+02 -0.12820801250E+03 -0.14628314343E+03  0.26447109107E+03  0.16948302471E+03 0.  0.
         24    2    3    3    0    0  0.39696355617E+02 -0.14223740521E+03 -0.16376714350E+03  0.23504169124E+03  0.81348873633E+02 0.  0.
         -6    2    1    2    0  502 -0.58175680712E+02  0.12820801250E+03 -0.11083591140E+04  0.11304335169E+04  0.17204158267E+03 0.  0.
        -24    2    5    5    0    0 -0.20074197934E+02 -0.22345219301E+01 -0.51534688867E+03  0.52203186732E+03  0.80789159691E+02 0.  0.
          5    1    3    3  501    0  0.18479325094E+02  0.14029392710E+02  0.17484000071E+02  0.29429399828E+02  0.47000000000E+01 0. -1.
        -13    1    4    4    0    0  0.52396566641E+02 -0.44222067621E+02 -0.53526118452E+02  0.86982968545E+02  0.00000000000E+00 0.  1.
         14    1    4    4    0    0 -0.12700211024E+02 -0.98015337589E+02 -0.11024102505E+03  0.14805872270E+03  0.00000000000E+00 0. -1.
         -5    1    5    5    0  502 -0.38101482777E+02  0.13044253443E+03 -0.59301222532E+03  0.60840164954E+03  0.47000000000E+01 0.  1.
         13    1    6    6    0    0 -0.39596544449E+02 -0.15393269363E+02 -0.14924605910E+03  0.15517482151E+03  0.00000000000E+00 0. -1.
        -14    1    6    6    0    0  0.19522346515E+02  0.13158747432E+02 -0.36610082957E+03  0.36685704581E+03  0.00000000000E+00 0.  1.
</event>
<event>
12    1  0.1035051E+000  0.2640984E+03  0.7818608E-02  0.1104733E+00
         21   -1    0    0  503  502  0.00000000000E+00  0.00000000000E+00  0.31548965490E+03  0.31548965490E+03  0.00000000000E+00 0. -1.
         21   -1    0    0  501  503 -0.00000000000E+00 -0.00000000000E+00 -0.22649734518E+03  0.22649734518E+03  0.00000000000E+00 0.  1.
          6    2    1    2  501    0 -0.13075674107E+03  0.15213724524E+03  0.19697699373E+01  0.26392064713E+03  0.17148516339E+03 0.  0.
         24    2    3    3    0    0 -0.64669587112E+02  0.12263486726E+03 -0.56263189231E+02  0.17090952006E+03  0.82601764020E+02 0.  0.
         -6    2    1    2    0  502  0.13075674107E+03 -0.15213724524E+03  0.87022539775E+02  0.27806635295E+03  0.17176992604E+03 0.  0.
        -24    2    5    5    0    0  0.14701107661E+03 -0.14602649865E+03  0.10923878480E+03  0.24947970938E+03  0.85854634883E+02 0.  0.
          5    1    3    3  501    0 -0.66087153957E+02  0.29502377975E+02  0.58232959168E+02  0.93011127065E+02  0.47000000000E+01 0. -1.
        -13    1    4    4    0    0 -0.30128695392E+02  0.11663960889E+03 -0.61837128142E+02  0.13541184241E+03  0.00000000000E+00 0.  1.
         14    1    4    4    0    0 -0.34540891719E+02  0.59952583757E+01  0.55739389116E+01  0.35497677653E+02  0.00000000000E+00 0. -1.
         -5    1    5    5    0  502 -0.16254335543E+02 -0.61107465876E+01 -0.22216245028E+02  0.28586643576E+02  0.47000000000E+01 0.  1.
         11    1    6    6    0    0  0.63916793813E+02 -0.10238348430E+03  0.96965065809E+02  0.15482234456E+03  0.00000000000E+00 0. -1.
        -12    1    6    6    0    0  0.83094282799E+02 -0.43643014349E+02  0.12273718994E+02  0.94657364813E+02  0.00000000000E+00 0.  1.
</event>
<event>
12    1  0.1035051E+000  0.2002601E+03  0.7818608E-02  0.1151754E+00
         21   -1    0    0  501  502  0.00000000000E+00  0.00000000000E+00  0.12324216616E+03  0.12324216616E+03  0.00000000000E+00 0.  1.
         21   -1    0    0  502  503 -0.00000000000E+00 -0.00000000000E+00 -0.32127282315E+03  0.32127282315E+03  0.00000000000E+00 0.  1.
         -6    2    1    2    0  503 -0.43756126630E+02  0.64900221067E+02 -0.14520022746E+03  0.24736046679E+03  0.18432975117E+03 0.  0.
        -24    2    3    3    0    0 -0.47346788046E+01 -0.20485210605E+02 -0.10029948199E+02  0.82720132343E+02  0.79372283557E+02 0.  0.
          6    2    1    2  501    0  0.43756126630E+02 -0.64900221067E+02 -0.52830429528E+02  0.19715452252E+03  0.17306707993E+03 0.  0.
         24    2    5    5    0    0  0.47101541317E+02 -0.51681632870E+02  0.31117401403E+02  0.11197676022E+03  0.81737113894E+02 0.  0.
          5    1    5    5  501    0 -0.33454146870E+01 -0.13218588197E+02 -0.83947830931E+02  0.85177762305E+02  0.47000000000E+01 0. -1.
        -11    1    6    6    0    0 -0.10472766744E+02 -0.25586995829E+02  0.39497083649E+02  0.48211957185E+02  0.00000000000E+00 0.  1.
         12    1    6    6    0    0  0.57574308061E+02 -0.26094637041E+02 -0.83796822454E+01  0.63764803031E+02  0.00000000000E+00 0. -1.
         -5    1    3    3    0  503 -0.39021447825E+02  0.85385431672E+02 -0.13517027926E+03  0.16464033445E+03  0.47000000000E+01 0.  1.
         11    1    4    4    0    0 -0.26530920005E+02  0.18304286023E+02  0.10249239500E+02  0.33822825332E+02  0.00000000000E+00 0. -1.
        -12    1    4    4    0    0  0.21796241200E+02 -0.38789496629E+02 -0.20279187699E+02  0.48897307011E+02  0.00000000000E+00 0.  1.
</event>
<event>
12    1  0.1035051E+000  0.2686759E+03  0.7818608E-02  0.1102068E+00
         21   -1    0    0  503  502  0.00000000000E+00  0.00000000000E+00  0.13881333093E+04  0.13881333093E+04  0.00000000000E+00 0. -1.
         21   -1    0    0  501  503 -0.00000000000E+00 -0.00000000000E+00 -0.55028959487E+02  0.55028959487E+02  0.00000000000E+00 0.  1.
          6    2    1    2  501    0 -0.27334088437E+02 -0.20445697186E+03  0.83706687142E+03  0.87912893494E+03  0.17215380123E+03 0.  0.
         24    2    3    3    0    0  0.63957589253E+01 -0.21739779119E+03  0.70596502003E+03  0.74305927319E+03  0.80297998894E+02 0.  0.
         -6    2    1    2    0  502  0.27334088437E+02  0.20445697186E+03  0.49603747836E+03  0.56403333382E+03  0.17184474385E+03 0.  0.
        -24    2    5    5    0    0  0.51447783615E+02  0.10213810704E+03  0.39167188039E+03  0.41582777241E+03  0.80167369109E+02 0.  0.
          5    1    3    3  501    0 -0.33729847362E+02  0.12940819336E+02  0.13110185139E+03  0.13606966174E+03  0.47000000000E+01 0. -1.
        -13    1    4    4    0    0 -0.30265510925E+02 -0.61565291931E+02  0.15948675123E+03  0.17361540870E+03  0.00000000000E+00 0.  1.
         14    1    4    4    0    0  0.36661269850E+02 -0.15583249926E+03  0.54647826880E+03  0.56944386449E+03  0.00000000000E+00 0. -1.
         -5    1    5    5    0  502 -0.24113695178E+02  0.10231886482E+03  0.10436559797E+03  0.14820556141E+03  0.47000000000E+01 0.  1.
         13    1    6    6    0    0 -0.12668636228E+02  0.54017933272E+02  0.11350934671E+03  0.12634398778E+03  0.00000000000E+00 0. -1.
        -14    1    6    6    0    0  0.64116419842E+02  0.48120173764E+02  0.27816253368E+03  0.28948378463E+03  0.00000000000E+00 0.  1.
</event>
<event>
12    1  0.1035051E+000  0.1842565E+03  0.7818608E-02  0.1163784E+00
         21   -1    0    0  503  502  0.00000000000E+00  0.00000000000E+00  0.13114726858E+03  0.13114726858E+03  0.00000000000E+00 0. -1.
         21   -1    0    0  501  503 -0.00000000000E+00 -0.00000000000E+00 -0.32087573738E+03  0.32087573738E+03  0.00000000000E+00 0. -1.
          6    2    1    2  501    0  0.17087120472E+02 -0.62081552296E+02  0.46322936036E+01  0.18431469704E+03  0.17263939463E+03 0.  0.
         24    2    3    3    0    0  0.43366356168E+02 -0.43801799023E+02  0.62444041951E+02  0.11806489813E+03  0.78998881958E+02 0.  0.
         -6    2    1    2    0  502 -0.17087120472E+02  0.62081552296E+02 -0.19436076240E+03  0.26770830892E+03  0.17246896498E+03 0.  0.
        -24    2    5    5    0    0 -0.19851298250E+02  0.61148273303E+02 -0.34731272288E+02  0.10798299532E+03  0.79503966156E+02 0.  0.
          5    1    3    3  501    0 -0.26279235696E+02 -0.18279753273E+02 -0.57811748347E+02  0.66249798909E+02  0.47000000000E+01 0. -1.
        -11    1    4    4    0    0 -0.20155519455E+02 -0.25028866403E+02  0.31340582345E+02  0.44887873860E+02  0.00000000000E+00 0.  1.
         12    1    4    4    0    0  0.63521875623E+02 -0.18772932620E+02  0.31103459606E+02  0.73177024272E+02  0.00000000000E+00 0. -1.
         -5    1    5    5    0  502  0.27641777782E+01  0.93327899295E+00 -0.15962949011E+03  0.15972531359E+03  0.47000000000E+01 0.  1.
         11    1    6    6    0    0 -0.13888336677E+02 -0.18746520284E+00 -0.43567341273E+02  0.45727828119E+02  0.00000000000E+00 0. -1.
        -12    1    6    6    0    0 -0.59629615727E+01  0.61335738506E+02  0.88360689852E+01  0.62255167206E+02  0.00000000000E+00 0.  1.
</event>
<event>
12    1  0.1035051E+000  0.1789959E+03  0.7818608E-02  0.1168868E+00
         21   -1    0    0  501  502  0.00000000000E+00  0.00000000000E+00  0.41574861901E+03  0.41574861901E+03  0.00000000000E+00 0.  1.
         21   -1    0    0  502  503 -0.00000000000E+00 -0.00000000000E+00 -0.10233021415E+03  0.10233021415E+03  0.00000000000E+00 0.  1.
         -6    2    1    2    0  503 -0.43865885288E+02  0.26448484646E+02  0.28570381592E+03  0.33695010035E+03  0.17112849402E+03 0.  0.
        -24    2    3    3    0    0 -0.49834168766E+02 -0.42536476007E+02  0.12237469330E+03  0.15948732257E+03  0.78535624605E+02 0.  0.
          6    2    1    2  501    0  0.43865885288E+02 -0.26448484646E+02  0.27714588942E+02  0.18112873280E+03  0.17151029466E+03 0.  0.
         24    2    5    5    0    0 -0.21064197753E+02 -0.69399336463E+02  0.25733304294E+02  0.10311138317E+03  0.68627881071E+02 0.  0.
          5    1    5    5  501    0  0.64930083041E+02  0.42950851817E+02  0.19812846487E+01  0.78017349637E+02  0.47000000000E+01 0. -1.
        -13    1    6    6    0    0 -0.18412548726E+01 -0.38702218485E+02 -0.20932705458E+02  0.44038961080E+02  0.00000000000E+00 0.  1.
         14    1    6    6    0    0 -0.19222942880E+02 -0.30697117978E+02  0.46666009752E+02  0.59072422087E+02  0.00000000000E+00 0. -1.
         -5    1    3    3    0  503  0.59682834774E+01  0.68984960653E+02  0.16332912262E+03  0.17746277778E+03  0.47000000000E+01 0.  1.
         11    1    4    4    0    0 -0.47396510490E+02  0.36854349863E+01  0.30136145474E+02  0.56286756006E+02  0.00000000000E+00 0. -1.
        -12    1    4    4    0    0 -0.24376582757E+01 -0.46221910993E+02  0.92238547827E+02  0.10320056656E+03  0.00000000000E+00 0.  1.
</event>
<event>
12    1  0.1035051E+000  0.2321037E+03  0.7818608E-02  0.1125179E+00
         21   -1    0    0  501  502  0.00000000000E+00  0.00000000000E+00  0.17941550764E+03  0.17941550764E+03  0.00000000000E+00 0.  1.
         21   -1    0    0  502  503 -0.00000000000E+00 -0.00000000000E+00 -0.76887685631E+03  0.76887685631E+03  0.00000000000E+00 0.  1.
         -6    2    1    2    0  503 -0.74229058469E+02  0.13632391263E+03  0.75446662810E+02  0.24405799939E+03  0.17256287510E+03 0.  0.
        -24    2    3    3    0    0  0.70265752537E+01  0.68760520820E+02  0.88012011844E+02  0.13753444369E+03  0.79951403914E+02 0.  0.
          6    2    1    2  501    0  0.74229058469E+02 -0.13632391263E+03 -0.66490801148E+03  0.70423436456E+03  0.17247960524E+03 0.  0.
         24    2    5    5    0    0  0.30597302886E+02 -0.12718067745E+03 -0.62721291813E+03  0.64566526941E+03  0.79852838321E+02 0.  0.
          5    1    5    5  501    0  0.43631755582E+02 -0.91432351774E+01 -0.37695093351E+02  0.58569095156E+02  0.47000000000E+01 0. -1.
        -13    1    6    6    0    0  0.98946739420E+01 -0.34433543323E+02 -0.55166475282E+02  0.65779278448E+02  0.00000000000E+00 0.  1.
         14    1    6    6    0    0  0.20702628944E+02 -0.92747134127E+02 -0.57204644285E+03  0.57988599096E+03  0.00000000000E+00 0. -1.
         -5    1    3    3    0  503 -0.81255633722E+02  0.67563391808E+02 -0.12565349034E+02  0.10652355571E+03  0.47000000000E+01 0.  1.
         11    1    4    4    0    0 -0.28021794855E+02  0.63640472020E+02  0.65747120957E+02  0.95697516059E+02  0.00000000000E+00 0. -1.
        -12    1    4    4    0    0  0.35048370108E+02  0.51200488001E+01  0.22264890887E+02  0.41836927626E+02  0.00000000000E+00 0.  1.
</event>
<event>
12    1  0.1035051E+000  0.2104428E+03  0.7818608E-02  0.1142916E+00
         21   -1    0    0  503  502  0.00000000000E+00  0.00000000000E+00  0.28173969594E+03  0.28173969594E+03  0.00000000000E+00 0. -1.
         21   -1    0    0  501  503 -0.00000000000E+00 -0.00000000000E+00 -0.16085802762E+03  0.16085802762E+03  0.00000000000E+00 0. -1.
          6    2    1    2  501    0 -0.14721372904E+02 -0.10446165768E+03  0.67095435061E+01  0.21054977937E+03  0.18209128171E+03 0.  0.
         24    2    3    3    0    0 -0.47318896057E+02 -0.20971395942E+02 -0.50210224691E+02  0.10427103111E+03  0.75316026800E+02 0.  0.
         -6    2    1    2    0  502  0.14721372904E+02  0.10446165768E+03  0.11417212481E+03  0.23204794420E+03  0.17228469920E+03 0.  0.
        -24    2    5    5    0    0 -0.46471605649E+02  0.30994253623E+02  0.25250680076E+02  0.10139132012E+03  0.80761061545E+02 0.  0.
          5    1    3    3  501    0  0.32597523153E+02 -0.83490261733E+02  0.56919768197E+02  0.10627874826E+03  0.47000000000E+01 0. -1.
        -13    1    4    4    0    0 -0.47200993398E+02 -0.41830124999E+02 -0.17458177850E+02  0.65440668617E+02  0.00000000000E+00 0.  1.
         14    1    4    4    0    0 -0.11790265929E+00  0.20858729057E+02 -0.32752046841E+02  0.38830362491E+02  0.00000000000E+00 0. -1.
         -5    1    5    5    0  502  0.61192978553E+02  0.73467404053E+02  0.88921444736E+02  0.13065662408E+03  0.47000000000E+01 0.  1.
         13    1    6    6    0    0 -0.38493239453E+02 -0.20635853969E+02  0.73422403062E+00  0.43681884546E+02  0.00000000000E+00 0. -1.
        -14    1    6    6    0    0 -0.79783661964E+01  0.51630107591E+02  0.24516456045E+02  0.57709435572E+02  0.00000000000E+00 0.  1.
</event>
<event>
12    1  0.1035051E+000  0.2249083E+03  0.7818608E-02  0.1130286E+00
         21   -1    0    0  501  502  0.00000000000E+00  0.00000000000E+00  0.21983617858E+03  0.21983617858E+03  0.00000000000E+00 0.  1.
         21   -1    0    0  502  503 -0.00000000000E+00 -0.00000000000E+00 -0.28460962503E+03  0.28460962503E+03  0.00000000000E+00 0.  1.
         -6    2    1    2    0  503  0.10358707600E+03  0.10382332187E+03  0.78060373559E+02  0.23801520907E+03  0.17043548149E+03 0.  0.
        -24    2    3    3    0    0  0.92495068528E+02  0.11107535912E+03  0.62641614196E+01  0.16485503717E+03  0.79024492763E+02 0.  0.
          6    2    1    2  501    0 -0.10358707600E+03 -0.10382332187E+03 -0.14283382001E+03  0.26643059455E+03  0.17051157466E+03 0.  0.
         24    2    5    5    0    0 -0.60271092532E+01 -0.13661885090E+01 -0.46702474142E+02  0.95320288173E+02  0.82865214230E+02 0.  0.
          5    1    5    5  501    0 -0.97559966749E+02 -0.10245713336E+03 -0.96131345867E+02  0.17111030637E+03  0.47000000000E+01 0. -1.
        -13    1    6    6    0    0 -0.44329384885E+02 -0.18653465457E+01 -0.20266549691E+02  0.48778139760E+02  0.00000000000E+00 0.  1.
         14    1    6    6    0    0  0.38302275632E+02  0.49915803672E+00 -0.26435924451E+02  0.46542148413E+02  0.00000000000E+00 0. -1.
         -5    1    3    3    0  503  0.11092007475E+02 -0.72520372558E+01  0.71796212139E+02  0.73160171895E+02  0.47000000000E+01 0.  1.
         13    1    4    4    0    0  0.97752846990E+02  0.73213822118E+02  0.20934244559E+02  0.12391176473E+03  0.00000000000E+00 0. -1.
        -14    1    4    4    0    0 -0.52577784626E+01  0.37861537006E+02 -0.14670083139E+02  0.40943272441E+02  0.00000000000E+00 0.  1.
</event>
<event>
12    1  0.1035051E+000  0.1750582E+03  0.7818608E-02  0.1172868E+00
         21   -1    0    0  501  502  0.00000000000E+00  0.00000000000E+00  0.93738296306E+02  0.93738296306E+02  0.00000000000E+00 0. -1.
         21   -1    0    0  502  503 -0.00000000000E+00 -0.00000000000E+00 -0.34043936509E+03  0.34043936509E+03  0.00000000000E+00 0. -1.
         -6    2    1    2    0  503  0.23169397496E+02 -0.16862347070E+02 -0.16911431882E+03  0.24340298603E+03  0.17269684725E+03 0.  0.
        -24    2    3    3    0    0  0.74897442111E+01  0.58698874477E+02 -0.92997308905E+02  0.13490764545E+03  0.77781226557E+02 0.  0.
          6    2    1    2  501    0 -0.23169397496E+02  0.16862347070E+02 -0.77586749965E+02  0.19077467537E+03  0.17191309799E+03 0.  0.
         24    2    5    5    0    0 -0.49177968123E+02 -0.35140622539E+02 -0.11396975177E+02  0.10254808708E+03  0.82054148094E+02 0.  0.
          5    1    5    5  501    0  0.26008570627E+02  0.52002969609E+02 -0.66189774788E+02  0.88226588287E+02  0.47000000000E+01 0. -1.
        -13    1    6    6    0    0 -0.51563618070E+02  0.13429585219E+02 -0.58414348540E+01  0.53603011377E+02  0.00000000000E+00 0.  1.
         14    1    6    6    0    0  0.23856499463E+01 -0.48570207757E+02 -0.55555403229E+01  0.48945075703E+02  0.00000000000E+00 0. -1.
         -5    1    3    3    0  503  0.15679653285E+02 -0.75561221547E+02 -0.76117009917E+02  0.10849534058E+03  0.47000000000E+01 0.  1.
         11    1    4    4    0    0 -0.21963728582E+02  0.57643582148E+01  0.13938986146E+01  0.22750300047E+02  0.00000000000E+00 0. -1.
        -12    1    4    4    0    0  0.29453472793E+02  0.52934516262E+02 -0.94391207520E+02  0.11215734541E+03  0.00000000000E+00 0.  1.
</event>
<event>
12    1  0.1035051E+000  0.3825003E+03  0.7818608E-02  0.1050025E+00
         21   -1    0    0  503  502  0.00000000000E+00  0.00000000000E+00  0.22441917375E+03  0.22441917375E+03  0.00000000000E+00 0.  1.
         21   -1    0    0  501  503 -0.00000000000E+00 -0.00000000000E+00 -0.79425192360E+03  0.79425192360E+03  0.00000000000E+00 0.  1.
          6    2    1    2  501    0  0.32966026353E+03  0.90234176741E+02 -0.69194257468E+02  0.38870857831E+03  0.17172191935E+03 0.  0.
         24    2    3    3    0    0  0.16935559703E+03  0.78903236782E+02 -0.97895525481E+02  0.22539345627E+03  0.79445812984E+02 0.  0.
         -6    2    1    2    0  502 -0.32966026353E+03 -0.90234176741E+02 -0.50063849238E+03  0.62996251904E+03  0.17145197387E+03 0.  0.
        -24    2    5    5    0    0 -0.63045649293E+02 -0.20420494224E+02 -0.19697486515E+03  0.21985156907E+03  0.71720739258E+02 0.  0.
          5    1    3    3  501    0  0.16030466650E+03  0.11330939959E+02  0.28701268013E+02  0.16331512204E+03  0.47000000000E+01 0. -1.
        -13    1    4    4    0    0  0.36670940535E+02  0.42317626504E+02 -0.61195439666E+02  0.82948304555E+02  0.00000000000E+00 0.  1.
         14    1    4    4    0    0  0.13268465649E+03  0.36585610278E+02 -0.36700085815E+02  0.14244515172E+03  0.00000000000E+00 0. -1.
         -5    1    5    5    0  502 -0.26661461424E+03 -0.69813682517E+02 -0.30366362723E+03  0.41011094998E+03  0.47000000000E+01 0.  1.
         13    1    6    6    0    0  0.15934235056E+02 -0.25295969660E+01 -0.42041197243E+02  0.45030667031E+02  0.00000000000E+00 0. -1.
        -14    1    6    6    0    0 -0.78979884348E+02 -0.17890897258E+02 -0.15493366791E+03  0.17482090203E+03  0.00000000000E+00 0.  1.
</event>
<event>
12    1  0.1035051E+000  0.1869456E+03  0.7818608E-02  0.1161276E+00
         21   -1    0    0  503  502  0.00000000000E+00  0.00000000000E+00  0.12208647186E+03  0.12208647186E+03  0.00000000000E+00 0.  1.
         21   -1    0    0  501  503 -0.00000000000E+00 -0.00000000000E+00 -0.37309304455E+03  0.37309304455E+03  0.00000000000E+00 0.  1.
          6    2    1    2  501    0  0.41316016214E+02 -0.61372841046E+02 -0.58862235378E+01  0.18690588191E+03  0.17153869024E+03 0.  0.
         24    2    3    3    0    0  0.40640514803E+02  0.31412698258E+02  0.27308791312E+01  0.93600163624E+02  0.78199257504E+02 0.  0.
         -6    2    1    2    0  502 -0.41316016214E+02  0.61372841046E+02 -0.24512034914E+03  0.30827363450E+03  0.17168287437E+03 0.  0.
        -24    2    5    5    0    0 -0.38036921584E+02  0.89449563446E+02 -0.25001081945E+03  0.27920369295E+03  0.77467803048E+02 0.  0.
          5    1    3    3  501    0  0.67550141141E+00 -0.92785539304E+02 -0.86171026690E+01  0.93305718284E+02  0.47000000000E+01 0. -1.
        -13    1    4    4    0    0  0.55915765147E+02  0.37057978973E+02 -0.15814033639E+02  0.68919882890E+02  0.00000000000E+00 0.  1.
         14    1    4    4    0    0 -0.15275250344E+02 -0.56452807154E+01  0.18544912770E+02  0.24680280734E+02  0.00000000000E+00 0. -1.
         -5    1    5    5    0  502 -0.32790946302E+01 -0.28076722400E+02  0.48904703037E+01  0.29069941557E+02  0.47000000000E+01 0.  1.
         11    1    6    6    0    0 -0.35483275762E+02  0.51579132864E+02 -0.22548037540E+03  0.23401040468E+03  0.00000000000E+00 0. -1.
        -12    1    6    6    0    0 -0.25536458224E+01  0.37870430582E+02 -0.24530444047E+02  0.45193288270E+02  0.00000000000E+00 0.  1.
</event>
<event>
12    1  0.1035051E+000  0.4612407E+03  0.7818608E-02  0.1024471E+00
         21   -1    0    0  503  502  0.00000000000E+00  0.00000000000E+00  0.14537681661E+04  0.14537681661E+04  0.00000000000E+00 0.  1.
         21   -1    0    0  501  503 -0.00000000000E+00 -0.00000000000E+00 -0.14613116826E+03  0.14613116826E+03  0.00000000000E+00 0.  1.
          6    2    1    2  501    0  0.39206535508E+03 -0.17120416171E+03  0.64922673607E+03  0.79639081371E+03  0.17238580480E+03 0.  0.
         24    2    3    3    0    0  0.11219803416E+03 -0.94487467035E+02  0.28889349903E+03  0.33371025406E+03  0.79917454847E+02 0.  0.
         -6    2    1    2    0  502 -0.39206535508E+03  0.17120416171E+03  0.65841026175E+03  0.80350852063E+03  0.17057479972E+03 0.  0.
        -24    2    5    5    0    0 -0.33356598031E+03  0.80224414893E+02  0.49250342888E+03  0.60540082675E+03  0.79046275091E+02 0.  0.
          5    1    3    3  501    0  0.27986732092E+03 -0.76716694679E+02  0.36033323704E+03  0.46268055965E+03  0.47000000000E+01 0. -1.
        -13    1    4    4    0    0  0.16717414298E+02 -0.59838476935E+02  0.78763747634E+02  0.10031870815E+03  0.00000000000E+00 0.  1.
         14    1    4    4    0    0  0.95480619858E+02 -0.34648990100E+02  0.21012975139E+03  0.23339154591E+03  0.00000000000E+00 0. -1.
         -5    1    5    5    0  502 -0.58499374767E+02  0.90979746820E+02  0.16590683288E+03  0.19810769388E+03  0.47000000000E+01 0.  1.
         13    1    6    6    0    0 -0.16276855407E+03  0.64121192197E+02  0.19496485444E+03  0.26194736866E+03  0.00000000000E+00 0. -1.
        -14    1    6    6    0    0 -0.17079742624E+03  0.16103222697E+02  0.29753857444E+03  0.34345345809E+03  0.00000000000E+00 0.  1.
</event>
<event>
12    1  0.1035051E+000  0.1877633E+03  0.7818608E-02  0.1160624E+00
         21   -1    0    0  501  502  0.00000000000E+00  0.00000000000E+00  0.10620429819E+03  0.10620429819E+03  0.00000000000E+00 0.  1.
         21   -1    0    0  502  503 -0.00000000000E+00 -0.00000000000E+00 -0.34573117277E+03  0.34573117277E+03  0.00000000000E+00 0.  1.
         -6    2    1    2    0  503 -0.27062638013E+02  0.68521374701E+02 -0.16630891199E+03  0.25040150851E+03  0.17208920969E+03 0.  0.
        -24    2    3    3    0    0  0.12605158103E+02  0.10477579859E+03 -0.11021403054E+03  0.17257707131E+03  0.80615476388E+02 0.  0.
          6    2    1    2  501    0  0.27062638013E+02 -0.68521374701E+02 -0.73217962592E+02  0.20153396245E+03  0.17270640638E+03 0.  0.
         24    2    5    5    0    0  0.48596473477E+02 -0.58346519839E+02  0.12072352683E+02  0.11285610940E+03  0.82612505820E+02 0.  0.
          5    1    5    5  501    0 -0.21533835463E+02 -0.10174854862E+02 -0.85290315275E+02  0.88677853046E+02  0.47000000000E+01 0. -1.
        -13    1    6    6    0    0 -0.97312885921E+01  0.14775424997E+02 -0.34940851586E+01  0.18033851297E+02  0.00000000000E+00 0.  1.
         14    1    6    6    0    0  0.58327762069E+02 -0.73121944837E+02  0.15566437842E+02  0.94822258103E+02  0.00000000000E+00 0. -1.
         -5    1    3    3    0  503 -0.39667796116E+02 -0.36254423892E+02 -0.56094881448E+02  0.77824437197E+02  0.47000000000E+01 0.  1.
         11    1    4    4    0    0  0.26654452400E+01  0.10549342164E+02 -0.67972911584E+02  0.68838288239E+02  0.00000000000E+00 0. -1.
        -12    1    4    4    0    0  0.99397128630E+01  0.94226456429E+02 -0.42241118956E+02  0.10373878307E+03  0.00000000000E+00 0.  1.
</event>
<event>
12    1  0.1035051E+000  0.2636781E+03  0.7818608E-02  0.1105934E+00
         21   -1    0    0  503  502  0.00000000000E+00  0.00000000000E+00  0.60350615072E+03  0.60350615072E+03  0.00000000000E+00 0.  1.
         21   -1    0    0  501  503 -0.00000000000E+00 -0.00000000000E+00 -0.15087928813E+03  0.15087928813E+03  0.00000000000E+00 0.  1.
          6    2    1    2  501    0  0.18704017431E+03  0.34256770778E+02  0.41477349307E+03  0.48800406243E+03  0.17307039388E+03 0.  0.
         24    2    3    3    0    0  0.15985907322E+03  0.26234913713E+02  0.19307791489E+03  0.26445500331E+03  0.80088535803E+02 0.  0.
         -6    2    1    2    0  502 -0.18704017431E+03 -0.34256770778E+02  0.37853369515E+02  0.26638137642E+03  0.18267076112E+03 0.  0.
        -24    2    5    5    0    0 -0.17776235321E+03 -0.11615570774E+02 -0.26989552638E+02  0.19691630278E+03  0.79455765342E+02 0.  0.
          5    1    3    3  501    0  0.27181101089E+02  0.80218570649E+01  0.22169557818E+03  0.22354905912E+03  0.47000000000E+01 0. -1.
        -13    1    4    4    0    0  0.12507193807E+03  0.31954544748E+02  0.95128480435E+02  0.16035432770E+03  0.00000000000E+00 0.  1.
         14    1    4    4    0    0  0.34787135147E+02 -0.57196310347E+01  0.97949434453E+02  0.10410067560E+03  0.00000000000E+00 0. -1.
         -5    1    5    5    0  502 -0.92778210977E+01 -0.22641200004E+02  0.64842922153E+02  0.69465073636E+02  0.47000000000E+01 0.  1.
         13    1    6    6    0    0 -0.34106828597E+02  0.29707576780E+02 -0.13378400424E+01  0.45250477247E+02  0.00000000000E+00 0. -1.
        -14    1    6    6    0    0 -0.14365552462E+03 -0.41323147555E+02 -0.25651712596E+02  0.15166582554E+03  0.00000000000E+00 0.  1.
</event>
<event>
12    1  0.1035051E+000  0.2228782E+03  0.7818608E-02  0.1131775E+00
         21   -1    0    0  503  502  0.00000000000E+00  0.00000000000E+00  0.31989202756E+02  0.31989202756E+02  0.00000000000E+00 0.  1.
         21   -1    0    0  501  503 -0.00000000000E+00 -0.00000000000E+00 -0.15811410764E+04  0.15811410764E+04  0.00000000000E+00 0. -1.
          6    2    1    2  501    0 -0.72933063685E+02 -0.12072611575E+03 -0.66508949643E+03  0.70140609019E+03  0.17243096673E+03 0.  0.
         24    2    3    3    0    0 -0.49362613899E+02 -0.14393093262E+03 -0.62929603904E+03  0.65244394949E+03  0.80726832404E+02 0.  0.
         -6    2    1    2    0  502  0.72933063685E+02  0.12072611575E+03 -0.88406237721E+03  0.91172418896E+03  0.17257080616E+03 0.  0.
        -24    2    5    5    0    0  0.74228657230E+02  0.15426124739E+03 -0.75378087496E+03  0.77710753529E+03  0.80025545631E+02 0.  0.
          5    1    3    3  501    0 -0.23570449786E+02  0.23204816871E+02 -0.35793457398E+02  0.48962140697E+02  0.47000000000E+01 0. -1.
        -11    1    4    4    0    0  0.70596869658E+01 -0.40272927315E+02 -0.72100804356E+02  0.82887115062E+02  0.00000000000E+00 0.  1.
         12    1    4    4    0    0 -0.56422300865E+02 -0.10365800531E+03 -0.55719523468E+03  0.56955683443E+03  0.00000000000E+00 0. -1.
         -5    1    5    5    0  502 -0.12955935451E+01 -0.33535131640E+02 -0.13028150225E+03  0.13461665367E+03  0.47000000000E+01 0.  1.
         13    1    6    6    0    0  0.46767204683E+01  0.76037968191E+02 -0.43388249342E+03  0.44051976393E+03  0.00000000000E+00 0. -1.
        -14    1    6    6    0    0  0.69551936762E+02  0.78223279201E+02 -0.31989838154E+03  0.33658777136E+03  0.00000000000E+00 0.  1.
</event>
<event>
12    1  0.1035051E+000  0.2815701E+03  0.7818608E-02  0.1095891E+00
         21   -1    0    0  501  502  0.00000000000E+00  0.00000000000E+00  0.44906019149E+03  0.44906019149E+03  0.00000000000E+00 0. -1.
         21   -1    0    0  502  503 -0.00000000000E+00 -0.00000000000E+00 -0.20446443725E+03  0.20446443725E+03  0.00000000000E+00 0. -1.
         -6    2    1    2    0  503 -0.21230027601E+03  0.66874351323E+02  0.25153781320E+03  0.37186897933E+03  0.15959849705E+03 0.  0.
        -24    2    3    3    0    0 -0.20357007189E+03  0.99496580399E+02  0.22092416978E+03  0.32604637075E+03  0.78475495576E+02 0.  0.
          6    2    1    2  501    0  0.21230027601E+03 -0.66874351323E+02 -0.69420589579E+01  0.28165564941E+03  0.17244746041E+03 0.  0.
         24    2    5    5    0    0  0.13954862066E+03  0.11361333417E+02  0.38448609916E+02  0.16548324070E+03  0.79394646700E+02 0.  0.
          5    1    5    5  501    0  0.72751655359E+02 -0.78235684740E+02 -0.45390668874E+02  0.11617240871E+03  0.47000000000E+01 0. -1.
        -13    1    6    6    0    0  0.12608010236E+03 -0.12235068976E+02  0.49703451444E+02  0.13607469350E+03  0.00000000000E+00 0.  1.
         14    1    6    6    0    0  0.13468518292E+02  0.23596402393E+02 -0.11254841528E+02  0.29408547204E+02  0.00000000000E+00 0. -1.
         -5    1    3    3    0  503 -0.87302041219E+01 -0.32622229076E+02  0.30613643415E+02  0.45822608579E+02  0.47000000000E+01 0.  1.
         13    1    4    4    0    0  0.86735873638E+00 -0.59185588243E+01 -0.14048158756E+01  0.61445225509E+01  0.00000000000E+00 0. -1.
        -14    1    4    4    0    0 -0.20443743063E+03  0.10541513922E+03  0.22232898566E+03  0.31990184820E+03  0.00000000000E+00 0.  1.
</event>
<event>
12    1  0.1035051E+000  0.2188988E+03  0.7818608E-02  0.1134833E+00
         21   -1    0    0  501  502  0.00000000000E+00  0.00000000000E+00  0.60805202519E+03  0.60805202519E+03  0.00000000000E+00 0.  1.
         21   -1    0    0  502  503 -0.00000000000E+00 -0.00000000000E+00 -0.83978157654E+02  0.83978157654E+02  0.00000000000E+00 0.  1.
         -6    2    1    2    0  503  0.10439480116E+03 -0.86160208453E+02  0.35028422207E+03  0.41305653857E+03  0.17203142675E+03 0.  0.
        -24    2    3    3    0    0  0.87232009111E+02 -0.91764102749E+02  0.36082084610E+03  0.39163049115E+03  0.84573545797E+02 0.  0.
          6    2    1    2  501    0 -0.10439480116E+03  0.86160208453E+02  0.17378964546E+03  0.27897364427E+03  0.17117709339E+03 0.  0.
         24    2    5    5    0    0 -0.70310276880E+02 -0.15745907331E+02  0.60049343954E+02  0.12243113434E+03  0.78689200745E+02 0.  0.
          5    1    5    5  501    0 -0.34084524278E+02  0.10190611578E+03  0.11374030151E+03  0.15654250993E+03  0.47000000000E+01 0. -1.
        -13    1    6    6    0    0 -0.42774672133E+02 -0.39976739110E+02  0.62539270565E+02  0.85667803805E+02  0.00000000000E+00 0.  1.
         14    1    6    6    0    0 -0.27535604746E+02  0.24230831779E+02 -0.24899266111E+01  0.36763330535E+02  0.00000000000E+00 0. -1.
         -5    1    3    3    0  503  0.17162792047E+02  0.56038942952E+01 -0.10536624029E+02  0.21426047420E+02  0.47000000000E+01 0.  1.
         11    1    4    4    0    0  0.84570782435E+02 -0.65868045634E+02  0.18435439245E+03  0.21325421143E+03  0.00000000000E+00 0. -1.
        -12    1    4    4    0    0  0.26612266756E+01 -0.25896057114E+02  0.17646645365E+03  0.17837627972E+03  0.00000000000E+00 0.  1.
</event>
<event>
12    1  0.1035051E+000  0.2337197E+03  0.7818608E-02  0.1124101E+00
         21   -1    0    0  501  502  0.00000000000E+00  0.00000000000E+00  0.85947958115E+03  0.85947958115E+03  0.00000000000E+00 0.  1.
         21   -1    0    0  502  503 -0.00000000000E+00 -0.00000000000E+00 -0.63476460637E+02  0.63476460637E+02  0.00000000000E+00 0.  1.
         -6    2    1    2    0  503 -0.11514906768E+03  0.10793876970E+03  0.40139434490E+03  0.46448067439E+03  0.17237978704E+03 0.  0.
        -24    2    3    3    0    0 -0.16049817419E+02  0.39924761931E+02  0.27646345462E+03  0.29105523220E+03  0.80184307668E+02 0.  0.
          6    2    1    2  501    0  0.11514906768E+03 -0.10793876970E+03  0.39460877562E+03  0.45847536740E+03  0.17196944764E+03 0.  0.
         24    2    5    5    0    0  0.10195780457E+01 -0.55733866373E+02  0.10639686855E+03  0.14408852653E+03  0.79585843211E+02 0.  0.
          5    1    5    5  501    0  0.11412948963E+03 -0.52204903325E+02  0.28821190707E+03  0.31438684087E+03  0.47000000000E+01 0. -1.
        -11    1    6    6    0    0  0.10636889173E+01  0.17624538587E+02  0.45301252285E+02  0.48620564097E+02  0.00000000000E+00 0.  1.
         12    1    6    6    0    0 -0.44110871579E-01 -0.73358404960E+02  0.61095616264E+02  0.95467962431E+02  0.00000000000E+00 0. -1.
         -5    1    3    3    0  503 -0.99099250258E+02  0.68014007767E+02  0.12493089027E+03  0.17342544219E+03  0.47000000000E+01 0.  1.
         13    1    4    4    0    0 -0.36883660882E+02  0.45969009055E+02  0.24991824213E+03  0.25677360063E+03  0.00000000000E+00 0. -1.
        -14    1    4    4    0    0  0.20833843463E+02 -0.60442471234E+01  0.26545212495E+02  0.34281631570E+02  0.00000000000E+00 0.  1.
</event>
<event>
12    1  0.1035051E+000  0.1878802E+03  0.7818608E-02  0.1160971E+00
         21   -1    0    0  503  502  0.00000000000E+00  0.00000000000E+00  0.72032434753E+02  0.72032434753E+02  0.00000000000E+00 0.  1.
         21   -1    0    0  501  503 -0.00000000000E+00 -0.00000000000E+00 -0.48437852139E+03  0.48437852139E+03  0.00000000000E+00 0.  1.
          6    2    1    2  501    0  0.21024299544E+02 -0.67745590198E+02 -0.21968698889E+03  0.28906981519E+03  0.17397556956E+03 0.  0.
         24    2    3    3    0    0 -0.11129205828E+02  0.28188581067E+01 -0.16437962664E+03  0.19370638619E+03  0.10183171025E+03 0.  0.
         -6    2    1    2    0  502 -0.21024299544E+02  0.67745590198E+02 -0.19265909775E+03  0.26734114096E+03  0.17123747119E+03 0.  0.
        -24    2    5    5    0    0  0.51535882290E+02  0.46853299308E+02 -0.13185096795E+03  0.17027834450E+03  0.82212274247E+02 0.  0.
          5    1    3    3  501    0  0.32153505371E+02 -0.70564448304E+02 -0.55307362249E+02  0.95363429003E+02  0.47000000000E+01 0. -1.
        -11    1    4    4    0    0  0.37515171140E+02  0.14964799624E+02 -0.30100875443E+02  0.50372571861E+02  0.00000000000E+00 0.  1.
         12    1    4    4    0    0 -0.48644376967E+02 -0.12145941518E+02 -0.13427875120E+03  0.14333381433E+03  0.00000000000E+00 0. -1.
         -5    1    5    5    0  502 -0.72560181834E+02  0.20892290890E+02 -0.60808129802E+02  0.97062796458E+02  0.47000000000E+01 0.  1.
         11    1    6    6    0    0  0.27874878510E+02 -0.21352095354E+02 -0.50581389304E+02  0.61574327214E+02  0.00000000000E+00 0. -1.
        -12    1    6    6    0    0  0.23661003780E+02  0.68205394661E+02 -0.81269578644E+02  0.10870401728E+03  0.00000000000E+00 0.  1.
</event>
<event>
12    1  0.1035051E+000  0.1931315E+03  0.7818608E-02  0.1156554E+00
         21   -1    0    0  501  502  0.00000000000E+00  0.00000000000E+00  0.12174466845E+02  0.12174466845E+02  0.00000000000E+00 0. -1.
         21   -1    0    0  502  503 -0.00000000000E+00 -0.00000000000E+00 -0.30171864271E+04  0.30171864271E+04  0.00000000000E+00 0. -1.
         -6    2    1    2    0  503  0.88947115822E+02 -0.16302930114E+02 -0.13761435512E+04  0.13890828473E+04  0.16614062744E+03 0.  0.
        -24    2    3    3    0    0  0.11207915015E+03  0.22478218388E+02 -0.10926649607E+04  0.11019917994E+04  0.86036058641E+02 0.  0.
          6    2    1    2  501    0 -0.88947115822E+02  0.16302930114E+02 -0.16288684090E+04  0.16402780466E+04  0.17065286839E+03 0.  0.
         24    2    5    5    0    0 -0.85627243217E+02  0.56944121870E+02 -0.77312991446E+03  0.78355569426E+03  0.75199757827E+02 0.  0.
          5    1    5    5  501    0 -0.33198726051E+01 -0.40641191756E+02 -0.85573849453E+03  0.85672235236E+03  0.47000000000E+01 0. -1.
        -13    1    6    6    0    0  0.51085988778E+01  0.28047401231E+02 -0.26937198207E+03  0.27087639104E+03  0.00000000000E+00 0.  1.
         14    1    6    6    0    0 -0.90735842094E+02  0.28896720639E+02 -0.50375793238E+03  0.51267930321E+03  0.00000000000E+00 0. -1.
         -5    1    3    3    0  503 -0.23132034326E+02 -0.38781148502E+02 -0.28347859049E+03  0.28709104785E+03  0.47000000000E+01 0.  1.
         11    1    4    4    0    0  0.88391208622E+02  0.25804217956E+02 -0.10409271367E+04  0.10449919461E+04  0.00000000000E+00 0. -1.
        -12    1    4    4    0    0  0.23687941525E+02 -0.33259995682E+01 -0.51737823999E+02  0.56999853324E+02  0.00000000000E+00 0.  1.
</event>
<event>
12    1  0.1035051E+000  0.2176051E+03  0.7818608E-02  0.1136125E+00
         21   -1    0    0  501  502  0.00000000000E+00  0.00000000000E+00  0.56163090642E+03  0.56163090642E+03  0.00000000000E+00 0.  1.
         21   -1    0    0  502  503 -0.00000000000E+00 -0.00000000000E+00 -0.11566175833E+03  0.11566175833E+03  0.00000000000E+00 0.  1.
         -6    2    1    2    0  503  0.35877573519E+02  0.12729390680E+03  0.45025942141E+02  0.22221457542E+03  0.17280348108E+03 0.  0.
        -24    2    3    3    0    0  0.19423518640E+02  0.80287389384E+01  0.55702228856E+02  0.10125594908E+03  0.81904183042E+02 0.  0.
          6    2    1    2  501    0 -0.35877573519E+02 -0.12729390680E+03  0.40094320595E+03  0.45507808933E+03  0.16985191788E+03 0.  0.
         24    2    5    5    0    0 -0.46291228402E+02 -0.93033686405E+02  0.39701431266E+03  0.41874995819E+03  0.83264748814E+02 0.  0.
          5    1    5    5  501    0  0.10413654883E+02 -0.34260220399E+02  0.39288932846E+01  0.36328131141E+02  0.47000000000E+01 0. -1.
        -11    1    6    6    0    0 -0.38963156305E+01 -0.81369965578E+02  0.18372365948E+03  0.20097421632E+03  0.00000000000E+00 0.  1.
         12    1    6    6    0    0 -0.42394912771E+02 -0.11663720827E+02  0.21329065318E+03  0.21777574187E+03  0.00000000000E+00 0. -1.
         -5    1    3    3    0  503  0.16454054878E+02  0.11926516787E+03 -0.10676286715E+02  0.12095862634E+03  0.47000000000E+01 0.  1.
         13    1    4    4    0    0  0.92625628184E+01  0.44552488865E+02  0.38577357836E+02  0.59656783954E+02  0.00000000000E+00 0. -1.
        -14    1    4    4    0    0  0.10160955822E+02 -0.36523749927E+02  0.17124871020E+02  0.41599165129E+02  0.00000000000E+00 0.  1.
</event>
<event>
12    1  0.1035051E+000  0.1859476E+03  0.7818608E-02  0.1162324E+00
         21   -1    0    0  501  502  0.00000000000E+00  0.00000000000E+00  0.12456474304E+04  0.12456474304E+04  0.00000000000E+00 0. -1.
         21   -1    0    0  502  503 -0.00000000000E+00 -0.00000000000E+00 -0.27834548337E+02  0.27834548337E+02  0.00000000000E+00 0.  1.
         -6    2    1    2    0  503 -0.50995070044E+02 -0.55250505411E+02  0.55708519248E+03  0.58708734738E+03  0.16933554340E+03 0.  0.
        -24    2    3    3    0    0  0.26420614478E+02  0.28869976033E+01  0.31430137319E+03  0.32566961581E+03  0.81049132340E+02 0.  0.
          6    2    1    2  501    0  0.50995070044E+02  0.55250505411E+02  0.66072768956E+03  0.68639463133E+03  0.17006879389E+03 0.  0.
         24    2    5    5    0    0  0.38663022730E+02 -0.12275000099E+02  0.18133664585E+03  0.20209138328E+03  0.79450884913E+02 0.  0.
          5    1    5    5  501    0  0.12332047314E+02  0.67525505511E+02  0.47939104371E+03  0.48430324805E+03  0.47000000000E+01 0. -1.
        -11    1    6    6    0    0 -0.21470124387E+02  0.18935127315E+01  0.20289162467E+02  0.29600705149E+02  0.00000000000E+00 0.  1.
         12    1    6    6    0    0  0.60133147117E+02 -0.14168512831E+02  0.16104748338E+03  0.17249067813E+03  0.00000000000E+00 0. -1.
         -5    1    3    3    0  503 -0.77415684522E+02 -0.58137503015E+02  0.24278381929E+03  0.26141773156E+03  0.47000000000E+01 0.  1.
         13    1    4    4    0    0 -0.13827301061E+02 -0.29529262540E+02  0.98070239871E+02  0.10334865045E+03  0.00000000000E+00 0. -1.
        -14    1    4    4    0    0  0.40247915539E+02  0.32416260144E+02  0.21623113331E+03  0.22232096537E+03  0.00000000000E+00 0.  1.
</event>
<event>
12    1  0.1035051E+000  0.2876260E+03  0.7818608E-02  0.1091621E+00
         21   -1    0    0  503  502  0.00000000000E+00  0.00000000000E+00  0.99490691545E+02  0.99490691545E+02  0.00000000000E+00 0. -1.
         21   -1    0    0  501  503 -0.00000000000E+00 -0.00000000000E+00 -0.90796111888E+03  0.90796111888E+03  0.00000000000E+00 0. -1.
          6    2    1    2  501    0 -0.20039196642E+03 -0.11273950320E+03 -0.25740615359E+03  0.38584053532E+03  0.17247566495E+03 0.  0.
         24    2    3    3    0    0 -0.20309740246E+03 -0.63121512977E+02 -0.24565943741E+03  0.33456344805E+03  0.79694800944E+02 0.  0.
         -6    2    1    2    0  502  0.20039196642E+03  0.11273950320E+03 -0.55106427374E+03  0.62161127510E+03  0.17280511494E+03 0.  0.
        -24    2    5    5    0    0  0.61921229361E+02  0.10875496836E+03 -0.29750978967E+03  0.33264416982E+03  0.80487185188E+02 0.  0.
          5    1    3    3  501    0  0.27054360308E+01 -0.49617990226E+02 -0.11746716185E+02  0.51277087275E+02  0.47000000000E+01 0. -1.
        -11    1    4    4    0    0 -0.94062582375E+02 -0.35237927493E+02 -0.17469683616E+03  0.20151542249E+03  0.00000000000E+00 0.  1.
         12    1    4    4    0    0 -0.10903482008E+03 -0.27883585484E+02 -0.70962601252E+02  0.13304802556E+03  0.00000000000E+00 0. -1.
         -5    1    5    5    0  502  0.13847073706E+03  0.39845348438E+01 -0.25355448407E+03  0.28896710528E+03  0.47000000000E+01 0.  1.
         11    1    6    6    0    0  0.18121409953E+02 -0.60706333971E+01 -0.85321406584E+02  0.87435579199E+02  0.00000000000E+00 0. -1.
        -12    1    6    6    0    0  0.43799819408E+02  0.11482560176E+03 -0.21218838309E+03  0.24520859062E+03  0.00000000000E+00 0.  1.
</event>
<event>
12    1  0.1035051E+000  0.2679932E+03  0.7818608E-02  0.1102641E+00
         21   -1    0    0  503  502  0.00000000000E+00  0.00000000000E+00  0.36201707354E+03  0.36201707354E+03  0.00000000000E+00 0.  1.
         21   -1    0    0  501  503 -0.00000000000E+00 -0.00000000000E+00 -0.11254164742E+04  0.11254164742E+04  0.00000000000E+00 0.  1.
          6    2    1    2  501    0  0.20472302146E+03 -0.13126768416E+02  0.29385262363E+03  0.39674468265E+03  0.17021501470E+03 0.  0.
         24    2    3    3    0    0  0.79044946805E+02  0.52859458411E+02  0.14854788821E+03  0.19355827386E+03  0.79725180018E+02 0.  0.
         -6    2    1    2    0  502 -0.20472302146E+03  0.13126768416E+02 -0.10572520243E+04  0.10906888651E+04  0.17244283119E+03 0.  0.
        -24    2    5    5    0    0 -0.16104648184E+03 -0.49374236003E+02 -0.64695140690E+03  0.67333685266E+03  0.80390358588E+02 0.  0.
          5    1    3    3  501    0  0.12567807466E+03 -0.65986226827E+02  0.14530473542E+03  0.20318640879E+03  0.47000000000E+01 0. -1.
        -11    1    4    4    0    0 -0.15130925662E+02  0.16235827304E+02  0.36132214777E+02  0.42403819927E+02  0.00000000000E+00 0.  1.
         12    1    4    4    0    0  0.94175872467E+02  0.36623631107E+02  0.11241567343E+03  0.15115445393E+03  0.00000000000E+00 0. -1.
         -5    1    5    5    0  502 -0.43676539619E+02  0.62501004420E+02 -0.41030061741E+03  0.41735201247E+03  0.47000000000E+01 0.  1.
         13    1    6    6    0    0 -0.10294417092E+03 -0.68436440346E+02 -0.47555359039E+03  0.49135757451E+03  0.00000000000E+00 0. -1.
        -14    1    6    6    0    0 -0.58102310928E+02  0.19062204343E+02 -0.17139781651E+03  0.18197927815E+03  0.00000000000E+00 0.  1.
</event>
<event>
12    1  0.1035051E+000  0.2055081E+03  0.7818608E-02  0.1146025E+00
         21   -1    0    0  501  502  0.00000000000E+00  0.00000000000E+00  0.28724696734E+02  0.28724696734E+02  0.00000000000E+00 0.  1.
         21   -1    0    0  502  503 -0.00000000000E+00 -0.00000000000E+00 -0.14408962250E+04  0.14408962250E+04  0.00000000000E+00 0.  1.
         -6    2    1    2    0  503  0.79412348572E+02 -0.74915829165E+02 -0.69443023049E+03  0.72303794668E+03  0.16920941097E+03 0.  0.
        -24    2    3    3    0    0  0.41991392412E+01 -0.14508646919E+01 -0.14740265767E+03  0.16597835985E+03  0.76167805993E+02 0.  0.
          6    2    1    2  501    0 -0.79412348572E+02  0.74915829165E+02 -0.71774129775E+03  0.74658297503E+03  0.17411164676E+03 0.  0.
         24    2    5    5    0    0 -0.75550651349E+02 -0.87963347431E+01 -0.28907936355E+03  0.30978120886E+03  0.81315696576E+02 0.  0.
          5    1    5    5  501    0 -0.38616972226E+01  0.83712163908E+02 -0.42866193420E+03  0.43680176616E+03  0.47000000000E+01 0. -1.
        -11    1    6    6    0    0 -0.60348018977E+02  0.10577130836E+02 -0.27430285022E+03  0.28106193753E+03  0.00000000000E+00 0.  1.
         12    1    6    6    0    0 -0.15202632372E+02 -0.19373465579E+02 -0.14776513333E+02  0.28719271332E+02  0.00000000000E+00 0. -1.
         -5    1    3    3    0  503  0.75213209330E+02 -0.73464964473E+02 -0.54702757282E+03  0.55705958684E+03  0.47000000000E+01 0.  1.
         11    1    4    4    0    0  0.85993360999E+00 -0.16537303513E+02 -0.14947407359E+03  0.15038856529E+03  0.00000000000E+00 0. -1.
        -12    1    4    4    0    0  0.33392056312E+01  0.15086438821E+02  0.20714159173E+01  0.15589794561E+02  0.00000000000E+00 0.  1.
</event>
<event>
12    1  0.1035051E+000  0.1817882E+03  0.7818608E-02  0.1166882E+00
         21   -1    0    0  501  502  0.00000000000E+00  0.00000000000E+00  0.87702699492E+03  0.87702699492E+03  0.00000000000E+00 0. -1.
         21   -1    0    0  502  503 -0.00000000000E+00 -0.00000000000E+00 -0.37068027752E+02  0.37068027752E+02  0.00000000000E+00 0. -1.
         -6    2    1    2    0  503 -0.47146008073E+02  0.28358257198E+02  0.40390220411E+03  0.44292654978E+03  0.17326280960E+03 0.  0.
        -24    2    3    3    0    0 -0.34723553113E+02 -0.44851065360E+02  0.16366559866E+03  0.19143174090E+03  0.81500552359E+02 0.  0.
          6    2    1    2  501    0  0.47146008073E+02 -0.28358257198E+02  0.43605676307E+03  0.47116847290E+03  0.16978601947E+03 0.  0.
         24    2    5    5    0    0  0.59571121387E+02  0.38992776985E+00  0.13381245287E+03  0.16726955117E+03  0.80774127413E+02 0.  0.
          5    1    5    5  501    0 -0.12425113313E+02 -0.28748184968E+02  0.30224431020E+03  0.30389892173E+03  0.47000000000E+01 0. -1.
        -13    1    6    6    0    0 -0.15810410231E+02 -0.16571250015E+02  0.35131886666E+02  0.41938345931E+02  0.00000000000E+00 0.  1.
         14    1    6    6    0    0  0.75381531617E+02  0.16961177785E+02  0.98680566204E+02  0.12533120524E+03  0.00000000000E+00 0. -1.
         -5    1    3    3    0  503 -0.12422454960E+02  0.73209322558E+02  0.24023660545E+03  0.25149480888E+03  0.47000000000E+01 0.  1.
         13    1    4    4    0    0 -0.54789410548E+01 -0.37126082843E+02  0.15569154776E+03  0.16015062555E+03  0.00000000000E+00 0. -1.
        -14    1    4    4    0    0 -0.29244612058E+02 -0.77249825177E+01  0.79740508976E+01  0.31281115342E+02  0.00000000000E+00 0.  1.
</event>
<event>
12    1  0.1035051E+000  0.1962464E+03  0.7818608E-02  0.1153470E+00
         21   -1    0    0  501  502  0.00000000000E+00  0.00000000000E+00  0.25656416894E+03  0.25656416894E+03  0.00000000000E+00 0. -1.
         21   -1    0    0  502  503 -0.00000000000E+00 -0.00000000000E+00 -0.22128072396E+03  0.22128072396E+03  0.00000000000E+00 0. -1.
         -6    2    1    2    0  503 -0.71866730981E+02 -0.59455595872E+02  0.15480633441E+03  0.24806591272E+03  0.16991733572E+03 0.  0.
        -24    2    3    3    0    0 -0.44033512442E+02 -0.28745167409E+02  0.17651976936E+03  0.20104058201E+03  0.80578233867E+02 0.  0.
          6    2    1    2  501    0  0.71866730981E+02  0.59455595872E+02 -0.11952288943E+03  0.22977898018E+03  0.17266401979E+03 0.  0.
         24    2    5    5    0    0  0.98348586521E+02  0.89746841434E+02 -0.98770656298E+02  0.18426421982E+03  0.80440786552E+02 0.  0.
          5    1    5    5  501    0 -0.26481855540E+02 -0.30291245562E+02 -0.20752233133E+02  0.45514760359E+02  0.47000000000E+01 0. -1.
        -13    1    6    6    0    0 -0.27587658401E+01  0.13862366799E+02  0.10146215721E+02  0.17398899266E+02  0.00000000000E+00 0.  1.
         14    1    6    6    0    0  0.10110735236E+03  0.75884474635E+02 -0.10891687202E+03  0.16686532055E+03  0.00000000000E+00 0. -1.
         -5    1    3    3    0  503 -0.27833218539E+02 -0.30710428463E+02 -0.21713434950E+02  0.47025330705E+02  0.47000000000E+01 0.  1.
         13    1    4    4    0    0 -0.17866754424E+02 -0.34231462247E+02  0.22444432935E+02  0.44662808812E+02  0.00000000000E+00 0. -1.
        -14    1    4    4    0    0 -0.26166758018E+02  0.54862948377E+01  0.15407533643E+03  0.15637777320E+03  0.00000000000E+00 0.  1.
</event>
<event>
12    1  0.1035051E+000  0.2124913E+03  0.7818608E-02  0.1141569E+00
         21   -1    0    0  501  502  0.00000000000E+00  0.00000000000E+00  0.18633889037E+03  0.18633889037E+03  0.00000000000E+00 0. -1.
         21   -1    0    0  502  503 -0.00000000000E+00 -0.00000000000E+00 -0.25407504003E+03  0.25407504003E+03  0.00000000000E+00 0. -1.
         -6    2    1    2    0  503  0.31431497092E+02  0.10360559528E+03  0.31375614478E+02  0.21479524979E+03  0.18284012624E+03 0.  0.
        -24    2    3    3    0    0 -0.54121201304E+02  0.51797215381E+02 -0.64305851737E+00  0.10967314055E+03  0.80098241438E+02 0.  0.
          6    2    1    2  501    0 -0.31431497092E+02 -0.10360559528E+03 -0.99111764138E+02  0.22561868062E+03  0.17134348213E+03 0.  0.
         24    2    5    5    0    0 -0.23240653705E+02 -0.13183319161E+03 -0.40210748844E+02  0.15962393300E+03  0.77089410875E+02 0.  0.
          5    1    5    5  501    0 -0.81908433868E+01  0.28227596332E+02 -0.58901015294E+02  0.65994747615E+02  0.47000000000E+01 0. -1.
        -13    1    6    6    0    0 -0.30796586364E+02 -0.12698776669E+02 -0.19095800435E+02  0.38397112584E+02  0.00000000000E+00 0.  1.
         14    1    6    6    0    0  0.75559326590E+01 -0.11913441494E+03 -0.21114948409E+02  0.12122682042E+03  0.00000000000E+00 0. -1.
         -5    1    3    3    0  503  0.85552698395E+02  0.51808379900E+02  0.32018672995E+02  0.10512210924E+03  0.47000000000E+01 0.  1.
         11    1    4    4    0    0  0.19822350383E+02  0.22536372150E+02 -0.26044200186E+01  0.30126344750E+02  0.00000000000E+00 0. -1.
        -12    1    4    4    0    0 -0.73943551686E+02  0.29260843231E+02  0.19613615012E+01  0.79546795796E+02  0.00000000000E+00 0.  1.
</event>
<event>
12    1  0.1035051E+000  0.2873077E+03  0.7818608E-02  0.1091763E+00
         21   -1    0    0  503  502  0.00000000000E+00  0.00000000000E+00  0.73159978627E+03  0.73159978627E+03  0.00000000000E+00 0. -1.
         21   -1    0    0  501  503 -0.00000000000E+00 -0.00000000000E+00 -0.11757431170E+03  0.11757431170E+03  0.00000000000E+00 0.  1.
          6    2    1    2  501    0 -0.11965789248E+03  0.19653468901E+03  0.39231122517E+03  0.48626513074E+03  0.17205169213E+03 0.  0.
         24    2    3    3    0    0 -0.97375794565E+02  0.16067396316E+03  0.19133806348E+03  0.28085143776E+03  0.83481182006E+02 0.  0.
         -6    2    1    2    0  502  0.11965789248E+03 -0.19653468901E+03  0.22171424940E+03  0.36290896722E+03  0.17205177967E+03 0.  0.
        -24    2    5    5    0    0  0.10550825942E+01 -0.12432490700E+03  0.98933507688E+02  0.17749569999E+03  0.79114403693E+02 0.  0.
          5    1    3    3  501    0 -0.22282097911E+02  0.35860725851E+02  0.20097316169E+03  0.20541369298E+03  0.47000000000E+01 0. -1.
        -11    1    4    4    0    0 -0.20922166235E+02  0.18541429957E+02 -0.31373857044E+01  0.28131207828E+02  0.00000000000E+00 0.  1.
         12    1    4    4    0    0 -0.76453628330E+02  0.14213253320E+03  0.19447544919E+03  0.25272022993E+03  0.00000000000E+00 0. -1.
         -5    1    5    5    0  502  0.11860280988E+03 -0.72209782009E+02  0.12278074171E+03  0.18541326723E+03  0.47000000000E+01 0.  1.
         13    1    6    6    0    0 -0.38861027632E+02 -0.54779917458E+02  0.43779905621E+02  0.80172931600E+02  0.00000000000E+00 0. -1.
        -14    1    6    6    0    0  0.39916110226E+02 -0.69544989544E+02  0.55153602068E+02  0.97322768391E+02  0.00000000000E+00 0.  1.
</event>
<event>
12    1  0.1035051E+000  0.3211486E+03  0.7818608E-02  0.1075605E+00
         21   -1    0    0  503  502  0.00000000000E+00  0.00000000000E+00  0.96056247604E+02  0.96056247604E+02  0.00000000000E+00 0. -1.
         21   -1    0    0  501  503 -0.00000000000E+00 -0.00000000000E+00 -0.10691319287E+04  0.10691319287E+04  0.00000000000E+00 0. -1.
          6    2    1    2  501    0 -0.12753256470E+03 -0.23370598757E+03 -0.43511138158E+03  0.54079418992E+03  0.17959230994E+03 0.  0.
         24    2    3    3    0    0 -0.85555008402E+02 -0.12883026744E+03 -0.14437688649E+03  0.22884921314E+03  0.87237490393E+02 0.  0.
         -6    2    1    2    0  502  0.12753256470E+03  0.23370598757E+03 -0.53796429953E+03  0.62439398640E+03  0.17198610116E+03 0.  0.
        -24    2    5    5    0    0  0.13708125148E+03  0.14749497080E+03 -0.45822917651E+03  0.50648174498E+03  0.77483829772E+02 0.  0.
          5    1    3    3  501    0 -0.41977556303E+02 -0.10487572013E+03 -0.29073449509E+03  0.31194497678E+03  0.47000000000E+01 0. -1.
        -13    1    4    4    0    0 -0.10066510553E+01 -0.79463224609E+02 -0.59522485141E+02  0.99289192005E+02  0.00000000000E+00 0.  1.
         14    1    4    4    0    0 -0.84548357346E+02 -0.49367042834E+02 -0.84854401350E+02  0.12956002114E+03  0.00000000000E+00 0. -1.
         -5    1    5    5    0  502 -0.95486867754E+01  0.86211016777E+02 -0.79735123028E+02  0.11791224142E+03  0.47000000000E+01 0.  1.
         11    1    6    6    0    0  0.23047027557E+02  0.16928298445E+02 -0.15131846659E+03  0.15399678925E+03  0.00000000000E+00 0. -1.
        -12    1    6    6    0    0  0.11403422392E+03  0.13056667235E+03 -0.30691070992E+03  0.35248495573E+03  0.00000000000E+00 0.  1.
</event>
<event>
12    1  0.1035051E+000  0.2061924E+03  0.7818608E-02  0.1145152E+00
         21   -1    0    0  503  502  0.00000000000E+00  0.00000000000E+00  0.19844264218E+03  0.19844264218E+03  0.00000000000E+00 0. -1.
         21   -1    0    0  501  503 -0.00000000000E+00 -0.00000000000E+00 -0.31624303835E+03  0.31624303835E+03  0.00000000000E+00 0. -1.
          6    2    1    2  501    0 -0.71419521416E+01 -0.11050983724E+03  0.88926538202E+02  0.22455118909E+03  0.17393066354E+03 0.  0.
         24    2    3    3    0    0  0.16416500059E+02 -0.14179062994E+02  0.93823945387E+02  0.12514951237E+03  0.79930722616E+02 0.  0.
         -6    2    1    2    0  502  0.71419521416E+01  0.11050983724E+03 -0.20672693438E+03  0.29013449143E+03  0.17081734723E+03 0.  0.
        -24    2    5    5    0    0  0.27147257256E+02 -0.72698197560E+01 -0.93228400528E+02  0.12528223327E+03  0.78830701209E+02 0.  0.
          5    1    3    3  501    0 -0.23558452201E+02 -0.96330774249E+02 -0.48974071841E+01  0.99401676720E+02  0.47000000000E+01 0. -1.
        -11    1    4    4    0    0  0.18020364326E+02 -0.46641497016E+02  0.51429426965E+02  0.71729692125E+02  0.00000000000E+00 0.  1.
         12    1    4    4    0    0 -0.16038642663E+01  0.32462434023E+02  0.42394518422E+02  0.53419820249E+02  0.00000000000E+00 0. -1.
         -5    1    5    5    0  502 -0.20005305114E+02  0.11777965700E+03 -0.11349853385E+03  0.16485225816E+03  0.47000000000E+01 0.  1.
         13    1    6    6    0    0  0.52213998543E+01  0.53033037455E+01  0.13600764445E+02  0.15503833092E+02  0.00000000000E+00 0. -1.
        -14    1    6    6    0    0  0.21925857402E+02 -0.12573123502E+02 -0.10682916497E+03  0.10977840018E+03  0.00000000000E+00 0.  1.
</event>
<event>
12    1  0.1035051E+000  0.1828820E+03  0.7818608E-02  0.1165441E+00
         21   -1    0    0  503  502  0.00000000000E+00  0.00000000000E+00  0.13561471746E+03  0.13561471746E+03  0.00000000000E+00 0. -1.
         21   -1    0    0  501  503 -0.00000000000E+00 -0.00000000000E+00 -0.24459787959E+03  0.24459787959E+03  0.00000000000E+00 0. -1.
          6    2    1    2  501    0 -0.52669017806E+02  0.12765945648E+02 -0.60488260985E+02  0.19262566638E+03  0.17466774982E+03 0.  0.
         24    2    3    3    0    0 -0.82703645168E+02 -0.39479042970E+02 -0.49372008150E+02  0.13116609631E+03  0.79802643274E+02 0.  0.
         -6    2    1    2    0  502  0.52669017806E+02 -0.12765945648E+02 -0.48494901148E+02  0.18758693067E+03  0.17291647208E+03 0.  0.
        -24    2    5    5    0    0 -0.34515599860E+02 -0.34461693319E+01 -0.69298358705E+01  0.90438794101E+02  0.83234308650E+02 0.  0.
          5    1    3    3  501    0  0.30034627362E+02  0.52244988618E+02 -0.11116252835E+02  0.61459570073E+02  0.47000000000E+01 0. -1.
        -11    1    4    4    0    0 -0.30795207709E+02 -0.29829493388E+02  0.17203284640E+02  0.46196282274E+02  0.00000000000E+00 0.  1.
         12    1    4    4    0    0 -0.51908437459E+02 -0.96495495823E+01 -0.66575292790E+02  0.84969814032E+02  0.00000000000E+00 0. -1.
         -5    1    5    5    0  502  0.87184617666E+02 -0.93197763159E+01 -0.41565065278E+02  0.97148136573E+02  0.47000000000E+01 0.  1.
         13    1    6    6    0    0 -0.34476895373E+02 -0.39641808613E+02 -0.11999389799E+02  0.53889838191E+02  0.00000000000E+00 0. -1.
        -14    1    6    6    0    0 -0.38704486822E-01  0.36195639282E+02  0.50695539289E+01  0.36548955910E+02  0.00000000000E+00 0.  1.
</event>
<event>
12    1  0.1035051E+000  0.1781000E+03  0.7818608E-02  0.1169738E+00
         21   -1    0    0  501  502  0.00000000000E+00  0.00000000000E+00  0.14161277058E+03  0.14161277058E+03  0.00000000000E+00 0.  1.
         21   -1    0    0  502  503 -0.00000000000E+00 -0.00000000000E+00 -0.22357083556E+03  0.22357083556E+03  0.00000000000E+00 0.  1.
         -6    2    1    2    0  503 -0.42217605441E+02  0.18274574211E+02 -0.42295945680E+02  0.18305337933E+03  0.17205611408E+03 0.  0.
        -24    2    3    3    0    0 -0.85852780552E+02  0.24026531262E+02 -0.61780601786E+02  0.13469166575E+03  0.79856295515E+02 0.  0.
          6    2    1    2  501    0  0.42217605441E+02 -0.18274574211E+02 -0.39662119299E+02  0.18213022680E+03  0.17170337660E+03 0.  0.
         24    2    5    5    0    0  0.47056690223E+00 -0.23226594829E+02  0.38838320190E+02  0.92957659633E+02  0.81197384371E+02 0.  0.
          5    1    5    5  501    0  0.41747038539E+02  0.49520206183E+01 -0.78500439489E+02  0.89172567166E+02  0.47000000000E+01 0. -1.
        -13    1    6    6    0    0 -0.89434032570E+01  0.10583780338E+02 -0.20068941963E+02  0.24387769467E+02  0.00000000000E+00 0.  1.
         14    1    6    6    0    0  0.94139701592E+01 -0.33810375167E+02  0.58907262153E+02  0.68569890166E+02  0.00000000000E+00 0. -1.
         -5    1    3    3    0  503  0.43635175111E+02 -0.57519570516E+01  0.19484656106E+02  0.48361713581E+02  0.47000000000E+01 0.  1.
         13    1    4    4    0    0 -0.31455279794E+02 -0.28691800819E+02 -0.32152603872E+02  0.53352075844E+02  0.00000000000E+00 0. -1.
        -14    1    4    4    0    0 -0.54397500759E+02  0.52718332081E+02 -0.29627997915E+02  0.81339589910E+02  0.00000000000E+00 0.  1.
</event>
<event>
12    1  0.1035051E+000  0.1729908E+03  0.7818608E-02  0.1174775E+00
         21   -1    0    0  503  502  0.00000000000E+00  0.00000000000E+00  0.16888904424E+04  0.16888904424E+04  0.00000000000E+00 0.  1.
         21   -1    0    0  501  503 -0.00000000000E+00 -0.00000000000E+00 -0.17977117989E+02  0.17977117989E+02  0.00000000000E+00 0.  1.
          6    2    1    2  501    0  0.20397443401E+02 -0.15638185517E+01  0.73224839358E+03  0.75239509991E+03  0.17173286010E+03 0.  0.
         24    2    3    3    0    0 -0.31428166927E+02  0.42871105509E+02  0.54061727463E+03  0.54891308077E+03  0.78821768878E+02 0.  0.
         -6    2    1    2    0  502 -0.20397443401E+02  0.15638185517E+01  0.93866493082E+03  0.95447246047E+03  0.17177696067E+03 0.  0.
        -24    2    5    5    0    0 -0.54260121348E+02 -0.50976716829E+02  0.61718058698E+03  0.62693397090E+03  0.81188302694E+02 0.  0.
          5    1    3    3  501    0  0.51825610328E+02 -0.44434924061E+02  0.19163111895E+03  0.20348201914E+03  0.47000000000E+01 0. -1.
        -11    1    4    4    0    0 -0.45016826206E+02  0.40662551037E+02  0.22615555086E+03  0.23415014603E+03  0.00000000000E+00 0.  1.
         12    1    4    4    0    0  0.13588659279E+02  0.22085544715E+01  0.31446172377E+03  0.31476293474E+03  0.00000000000E+00 0. -1.
         -5    1    5    5    0  502  0.33862677947E+02  0.52540535381E+02  0.32148434384E+03  0.32753848957E+03  0.47000000000E+01 0.  1.
         13    1    6    6    0    0 -0.44473469206E+02 -0.20447011397E+02  0.13347894314E+03  0.14217101674E+03  0.00000000000E+00 0. -1.
        -14    1    6    6    0    0 -0.97866521422E+01 -0.30529705432E+02  0.48370164384E+03  0.48476295416E+03  0.00000000000E+00 0.  1.
</event>
<event>
12    1  0.1035051E+000  0.2815911E+03  0.7818608E-02  0.1094856E+00
         21   -1    0    0  503  502  0.00000000000E+00  0.00000000000E+00  0.37599690368E+03  0.37599690368E+03  0.00000000000E+00 0. -1.
         21   -1    0    0  501  503 -0.00000000000E+00 -0.00000000000E+00 -0.50703998122E+03  0.50703998122E+03  0.00000000000E+00 0.  1.
          6    2    1    2  501    0  0.45703196192E+02  0.21797606163E+03 -0.40304397697E+03  0.49152951597E+03  0.17191414169E+03 0.  0.
         24    2    3    3    0    0  0.66577506135E+02  0.20636047806E+03 -0.40126220691E+03  0.46711797562E+03  0.10084955742E+03 0.  0.
         -6    2    1    2    0  502 -0.45703196192E+02 -0.21797606163E+03  0.27200089943E+03  0.39150736894E+03  0.17231130275E+03 0.  0.
        -24    2    5    5    0    0 -0.78735540662E+02 -0.16373486253E+03  0.25933318902E+03  0.32657814325E+03  0.79944919481E+02 0.  0.
          5    1    3    3  501    0 -0.20874309943E+02  0.11615583574E+02 -0.17817700586E+01  0.24411540343E+02  0.47000000000E+01 0. -1.
        -11    1    4    4    0    0  0.44813868877E+02  0.88431787635E+02 -0.27798964032E+03  0.29513844892E+03  0.00000000000E+00 0.  1.
         12    1    4    4    0    0  0.21763637257E+02  0.11792869042E+03 -0.12327256659E+03  0.17197952670E+03  0.00000000000E+00 0. -1.
         -5    1    5    5    0  502  0.33032344470E+02 -0.54241199103E+02  0.12667710411E+02  0.64929225687E+02  0.47000000000E+01 0.  1.
         11    1    6    6    0    0 -0.48769591168E+02 -0.15732502312E+03  0.23719054128E+03  0.28877151659E+03  0.00000000000E+00 0. -1.
        -12    1    6    6    0    0 -0.29965949494E+02 -0.64098394096E+01  0.22142647740E+02  0.37806626659E+02  0.00000000000E+00 0.  1.
</event>
<event>
12    1  0.1035051E+000  0.3024193E+03  0.7818608E-02  0.1084523E+00
         21   -1    0    0  503  502  0.00000000000E+00  0.00000000000E+00  0.34032802161E+03  0.34032802161E+03  0.00000000000E+00 0.  1.
         21   -1    0    0  501  503 -0.00000000000E+00 -0.00000000000E+00 -0.44337865500E+03  0.44337865500E+03  0.00000000000E+00 0.  1.
          6    2    1    2  501    0  0.24814123330E+03 -0.48670354579E+01 -0.29967378062E+03  0.42298782301E+03  0.16588117413E+03 0.  0.
         24    2    3    3    0    0  0.19900413118E+03 -0.58860120301E+02 -0.25082780517E+03  0.33502347039E+03  0.79113714836E+02 0.  0.
         -6    2    1    2    0  502 -0.24814123330E+03  0.48670354579E+01  0.19662314723E+03  0.36071885360E+03  0.17279950701E+03 0.  0.
        -24    2    5    5    0    0 -0.43463248130E+02  0.33480451391E+02  0.47124213878E+02  0.10560353408E+03  0.76950765514E+02 0.  0.
          5    1    3    3  501    0  0.49137102113E+02  0.53993084843E+02 -0.48845975454E+02  0.87964352626E+02  0.47000000000E+01 0. -1.
        -11    1    4    4    0    0  0.90796245525E+01 -0.72539689446E+01  0.46590901906E+01  0.12520653692E+02  0.00000000000E+00 0.  1.
         12    1    4    4    0    0  0.18992450663E+03 -0.51606151356E+02 -0.25548689536E+03  0.32250281669E+03  0.00000000000E+00 0. -1.
         -5    1    5    5    0  502 -0.20467798517E+03 -0.28613415934E+02  0.14949893335E+03  0.25511531952E+03  0.47000000000E+01 0.  1.
         11    1    6    6    0    0 -0.87971956720E+01  0.19360089471E+02  0.61831693065E+02  0.65386252250E+02  0.00000000000E+00 0. -1.
        -12    1    6    6    0    0 -0.34666052458E+02  0.14120361921E+02 -0.14707479187E+02  0.40217281830E+02  0.00000000000E+00 0.  1.
</event>
<event>
12    1  0.1035051E+000  0.1890078E+03  0.7818608E-02  0.1161195E+00
         21   -1    0    0  503  502  0.00000000000E+00  0.00000000000E+00  0.94370676622E+02  0.94370676622E+02  0.00000000000E+00 0.  1.
         21   -1    0    0  501  503 -0.00000000000E+00 -0.00000000000E+00 -0.54973207743E+03  0.54973207743E+03  0.00000000000E+00 0.  1.
          6    2    1    2  501    0 -0.54891575167E+02  0.51920504418E+02 -0.41219883991E+03  0.45022915962E+03  0.16458915135E+03 0.  0.
         24    2    3    3    0    0 -0.87580517060E+02  0.75135068774E+02 -0.33466017516E+03  0.36281167022E+03  0.79493708471E+02 0.  0.
         -6    2    1    2    0  502  0.54891575167E+02 -0.51920504418E+02 -0.43162560899E+02  0.19387359444E+03  0.17324878110E+03 0.  0.
        -24    2    5    5    0    0 -0.26797056330E+02 -0.57207803185E+02 -0.44775073384E+02  0.11186336190E+03  0.80732828303E+02 0.  0.
          5    1    3    3  501    0  0.32688941892E+02 -0.23214564355E+02 -0.77538664752E+02  0.87417489393E+02  0.47000000000E+01 0. -1.
        -13    1    4    4    0    0 -0.35311673081E+02  0.77572299804E+02 -0.23950553772E+03  0.25421895789E+03  0.00000000000E+00 0.  1.
         14    1    4    4    0    0 -0.52268843979E+02 -0.24372310304E+01 -0.95154637433E+02  0.10859271233E+03  0.00000000000E+00 0. -1.
         -5    1    5    5    0  502  0.81688631497E+02  0.52872987666E+01  0.16125124853E+01  0.82010232536E+02  0.47000000000E+01 0.  1.
         13    1    6    6    0    0  0.84589666937E+00  0.10433853908E+02 -0.36914108936E+02  0.38369679267E+02  0.00000000000E+00 0. -1.
        -14    1    6    6    0    0 -0.27642952999E+02 -0.67641657093E+02 -0.78609644486E+01  0.73493682632E+02  0.00000000000E+00 0.  1.
</event>
<event>
12    1  0.1035051E+000  0.1908480E+03  0.7818608E-02  0.1157807E+00
         21   -1    0    0  503  502  0.00000000000E+00  0.00000000000E+00  0.36899491694E+03  0.36899491694E+03  0.00000000000E+00 0. -1.
         21   -1    0    0  501  503 -0.00000000000E+00 -0.00000000000E+00 -0.13871529784E+03  0.13871529784E+03  0.00000000000E+00 0. -1.
          6    2    1    2  501    0 -0.66996232423E+02 -0.49006154662E+02  0.25179091940E+03  0.31565374731E+03  0.17131410550E+03 0.  0.
         24    2    3    3    0    0 -0.54026726004E+02  0.13685521963E+01  0.24478543542E+03  0.26295663170E+03  0.79407308879E+02 0.  0.
         -6    2    1    2    0  502  0.66996232423E+02  0.49006154662E+02 -0.21511300307E+02  0.19205646747E+03  0.17185125052E+03 0.  0.
        -24    2    5    5    0    0  0.44537972310E+02  0.85245644244E+02  0.26069111057E+02  0.12799665481E+03  0.80331153683E+02 0.  0.
          5    1    3    3  501    0 -0.12969506419E+02 -0.50374706858E+02  0.70054839829E+01  0.52697115610E+02  0.47000000000E+01 0. -1.
        -13    1    4    4    0    0 -0.62486111774E+01 -0.44169088954E+01 -0.46277049830E+01  0.89425879501E+01  0.00000000000E+00 0.  1.
         14    1    4    4    0    0 -0.47778114826E+02  0.57854610916E+01  0.24941314040E+03  0.25401404375E+03  0.00000000000E+00 0. -1.
         -5    1    5    5    0  502  0.22458260113E+02 -0.36239489582E+02 -0.47580411364E+02  0.64059812660E+02  0.47000000000E+01 0.  1.
         11    1    6    6    0    0  0.10575055545E+02 -0.14945166687E+02 -0.23418086770E+01  0.18457352870E+02  0.00000000000E+00 0. -1.
        -12    1    6    6    0    0  0.33962916764E+02  0.10019081093E+03  0.28410919734E+02  0.10953930194E+03  0.00000000000E+00 0.  1.
</event>
<event>
12    1  0.1035051E+000  0.2483011E+03  0.7818608E-02  0.1114456E+00
         21   -1    0    0  503  502  0.00000000000E+00  0.00000000000E+00  0.19813191705E+03  0.19813191705E+03  0.00000000000E+00 0.  1.
         21   -1    0    0  501  503 -0.00000000000E+00 -0.00000000000E+00 -0.16940880146E+04  0.16940880146E+04  0.00000000000E+00 0. -1.
          6    2    1    2  501    0  0.17590704419E+03  0.32930297707E+02 -0.16030922214E+04  0.16222077942E+04  0.17212136576E+03 0.  0.
         24    2    3    3    0    0  0.12163788142E+03  0.68397856041E+02 -0.77108400562E+03  0.78766429573E+03  0.79815149760E+02 0.  0.
         -6    2    1    2    0  502 -0.17590704419E+03 -0.32930297707E+02  0.10713612384E+03  0.27001213747E+03  0.17146636010E+03 0.  0.
        -24    2    5    5    0    0 -0.13788299366E+03  0.23755183431E+02  0.11972726875E+03  0.20044419139E+03  0.79165815233E+02 0.  0.
          5    1    3    3  501    0  0.54269162773E+02 -0.35467558334E+02 -0.83200821579E+03  0.83454349849E+03  0.47000000000E+01 0. -1.
        -11    1    4    4    0    0  0.94952585793E+02  0.24303844828E+02 -0.62753429258E+03  0.63514247125E+03  0.00000000000E+00 0.  1.
         12    1    4    4    0    0  0.26685295628E+02  0.44094011213E+02 -0.14354971304E+03  0.15252182448E+03  0.00000000000E+00 0. -1.
         -5    1    5    5    0  502 -0.38024050537E+02 -0.56685481137E+02 -0.12591144911E+02  0.69567946076E+02  0.47000000000E+01 0.  1.
         11    1    6    6    0    0 -0.63909906100E+02  0.39422099138E+02  0.24794248087E+02  0.79078016770E+02  0.00000000000E+00 0. -1.
        -12    1    6    6    0    0 -0.73973087557E+02 -0.15666915707E+02  0.94933020663E+02  0.12136617462E+03  0.00000000000E+00 0.  1.
</event>
<event>
12    1  0.1035051E+000  0.3727026E+03  0.7818608E-02  0.1053698E+00
         21   -1    0    0  503  502  0.00000000000E+00  0.00000000000E+00  0.51530186735E+03  0.51530186735E+03  0.00000000000E+00 0.  1.
         21   -1    0    0  501  503 -0.00000000000E+00 -0.00000000000E+00 -0.68907342969E+03  0.68907342969E+03  0.00000000000E+00 0. -1.
          6    2    1    2  501    0 -0.18659588196E+03 -0.27296131363E+03  0.38310385908E+03  0.53448645809E+03  0.17199216593E+03 0.  0.
         24    2    3    3    0    0 -0.11944036312E+03 -0.10118850298E+03  0.11777893811E+03  0.21132215642E+03  0.79246842553E+02 0.  0.
         -6    2    1    2    0  502  0.18659588196E+03  0.27296131363E+03 -0.55687542141E+03  0.66988883895E+03  0.17121600296E+03 0.  0.
        -24    2    5    5    0    0  0.17170358309E+03  0.24235169331E+03 -0.55598786035E+03  0.63551432533E+03  0.80867132656E+02 0.  0.
          5    1    3    3  501    0 -0.67155518842E+02 -0.17177281065E+03  0.26532492096E+03  0.32316430167E+03  0.47000000000E+01 0. -1.
        -13    1    4    4    0    0 -0.94152580215E+02 -0.96067210711E+02  0.12593349837E+03  0.18426302762E+03  0.00000000000E+00 0.  1.
         14    1    4    4    0    0 -0.25287782900E+02 -0.51212922724E+01 -0.81545602594E+01  0.27059128803E+02  0.00000000000E+00 0. -1.
         -5    1    5    5    0  502  0.14892298865E+02  0.30609620323E+02 -0.88756106089E+00  0.34374513618E+02  0.47000000000E+01 0.  1.
         13    1    6    6    0    0  0.96044697190E+02  0.17891918551E+03 -0.31151898015E+03  0.37186117544E+03  0.00000000000E+00 0. -1.
        -14    1    6    6    0    0  0.75658885902E+02  0.63432507791E+02 -0.24446888020E+03  0.26365314989E+03  0.00000000000E+00 0.  1.
</event>
<event>
12    1  0.1035051E+000  0.1834700E+03  0.7818608E-02  0.1164614E+00
         21   -1    0    0  501  502  0.00000000000E+00  0.00000000000E+00  0.13536876417E+03  0.13536876417E+03  0.00000000000E+00 0. -1.
         21   -1    0    0  502  503 -0.00000000000E+00 -0.00000000000E+00 -0.30869310347E+03  0.30869310347E+03  0.00000000000E+00 0. -1.
         -6    2    1    2    0  503  0.22339323211E+02  0.59228214346E+02  0.11947652689E+02  0.18331881363E+03  0.17162754525E+03 0.  0.
        -24    2    3    3    0    0  0.44960669344E+02 -0.76172576421E+01  0.50282844372E+02  0.10287181649E+03  0.77296583293E+02 0.  0.
          6    2    1    2  501    0 -0.22339323211E+02 -0.59228214346E+02 -0.18527199200E+03  0.26074305401E+03  0.17220395600E+03 0.  0.
         24    2    5    5    0    0  0.46813947221E+02 -0.47678464189E+02 -0.69323560602E+02  0.12516392478E+03  0.79971685058E+02 0.  0.
          5    1    5    5  501    0 -0.69153270432E+02 -0.11549750157E+02 -0.11594843139E+03  0.13557912923E+03  0.47000000000E+01 0. -1.
        -11    1    6    6    0    0  0.53707748575E+02 -0.50405589254E+01 -0.60543163480E+02  0.81088865669E+02  0.00000000000E+00 0.  1.
         12    1    6    6    0    0 -0.68938013547E+01 -0.42637905263E+02 -0.87803971221E+01  0.44075059115E+02  0.00000000000E+00 0. -1.
         -5    1    3    3    0  503 -0.22621346133E+02  0.66845471988E+02 -0.38335191683E+02  0.80446997132E+02  0.47000000000E+01 0.  1.
         13    1    4    4    0    0  0.62210440968E+02 -0.17559236066E+01  0.16333260930E+02  0.64342813474E+02  0.00000000000E+00 0. -1.
        -14    1    4    4    0    0 -0.17249771624E+02 -0.58613340354E+01  0.33949583443E+02  0.38529003020E+02  0.00000000000E+00 0.  1.
</event>
<event>
12    1  0.1035051E+000  0.2113469E+03  0.7818608E-02  0.1140535E+00
         21   -1    0    0  501  502  0.00000000000E+00  0.00000000000E+00  0.14573528269E+04  0.14573528269E+04  0.00000000000E+00 0. -1.
         21   -1    0    0  502  503 -0.00000000000E+00 -0.00000000000E+00 -0.36570315109E+02  0.36570315109E+02  0.00000000000E+00 0. -1.
         -6    2    1    2    0  503  0.80662238363E+02  0.93662298075E+02  0.40904257220E+03  0.46034429278E+03  0.17123673451E+03 0.  0.
        -24    2    3    3    0    0 -0.53897629683E+01  0.71030096098E+02  0.30537097344E+03  0.32364369334E+03  0.80121686947E+02 0.  0.
          6    2    1    2  501    0 -0.80662238363E+02 -0.93662298075E+02  0.10117399395E+04  0.10335788492E+04  0.17143077154E+03 0.  0.
         24    2    5    5    0    0 -0.33406505983E+02 -0.11928362968E+03  0.86077691725E+03  0.87326203479E+03  0.79404667301E+02 0.  0.
          5    1    5    5  501    0 -0.47255732381E+02  0.25621331601E+02  0.15096302230E+03  0.16031681439E+03  0.47000000000E+01 0. -1.
        -13    1    6    6    0    0 -0.47772658922E+02 -0.37586085773E+02  0.27477976275E+03  0.28142291805E+03  0.00000000000E+00 0.  1.
         14    1    6    6    0    0  0.14366152940E+02 -0.81697543903E+02  0.58599715450E+03  0.59183911674E+03  0.00000000000E+00 0. -1.
         -5    1    3    3    0  503  0.86052001332E+02  0.22632201977E+02  0.10367159876E+03  0.13670059945E+03  0.47000000000E+01 0.  1.
         11    1    4    4    0    0 -0.38637857543E+01  0.15071189621E+02  0.26406314080E+01  0.15781081432E+02  0.00000000000E+00 0. -1.
        -12    1    4    4    0    0 -0.15259772140E+01  0.55958906478E+02  0.30273034203E+03  0.30786261190E+03  0.00000000000E+00 0.  1.
</event>
<event>
12    1  0.1035051E+000  0.1818476E+03  0.7818608E-02  0.1167585E+00
         21   -1    0    0  501  502  0.00000000000E+00  0.00000000000E+00  0.79642150165E+03  0.79642150165E+03  0.00000000000E+00 0. -1.
         21   -1    0    0  502  503 -0.00000000000E+00 -0.00000000000E+00 -0.40602365105E+02  0.40602365105E+02  0.00000000000E+00 0. -1.
         -6    2    1    2    0  503  0.40377321481E+02 -0.16743176027E+02  0.32342376893E+03  0.36794572139E+03  0.16991308822E+03 0.  0.
        -24    2    3    3    0    0 -0.29164713522E+02 -0.48776771767E+02  0.20781157961E+03  0.22919949907E+03  0.78211276525E+02 0.  0.
          6    2    1    2  501    0 -0.40377321481E+02  0.16743176027E+02  0.43239536762E+03  0.46907814537E+03  0.17651597800E+03 0.  0.
         24    2    5    5    0    0  0.46559091532E+02  0.21276318352E+02  0.26729902562E+03  0.28237682928E+03  0.75282626757E+02 0.  0.
          5    1    5    5  501    0 -0.86936413012E+02 -0.45331423248E+01  0.16509634200E+03  0.18670131609E+03  0.47000000000E+01 0. -1.
        -13    1    6    6    0    0  0.23430451339E+02  0.47849911717E+02  0.19181057015E+03  0.19907258707E+03  0.00000000000E+00 0.  1.
         14    1    6    6    0    0  0.23128640192E+02 -0.26573593365E+02  0.75488455471E+02  0.83304242214E+02  0.00000000000E+00 0. -1.
         -5    1    3    3    0  503  0.69542035003E+02  0.32033595740E+02  0.11561218932E+03  0.13874622232E+03  0.47000000000E+01 0.  1.
         11    1    4    4    0    0 -0.91829389672E+01  0.18882348586E+02  0.21838863612E+02  0.30295303598E+02  0.00000000000E+00 0. -1.
        -12    1    4    4    0    0 -0.19981774555E+02 -0.67659120354E+02  0.18597271600E+03  0.19890419547E+03  0.00000000000E+00 0.  1.
</event>
<event>
12    1  0.1035051E+000  0.2713931E+03  0.7818608E-02  0.1100568E+00
         21   -1    0    0  501  502  0.00000000000E+00  0.00000000000E+00  0.24565398420E+03  0.24565398420E+03  0.00000000000E+00 0.  1.
         21   -1    0    0  502  503 -0.00000000000E+00 -0.00000000000E+00 -0.35653150306E+03  0.35653150306E+03  0.00000000000E+00 0.  1.
         -6    2    1    2    0  503 -0.10912874944E+03 -0.17904802617E+03 -0.17624753749E+03  0.32360070063E+03  0.17229898242E+03 0.  0.
        -24    2    3    3    0    0 -0.57169998546E+02 -0.72974774807E+02 -0.13925628694E+03  0.19973912843E+03  0.10913147796E+03 0.  0.
          6    2    1    2  501    0  0.10912874944E+03  0.17904802617E+03  0.65370018627E+02  0.27858478664E+03  0.17137375639E+03 0.  0.
         24    2    5    5    0    0  0.49679617605E+02  0.29518424608E+02 -0.13928027801E+02  0.99131251739E+02  0.79332296804E+02 0.  0.
          5    1    5    5  501    0  0.59449131834E+02  0.14952960157E+03  0.79298046428E+02  0.17945353490E+03  0.47000000000E+01 0. -1.
        -11    1    6    6    0    0 -0.13506650187E+02 -0.81795631280E+01 -0.19793581808E+02  0.25320362023E+02  0.00000000000E+00 0.  1.
         12    1    6    6    0    0  0.63186267792E+02  0.37697987736E+02  0.58655540067E+01  0.73810889715E+02  0.00000000000E+00 0. -1.
         -5    1    3    3    0  503 -0.51958750893E+02 -0.10607325137E+03 -0.36991250548E+02  0.12386157220E+03  0.47000000000E+01 0.  1.
         13    1    4    4    0    0 -0.34249871024E+01 -0.79668840508E+02 -0.46448442529E+02  0.92283869110E+02  0.00000000000E+00 0. -1.
        -14    1    4    4    0    0 -0.53745011443E+02  0.66940657011E+01 -0.92807844412E+02  0.10745525932E+03  0.00000000000E+00 0.  1.
</event>
<event>
12    1  0.1035051E+000  0.2014744E+03  0.7818608E-02  0.1148666E+00
         21   -1    0    0  501  502  0.00000000000E+00  0.00000000000E+00  0.15353508136E+03  0.15353508136E+03  0.00000000000E+00 0.  1.
         21   -1    0    0  502  503 -0.00000000000E+00 -0.00000000000E+00 -0.29456779157E+03  0.29456779157E+03  0.00000000000E+00 0.  1.
         -6    2    1    2    0  503 -0.14560014022E+02  0.10269819575E+03  0.25478255256E+01  0.20070178347E+03  0.17180163287E+03 0.  0.
        -24    2    3    3    0    0 -0.60970550414E+02  0.10915280513E+03 -0.16514134176E+02  0.14989776613E+03  0.81023951873E+02 0.  0.
          6    2    1    2  501    0  0.14560014022E+02 -0.10269819575E+03 -0.14358053574E+03  0.24740108946E+03  0.17272236509E+03 0.  0.
         24    2    5    5    0    0 -0.46611214651E+02 -0.10413188438E+03 -0.86679481675E+02  0.16371241260E+03  0.79198275352E+02 0.  0.
          5    1    5    5  501    0  0.61171228672E+02  0.14336886372E+01 -0.56901054066E+02  0.83688676858E+02  0.47000000000E+01 0. -1.
        -13    1    6    6    0    0 -0.46335808659E+02 -0.19469454232E+02 -0.14107592474E+02  0.52202403945E+02  0.00000000000E+00 0.  1.
         14    1    6    6    0    0 -0.27540599125E+00 -0.84662430150E+02 -0.72571889201E+02  0.11151000865E+03  0.00000000000E+00 0. -1.
         -5    1    3    3    0  503  0.46410536392E+02 -0.64546093889E+01  0.19061959701E+02  0.50804017343E+02  0.47000000000E+01 0.  1.
         13    1    4    4    0    0 -0.52045534118E+02  0.15249177593E+02 -0.11489622419E+02  0.55437229929E+02  0.00000000000E+00 0. -1.
        -14    1    4    4    0    0 -0.89250162959E+01  0.93903627541E+02 -0.50245117570E+01  0.94460536202E+02  0.00000000000E+00 0.  1.
</event>
<event>
12    1  0.1035051E+000  0.2351351E+03  0.7818608E-02  0.1124180E+00
         21   -1    0    0  501  502  0.00000000000E+00  0.00000000000E+00  0.13067103585E+04  0.13067103585E+04  0.00000000000E+00 0.  1.
         21   -1    0    0  502  503 -0.00000000000E+00 -0.00000000000E+00 -0.45209286381E+02  0.45209286381E+02  0.00000000000E+00 0.  1.
         -6    2    1    2    0  503 -0.42458469103E+02 -0.14527848852E+03  0.43670833036E+03  0.49598658888E+03  0.17994435174E+03 0.  0.
        -24    2    3    3    0    0  0.39931633357E+02 -0.81465788638E+02  0.30688020810E+03  0.32944043618E+03  0.78258091014E+02 0.  0.
          6    2    1    2  501    0  0.42458469103E+02  0.14527848852E+03  0.82479274180E+03  0.85593305604E+03  0.17155106723E+03 0.  0.
         24    2    5    5    0    0  0.38429886898E+02  0.17312484377E+03  0.77064892547E+03  0.79473426666E+03  0.79080468693E+02 0.  0.
          5    1    5    5  501    0  0.40285822052E+01 -0.27846355250E+02  0.54143816332E+02  0.61198789386E+02  0.47000000000E+01 0. -1.
        -13    1    6    6    0    0 -0.12675425701E+02  0.39967890897E+02  0.89800791927E+02  0.99107421267E+02  0.00000000000E+00 0.  1.
         14    1    6    6    0    0  0.51105312599E+02  0.13315695287E+03  0.68084813355E+03  0.69562684539E+03  0.00000000000E+00 0. -1.
         -5    1    3    3    0  503 -0.82390102461E+02 -0.63812699880E+02  0.12982812226E+03  0.16654615270E+03  0.47000000000E+01 0.  1.
         11    1    4    4    0    0  0.11988797256E+02 -0.89656114470E+02  0.24082016223E+03  0.25724754743E+03  0.00000000000E+00 0. -1.
        -12    1    4    4    0    0  0.27942836101E+02  0.81903258318E+01  0.66060045867E+02  0.72192888754E+02  0.00000000000E+00 0.  1.
</event>
<event>
12    1  0.1035051E+000  0.2569897E+03  0.7818608E-02  0.1108997E+00
         21   -1    0    0  501  502  0.00000000000E+00  0.00000000000E+00  0.30685521780E+03  0.30685521780E+03  0.00000000000E+00 0. -1.
         21   -1    0    0  502  503 -0.00000000000E+00 -0.00000000000E+00 -0.22509022711E+03  0.22509022711E+03  0.00000000000E+00 0. -1.
         -6    2    1    2    0  503 -0.26252950310E+02 -0.18884928962E+03 -0.15263980700E+02  0.25744256695E+03  0.17230906704E+03 0.  0.
        -24    2    3    3    0    0  0.66238519643E+01 -0.19050859161E+03 -0.46541215427E+02  0.21179179672E+03  0.79701201564E+02 0.  0.
          6    2    1    2  501    0  0.26252950310E+02  0.18884928962E+03  0.97028971392E+02  0.27450287796E+03  0.17199981724E+03 0.  0.
         24    2    5    5    0    0  0.84525605379E+01  0.14114811424E+03  0.13452468684E+03  0.21109724189E+03  0.80442017838E+02 0.  0.
          5    1    5    5  501    0  0.17800389772E+02  0.47701175376E+02 -0.37495715443E+02  0.63405636066E+02  0.47000000000E+01 0. -1.
        -11    1    6    6    0    0 -0.20783352263E+02  0.11568311222E+03  0.72952683936E+02  0.13833518814E+03  0.00000000000E+00 0.  1.
         12    1    6    6    0    0  0.29235912801E+02  0.25465002016E+02  0.61572002899E+02  0.72762053750E+02  0.00000000000E+00 0. -1.
         -5    1    3    3    0  503 -0.32876802275E+02  0.16593019946E+01  0.31277234727E+02  0.45650770235E+02  0.47000000000E+01 0.  1.
         13    1    4    4    0    0 -0.36155051387E+02 -0.82630204210E+02 -0.14077543435E+02  0.91285900432E+02  0.00000000000E+00 0. -1.
        -14    1    4    4    0    0  0.42778903351E+02 -0.10787838740E+03 -0.32463671992E+02  0.12050589628E+03  0.00000000000E+00 0.  1.
</event>
<event>
12    1  0.1035051E+000  0.3879573E+03  0.7818608E-02  0.1048114E+00
         21   -1    0    0  501  502  0.00000000000E+00  0.00000000000E+00  0.37556955452E+03  0.37556955452E+03  0.00000000000E+00 0.  1.
         21   -1    0    0  502  503 -0.00000000000E+00 -0.00000000000E+00 -0.71085860890E+03  0.71085860890E+03  0.00000000000E+00 0.  1.
         -6    2    1    2    0  503  0.46072236624E+02 -0.34388423729E+03 -0.52708609006E+03  0.65446971434E+03  0.17358525576E+03 0.  0.
        -24    2    3    3    0    0 -0.42337161348E+02 -0.15557146726E+03 -0.23448793890E+03  0.29542418928E+03  0.79346968860E+02 0.  0.
          6    2    1    2  501    0 -0.46072236624E+02  0.34388423729E+03  0.19179703567E+03  0.43195844908E+03  0.17153127759E+03 0.  0.
         24    2    5    5    0    0 -0.18606089154E+01  0.19009597706E+03  0.17585153027E+03  0.27108009084E+03  0.80129349100E+02 0.  0.
          5    1    5    5  501    0 -0.44211627709E+02  0.15378826023E+03  0.15945505399E+02  0.16087835824E+03  0.47000000000E+01 0. -1.
        -13    1    6    6    0    0  0.17663280475E+02  0.34870403428E+01  0.22083135360E+02  0.28492381347E+02  0.00000000000E+00 0.  1.
         14    1    6    6    0    0 -0.19523889391E+02  0.18660893672E+03  0.15376839491E+03  0.24258770949E+03  0.00000000000E+00 0. -1.
         -5    1    3    3    0  503  0.88409397972E+02 -0.18831277003E+03 -0.29259815116E+03  0.35904552506E+03  0.47000000000E+01 0.  1.
         11    1    4    4    0    0 -0.37656406286E+02 -0.64295947106E+02 -0.50577699749E+02  0.90055968489E+02  0.00000000000E+00 0. -1.
        -12    1    4    4    0    0 -0.46807550616E+01 -0.91275520154E+02 -0.18391023915E+03  0.20536822079E+03  0.00000000000E+00 0.  1.
</event>
<event>
12    1  0.1035051E+000  0.2296566E+03  0.7818608E-02  0.1127016E+00
         21   -1    0    0  501  502  0.00000000000E+00  0.00000000000E+00  0.27145973108E+03  0.27145973108E+03  0.00000000000E+00 0.  1.
         21   -1    0    0  502  503 -0.00000000000E+00 -0.00000000000E+00 -0.19399922264E+03  0.19399922264E+03  0.00000000000E+00 0.  1.
         -6    2    1    2    0  503  0.15004299170E+03 -0.13165352615E+02  0.48692851963E+02  0.23476192253E+03  0.17336649206E+03 0.  0.
        -24    2    3    3    0    0  0.75347948313E+02 -0.72417763883E+02  0.10867642293E+02  0.13208264403E+03  0.80037949517E+02 0.  0.
          6    2    1    2  501    0 -0.15004299170E+03  0.13165352615E+02  0.28767656481E+02  0.23069703118E+03  0.17235810474E+03 0.  0.
         24    2    5    5    0    0 -0.31377465220E+02 -0.56577621067E+01  0.63775336507E+02  0.10546347145E+03  0.77709038518E+02 0.  0.
          5    1    5    5  501    0 -0.11866552648E+03  0.18823114722E+02 -0.35007680027E+02  0.12523355974E+03  0.47000000000E+01 0. -1.
        -13    1    6    6    0    0 -0.49982157919E+02 -0.26066386315E+02  0.43513193423E+02  0.71211449976E+02  0.00000000000E+00 0.  1.
         14    1    6    6    0    0  0.18604692700E+02  0.20408624208E+02  0.20262143084E+02  0.34252021471E+02  0.00000000000E+00 0. -1.
         -5    1    3    3    0  503  0.74695043389E+02  0.59252411268E+02  0.37825209671E+02  0.10267927851E+03  0.47000000000E+01 0.  1.
         13    1    4    4    0    0  0.79650262742E+02 -0.84935005032E+02  0.16677618257E+02  0.11762764295E+03  0.00000000000E+00 0. -1.
        -14    1    4    4    0    0 -0.43023144289E+01  0.12517241149E+02 -0.58099759645E+01  0.14455001077E+02  0.00000000000E+00 0.  1.
</event>
<event>
12    1  0.1035051E+000  0.2051371E+03  0.7818608E-02  0.1145776E+00
         21   -1    0    0  501  502  0.00000000000E+00  0.00000000000E+00  0.22027877002E+03  0.22027877002E+03  0.00000000000E+00 0.  1.
         21   -1    0    0  502  503 -0.00000000000E+00 -0.00000000000E+00 -0.18967467717E+03  0.18967467717E+03  0.00000000000E+00 0.  1.
         -6    2    1    2    0  503  0.88536394961E+02 -0.64946885969E+02  0.15572660598E+02  0.20572731888E+03  0.17327559189E+03 0.  0.
        -24    2    3    3    0    0  0.23628475940E+02 -0.30793239530E+02 -0.53641269327E+02  0.10477105304E+03  0.81197655775E+02 0.  0.
          6    2    1    2  501    0 -0.88536394961E+02  0.64946885969E+02  0.15031432249E+02  0.20422612831E+03  0.17153884778E+03 0.  0.
         24    2    5    5    0    0 -0.17202883797E+02  0.29328591953E+02  0.66668279963E+02  0.10911783884E+03  0.79409934410E+02 0.  0.
          5    1    5    5  501    0 -0.71333511164E+02  0.35618294016E+02 -0.51636847714E+02  0.95108289468E+02  0.47000000000E+01 0. -1.
        -13    1    6    6    0    0  0.24810719213E+02  0.10422721750E+02 -0.13730762151E+01  0.26946061954E+02  0.00000000000E+00 0.  1.
         14    1    6    6    0    0 -0.42013603010E+02  0.18905870203E+02  0.68041356178E+02  0.82171776885E+02  0.00000000000E+00 0. -1.
         -5    1    3    3    0  503  0.64907919021E+02 -0.34153646439E+02  0.69213929925E+02  0.10095626584E+03  0.47000000000E+01 0.  1.
         11    1    4    4    0    0 -0.46047690525E+01 -0.48370957376E+02 -0.95107230499E+01  0.49511688200E+02  0.00000000000E+00 0. -1.
        -12    1    4    4    0    0  0.28233244992E+02  0.17577717846E+02 -0.44130546277E+02  0.55259364837E+02  0.00000000000E+00 0.  1.
</event>
<event>
12    1  0.1035051E+000  0.1818600E+03  0.7818608E-02  0.1166502E+00
         21   -1    0    0  501  502  0.00000000000E+00  0.00000000000E+00  0.12942011463E+04  0.12942011463E+04  0.00000000000E+00 0.  1.
         21   -1    0    0  502  503 -0.00000000000E+00 -0.00000000000E+00 -0.30731562885E+02  0.30731562885E+02  0.00000000000E+00 0.  1.
         -6    2    1    2    0  503 -0.27196811943E+02  0.32568920303E+02  0.90807222497E+03  0.92570804885E+03  0.17475647282E+03 0.  0.
        -24    2    3    3    0    0 -0.43894053177E+02  0.68862852856E+02  0.33853272874E+03  0.35474975337E+03  0.67632822535E+02 0.  0.
          6    2    1    2  501    0  0.27196811943E+02 -0.32568920303E+02  0.35539735844E+03  0.39922466033E+03  0.17684073592E+03 0.  0.
         24    2    5    5    0    0 -0.48125802643E+02 -0.29695246163E+00  0.22289304759E+03  0.24335786281E+03  0.85003280317E+02 0.  0.
          5    1    5    5  501    0  0.75322614586E+02 -0.32271967841E+02  0.13250431084E+03  0.15586679752E+03  0.47000000000E+01 0. -1.
        -11    1    6    6    0    0 -0.36074126394E+02  0.38906821016E+02  0.92154537387E+02  0.10633692716E+03  0.00000000000E+00 0.  1.
         12    1    6    6    0    0 -0.12051676249E+02 -0.39203773478E+02  0.13073851021E+03  0.13702093565E+03  0.00000000000E+00 0. -1.
         -5    1    3    3    0  503  0.16697241234E+02 -0.36293932553E+02  0.56953949624E+03  0.57095829548E+03  0.47000000000E+01 0.  1.
         13    1    4    4    0    0 -0.59925003223E+02  0.39531941344E+02  0.20954748603E+03  0.22150379071E+03  0.00000000000E+00 0. -1.
        -14    1    4    4    0    0  0.16030950046E+02  0.29330911512E+02  0.12898524270E+03  0.13324596266E+03  0.00000000000E+00 0.  1.
</event>
<event>
12    1  0.1035051E+000  0.1929401E+03  0.7818608E-02  0.1156015E+00
         21   -1    0    0  503  502  0.00000000000E+00  0.00000000000E+00  0.47091843732E+03  0.47091843732E+03  0.00000000000E+00 0. -1.
         21   -1    0    0  501  503 -0.00000000000E+00 -0.00000000000E+00 -0.15999715977E+03  0.15999715977E+03  0.00000000000E+00 0. -1.
          6    2    1    2  501    0 -0.38792332567E+01  0.86291628810E+02  0.38013998773E+03  0.42593479833E+03  0.17161803083E+03 0.  0.
         24    2    3    3    0    0  0.20676033064E+02  0.75135031921E+02  0.38275187499E+03  0.39843311269E+03  0.78595013276E+02 0.  0.
         -6    2    1    2    0  502  0.38792332567E+01 -0.86291628810E+02 -0.69218710185E+02  0.20498079875E+03  0.17252421385E+03 0.  0.
        -24    2    5    5    0    0  0.44226297319E+02 -0.22223368969E+01 -0.66238026437E+01  0.92571974049E+02  0.81023400706E+02 0.  0.
          5    1    3    3  501    0 -0.24555266321E+02  0.11156596890E+02 -0.26118872612E+01  0.27501685645E+02  0.47000000000E+01 0. -1.
        -11    1    4    4    0    0  0.86104669756E+01  0.47162636868E+02  0.35162949564E+03  0.35488273650E+03  0.00000000000E+00 0.  1.
         12    1    4    4    0    0  0.12065566089E+02  0.27972395053E+02  0.31122379349E+02  0.43550376191E+02  0.00000000000E+00 0. -1.
         -5    1    5    5    0  502 -0.40347064062E+02 -0.84069291914E+02 -0.62594907541E+02  0.11240882470E+03  0.47000000000E+01 0.  1.
         13    1    6    6    0    0  0.29823972607E+02 -0.39435480114E+02 -0.15261285265E+02  0.51744886335E+02  0.00000000000E+00 0. -1.
        -14    1    6    6    0    0  0.14402324712E+02  0.37213143217E+02  0.86374826208E+01  0.40827087714E+02  0.00000000000E+00 0.  1.
</event>
<event>
12    1  0.1035051E+000  0.2209988E+03  0.7818608E-02  0.1133379E+00
         21   -1    0    0  503  502  0.00000000000E+00  0.00000000000E+00  0.10355069998E+04  0.10355069998E+04  0.00000000000E+00 0.  1.
         21   -1    0    0  501  503 -0.00000000000E+00 -0.00000000000E+00 -0.10990623168E+03  0.10990623168E+03  0.00000000000E+00 0. -1.
          6    2    1    2  501    0 -0.77833084202E+02 -0.11312886882E+03  0.29726840498E+02  0.22298918118E+03  0.17315992585E+03 0.  0.
         24    2    3    3    0    0 -0.95242823095E+02 -0.37525774023E+02  0.51385792062E+02  0.14230382232E+03  0.84442282974E+02 0.  0.
         -6    2    1    2    0  502  0.77833084202E+02  0.11312886882E+03  0.89587392762E+03  0.92242405029E+03  0.17152231459E+03 0.  0.
        -24    2    5    5    0    0  0.23837750782E+01  0.13453523456E+02  0.20366775137E+03  0.21900436535E+03  0.79345317548E+02 0.  0.
          5    1    3    3  501    0  0.17409738892E+02 -0.75603094801E+02 -0.21658951564E+02  0.80685358862E+02  0.47000000000E+01 0. -1.
        -13    1    4    4    0    0 -0.58307137014E+02 -0.64181513093E+02  0.28129549294E+02  0.91160629622E+02  0.00000000000E+00 0.  1.
         14    1    4    4    0    0 -0.36935686081E+02  0.26655739070E+02  0.23256242768E+02  0.51143192698E+02  0.00000000000E+00 0. -1.
         -5    1    5    5    0  502  0.75449309124E+02  0.99675345368E+02  0.69220617625E+03  0.70341968494E+03  0.47000000000E+01 0.  1.
         13    1    6    6    0    0 -0.15769938610E+02  0.40090818934E+02  0.76314691275E+02  0.87635020574E+02  0.00000000000E+00 0. -1.
        -14    1    6    6    0    0  0.18153713688E+02 -0.26637295478E+02  0.12735306010E+03  0.13136934478E+03  0.00000000000E+00 0.  1.
</event>
<event>
12    1  0.1035051E+000  0.1896088E+03  0.7818608E-02  0.1158995E+00
         21   -1    0    0  503  502  0.00000000000E+00  0.00000000000E+00  0.29865428152E+03  0.29865428152E+03  0.00000000000E+00 0. -1.
         21   -1    0    0  501  503 -0.00000000000E+00 -0.00000000000E+00 -0.12054333036E+03  0.12054333036E+03  0.00000000000E+00 0. -1.
          6    2    1    2  501    0  0.61483934578E+02 -0.47877219432E+02  0.73616594403E+02  0.20339839422E+03  0.17285543511E+03 0.  0.
         24    2    3    3    0    0 -0.27147907586E+02 -0.51317263414E+02  0.39252751022E+02  0.10815974093E+03  0.82384954240E+02 0.  0.
         -6    2    1    2    0  502 -0.61483934578E+02  0.47877219432E+02  0.10449435676E+03  0.21579921766E+03  0.17198177053E+03 0.  0.
        -24    2    5    5    0    0 -0.80089878730E+02 -0.22529027105E+02  0.71268417423E+02  0.13561646543E+03  0.79941807821E+02 0.  0.
          5    1    3    3  501    0  0.88631842165E+02  0.34400439818E+01  0.34363843381E+02  0.95238653288E+02  0.47000000000E+01 0. -1.
        -13    1    4    4    0    0 -0.41198923476E+02 -0.67667236495E+02  0.30411656776E+02  0.84859148348E+02  0.00000000000E+00 0.  1.
         14    1    4    4    0    0  0.14051015890E+02  0.16349973081E+02  0.88410942456E+01  0.23300592584E+02  0.00000000000E+00 0. -1.
         -5    1    5    5    0  502  0.18605944151E+02  0.70406246537E+02  0.33225939341E+02  0.80182752224E+02  0.47000000000E+01 0.  1.
         13    1    6    6    0    0 -0.71936440664E+02 -0.12416452646E+02  0.10831553851E+02  0.73799338416E+02  0.00000000000E+00 0. -1.
        -14    1    6    6    0    0 -0.81534380657E+01 -0.10112574458E+02  0.60436863572E+02  0.61817127019E+02  0.00000000000E+00 0.  1.
</event>
<event>
12    1  0.1035051E+000  0.2075454E+03  0.7818608E-02  0.1143572E+00
         21   -1    0    0  501  502  0.00000000000E+00  0.00000000000E+00  0.32044273633E+03  0.32044273633E+03  0.00000000000E+00 0. -1.
         21   -1    0    0  502  503 -0.00000000000E+00 -0.00000000000E+00 -0.17254002405E+03  0.17254002405E+03  0.00000000000E+00 0. -1.
         -6    2    1    2    0  503  0.99792568843E+02  0.58945784583E+02  0.19006786692E+03  0.28142652508E+03  0.17216832655E+03 0.  0.
        -24    2    3    3    0    0 -0.83878386086E+01  0.44947890625E+02  0.66868930053E+02  0.11680875679E+03  0.84155588930E+02 0.  0.
          6    2    1    2  501    0 -0.99792568843E+02 -0.58945784583E+02 -0.42165154643E+02  0.21155623529E+03  0.17188652684E+03 0.  0.
         24    2    5    5    0    0 -0.28307582772E+02 -0.13553814554E+02  0.39379301085E+02  0.93903685654E+02  0.79260000593E+02 0.  0.
          5    1    5    5  501    0 -0.71484986070E+02 -0.45391970029E+02 -0.81544455728E+02  0.11765254964E+03  0.47000000000E+01 0. -1.
        -13    1    6    6    0    0  0.25400354937E+02 -0.16265328519E+02  0.64420907874E+01  0.30842170424E+02  0.00000000000E+00 0.  1.
         14    1    6    6    0    0 -0.53707937709E+02  0.27115139649E+01  0.32937210298E+02  0.63061515230E+02  0.00000000000E+00 0. -1.
         -5    1    3    3    0  503  0.10818040745E+03  0.13997893958E+02  0.12319893687E+03  0.16461776829E+03  0.47000000000E+01 0.  1.
         11    1    4    4    0    0 -0.24299222523E+02 -0.21271735480E+01  0.62303399988E+02  0.66908076737E+02  0.00000000000E+00 0. -1.
        -12    1    4    4    0    0  0.15911383914E+02  0.47075064173E+02  0.45655300648E+01  0.49900680053E+02  0.00000000000E+00 0.  1.
</event>
<event>
12    1  0.1035051E+000  0.2601999E+03  0.7818608E-02  0.1107234E+00
         21   -1    0    0  503  502  0.00000000000E+00  0.00000000000E+00  0.46171890576E+03  0.46171890576E+03  0.00000000000E+00 0. -1.
         21   -1    0    0  501  503 -0.00000000000E+00 -0.00000000000E+00 -0.23985732692E+03  0.23985732692E+03  0.00000000000E+00 0. -1.
          6    2    1    2  501    0 -0.17732640443E+03  0.76561933608E+02 -0.10886293834E+03  0.28076427340E+03  0.17225287948E+03 0.  0.
         24    2    3    3    0    0 -0.96955984010E+02 -0.25373834709E+02 -0.39964704914E+02  0.13372903304E+03  0.79006216938E+02 0.  0.
         -6    2    1    2    0  502  0.17732640443E+03 -0.76561933608E+02  0.33072451718E+03  0.42081195927E+03  0.17434911935E+03 0.  0.
        -24    2    5    5    0    0  0.57502666530E+02  0.25484164860E+02  0.16309913804E+03  0.19083045543E+03  0.76543677559E+02 0.  0.
          5    1    3    3  501    0 -0.80370420417E+02  0.10193576832E+03 -0.68898233426E+02  0.14703524037E+03  0.47000000000E+01 0. -1.
        -11    1    4    4    0    0 -0.40736803472E+02 -0.15547213656E+02  0.22543738056E+02  0.49085875108E+02  0.00000000000E+00 0.  1.
         12    1    4    4    0    0 -0.56219180538E+02 -0.98266210536E+01 -0.62508442970E+02  0.84643157929E+02  0.00000000000E+00 0. -1.
         -5    1    5    5    0  502  0.11982373790E+03 -0.10204609847E+03  0.16762537914E+03  0.22998150384E+03  0.47000000000E+01 0.  1.
         11    1    6    6    0    0 -0.78791667398E+01  0.49249002508E+01 -0.40796054854E+01  0.10147861445E+02  0.00000000000E+00 0. -1.
        -12    1    6    6    0    0  0.65381833270E+02  0.20559264609E+02  0.16717874353E+03  0.18068259399E+03  0.00000000000E+00 0.  1.
</event>
<event>
12    1  0.1035051E+000  0.2826445E+03  0.7818608E-02  0.1094332E+00
         21   -1    0    0  503  502  0.00000000000E+00  0.00000000000E+00  0.10443976470E+04  0.10443976470E+04  0.00000000000E+00 0.  1.
         21   -1    0    0  501  503 -0.00000000000E+00 -0.00000000000E+00 -0.10198019705E+03  0.10198019705E+03  0.00000000000E+00 0.  1.
          6    2    1    2  501    0 -0.16570776147E+03  0.15134721204E+03  0.75901630830E+03  0.80993437229E+03  0.17182226382E+03 0.  0.
         24    2    3    3    0    0 -0.16638270400E+03  0.69326245556E+02  0.59121049550E+03  0.62309547029E+03  0.78922636755E+02 0.  0.
         -6    2    1    2    0  502  0.16570776147E+03 -0.15134721204E+03  0.18340114166E+03  0.33644347178E+03  0.17086014789E+03 0.  0.
        -24    2    5    5    0    0  0.14900182416E+02 -0.31323003619E+02  0.43562481149E+02  0.98271942246E+02  0.80972457522E+02 0.  0.
          5    1    3    3  501    0  0.67494252964E+00  0.82020966486E+02  0.16780581280E+03  0.18683890200E+03  0.47000000000E+01 0. -1.
        -13    1    4    4    0    0 -0.10393346640E+03  0.15805640822E+02  0.23386763657E+03  0.25640993576E+03  0.00000000000E+00 0.  1.
         14    1    4    4    0    0 -0.62449237600E+02  0.53520604734E+02  0.35734285893E+03  0.36668553453E+03  0.00000000000E+00 0. -1.
         -5    1    5    5    0  502  0.15080757905E+03 -0.12002420842E+03  0.13983866052E+03  0.23817152954E+03  0.47000000000E+01 0.  1.
         11    1    6    6    0    0  0.37356862831E+02 -0.36080623748E+02  0.34435505785E+01  0.52050020665E+02  0.00000000000E+00 0. -1.
        -12    1    6    6    0    0 -0.22456680415E+02  0.47576201289E+01  0.40118930571E+02  0.46221921582E+02  0.00000000000E+00 0.  1.
</event>
<event>
12    1  0.1035051E+000  0.2108555E+03  0.7818608E-02  0.1141120E+00
         21   -1    0    0  503  502  0.00000000000E+00  0.00000000000E+00  0.68260816528E+03  0.68260816528E+03  0.00000000000E+00 0.  1.
         21   -1    0    0  501  503 -0.00000000000E+00 -0.00000000000E+00 -0.66653942777E+02  0.66653942777E+02  0.00000000000E+00 0.  1.
          6    2    1    2  501    0 -0.10693504820E+03 -0.55990987031E+02  0.24422047308E+03  0.32189107149E+03  0.17146465312E+03 0.  0.
         24    2    3    3    0    0  0.62461030432E+01 -0.76326933158E+01  0.13119515652E+03  0.15472256443E+03  0.81422546260E+02 0.  0.
         -6    2    1    2    0  502  0.10693504820E+03  0.55990987031E+02  0.37173374943E+03  0.42737103657E+03  0.17288703616E+03 0.  0.
        -24    2    5    5    0    0  0.48104912810E+01  0.51257973601E+02  0.10703511803E+03  0.14357660039E+03  0.80667236246E+02 0.  0.
          5    1    3    3  501    0 -0.11318115125E+03 -0.48358293715E+02  0.11302531655E+03  0.16716850705E+03  0.47000000000E+01 0. -1.
        -13    1    4    4    0    0  0.26729014801E+02 -0.21680778294E+02  0.18009468171E+02  0.38843755270E+02  0.00000000000E+00 0.  1.
         14    1    4    4    0    0 -0.20482911758E+02  0.14048084978E+02  0.11318568835E+03  0.11587880916E+03  0.00000000000E+00 0. -1.
         -5    1    5    5    0  502  0.10212455692E+03  0.47330134302E+01  0.26469863140E+03  0.28379443618E+03  0.47000000000E+01 0.  1.
         13    1    6    6    0    0  0.55328765870E+01  0.72129665140E+02  0.67888481994E+02  0.99207597007E+02  0.00000000000E+00 0. -1.
        -14    1    6    6    0    0 -0.72238530598E+00 -0.20871691539E+02  0.39146636035E+02  0.44369003381E+02  0.00000000000E+00 0.  1.
</event>
<event>
12    1  0.1035051E+000  0.3384903E+03  0.7818608E-02  0.1067460E+00
         21   -1    0    0  503  502  0.00000000000E+00  0.00000000000E+00  0.12831539392E+03  0.12831539392E+03  0.00000000000E+00 0.  1.
         21   -1    0    0  501  503 -0.00000000000E+00 -0.00000000000E+00 -0.94362441945E+03  0.94362441945E+03  0.00000000000E+00 0.  1.
          6    2    1    2  501    0 -0.27906832949E+03  0.84046879966E+02 -0.28295055447E+03  0.44117648964E+03  0.17214141913E+03 0.  0.
         24    2    3    3    0    0 -0.24795971312E+03  0.37614076856E+02 -0.16574044293E+03  0.31123784464E+03  0.80624211051E+02 0.  0.
         -6    2    1    2    0  502  0.27906832949E+03 -0.84046879966E+02 -0.53235847106E+03  0.63076332372E+03  0.17179586226E+03 0.  0.
        -24    2    5    5    0    0  0.26918556139E+03 -0.51292606566E+02 -0.52132192646E+03  0.59450857441E+03  0.81068465453E+02 0.  0.
          5    1    3    3  501    0 -0.31108616371E+02  0.46432803110E+02 -0.11721011154E+03  0.12993864500E+03  0.47000000000E+01 0. -1.
        -13    1    4    4    0    0 -0.86663557961E+02 -0.12481444423E+02 -0.91815022563E+02  0.12687141956E+03  0.00000000000E+00 0.  1.
         14    1    4    4    0    0 -0.16129615516E+03  0.50095521279E+02 -0.73925420369E+02  0.18436642508E+03  0.00000000000E+00 0. -1.
         -5    1    5    5    0  502  0.98827681000E+01 -0.32754273400E+02 -0.11036544603E+02  0.36254749317E+02  0.47000000000E+01 0.  1.
         11    1    6    6    0    0  0.94369279379E+02 -0.57046450061E+02 -0.18328442602E+03  0.21389960070E+03  0.00000000000E+00 0. -1.
        -12    1    6    6    0    0  0.17481628201E+03  0.57538434953E+01 -0.33803750043E+03  0.38060897371E+03  0.00000000000E+00 0.  1.
</event>
<event>
12    1  0.1035051E+000  0.4070269E+03  0.7818608E-02  0.1041522E+00
         21   -1    0    0  501  502  0.00000000000E+00  0.00000000000E+00  0.27484648520E+03  0.27484648520E+03  0.00000000000E+00 0. -1.
         21   -1    0    0  502  503 -0.00000000000E+00 -0.00000000000E+00 -0.71380748128E+03  0.71380748128E+03  0.00000000000E+00 0. -1.
         -6    2    1    2    0  503  0.24089060447E+03  0.27800618583E+03 -0.41630096402E+03  0.58099681455E+03  0.17010315455E+03 0.  0.
        -24    2    3    3    0    0  0.22251771838E+03  0.24844896001E+03 -0.42375912930E+03  0.54509546680E+03  0.79474823260E+02 0.  0.
          6    2    1    2  501    0 -0.24089060447E+03 -0.27800618583E+03 -0.22660032055E+02  0.40765715193E+03  0.17422730494E+03 0.  0.
         24    2    5    5    0    0 -0.14307032243E+03 -0.15855863046E+03  0.54580071433E+02  0.23495900588E+03  0.81343677041E+02 0.  0.
          5    1    5    5  501    0 -0.97820282038E+02 -0.11944755537E+03 -0.77240103488E+02  0.17269814605E+03  0.47000000000E+01 0. -1.
        -13    1    6    6    0    0 -0.13292927459E+03 -0.16747589021E+03  0.45274506090E+02  0.21855925226E+03  0.00000000000E+00 0.  1.
         14    1    6    6    0    0 -0.10141047838E+02  0.89172597493E+01  0.93055653428E+01  0.16399753627E+02  0.00000000000E+00 0. -1.
         -5    1    3    3    0  503  0.18372886093E+02  0.29557225814E+02  0.74581652773E+01  0.35901347754E+02  0.47000000000E+01 0.  1.
         13    1    4    4    0    0  0.18882197858E+02  0.36191396761E+02 -0.98144334300E+02  0.10629517840E+03  0.00000000000E+00 0. -1.
        -14    1    4    4    0    0  0.20363552052E+03  0.21225756325E+03 -0.32561479500E+03  0.43880028840E+03  0.00000000000E+00 0.  1.
</event>
<event>
12    1  0.1035051E+000  0.1761380E+03  0.7818608E-02  0.1172197E+00
         21   -1    0    0  503  502  0.00000000000E+00  0.00000000000E+00  0.11688152391E+04  0.11688152391E+04  0.00000000000E+00 0.  1.
         21   -1    0    0  501  503 -0.00000000000E+00 -0.00000000000E+00 -0.68029655409E+02  0.68029655409E+02  0.00000000000E+00 0.  1.
          6    2    1    2  501    0  0.19949590164E+02  0.36849506037E+02  0.10339635036E+04  0.10484575699E+04  0.16860271912E+03 0.  0.
         24    2    3    3    0    0  0.16569556457E+02  0.45239750958E+02  0.10341557126E+04  0.10382620914E+04  0.78669863034E+02 0.  0.
         -6    2    1    2    0  502 -0.19949590164E+02 -0.36849506037E+02  0.66822080072E+02  0.18838732457E+03  0.17108103762E+03 0.  0.
        -24    2    5    5    0    0  0.81014090664E+01  0.11226031646E+02  0.95712877985E+02  0.12549945543E+03  0.79984384012E+02 0.  0.
          5    1    3    3  501    0  0.33800337075E+01 -0.83902449208E+01 -0.19220896876E+00  0.10195478507E+02  0.47000000000E+01 0. -1.
        -13    1    4    4    0    0  0.30042345569E+02 -0.82774020020E+01  0.56742137592E+03  0.56827640789E+03  0.00000000000E+00 0.  1.
         14    1    4    4    0    0 -0.13472789112E+02  0.53517152960E+02  0.46673433665E+03  0.46998568352E+03  0.00000000000E+00 0. -1.
         -5    1    5    5    0  502 -0.28050999231E+02 -0.48075537682E+02 -0.28890797914E+02  0.62887869143E+02  0.47000000000E+01 0.  1.
         11    1    6    6    0    0 -0.28284131225E+02  0.28702449499E+02  0.54852789134E+02  0.68063581761E+02  0.00000000000E+00 0. -1.
        -12    1    6    6    0    0  0.36385540291E+02 -0.17476417853E+02  0.40860088851E+02  0.57435873669E+02  0.00000000000E+00 0.  1.
</event>
<event>
12    1  0.1035051E+000  0.1728877E+03  0.7818608E-02  0.1175365E+00
         21   -1    0    0  503  502  0.00000000000E+00  0.00000000000E+00  0.33644243721E+03  0.33644243721E+03  0.00000000000E+00 0. -1.
         21   -1    0    0  501  503 -0.00000000000E+00 -0.00000000000E+00 -0.12719183115E+03  0.12719183115E+03  0.00000000000E+00 0. -1.
          6    2    1    2  501    0  0.15874561241E+02  0.14501146686E+01  0.23395287160E+03  0.29090222511E+03  0.17215125302E+03 0.  0.
         24    2    3    3    0    0  0.45950898516E+02  0.39896386042E+02  0.21795403474E+03  0.23931972199E+03  0.77889417660E+02 0.  0.
         -6    2    1    2    0  502 -0.15874561241E+02 -0.14501146686E+01 -0.24702265539E+02  0.17273204325E+03  0.17021178665E+03 0.  0.
        -24    2    5    5    0    0 -0.64350871992E+02  0.27840677116E+02  0.11014054147E+02  0.10560791436E+03  0.78202200472E+02 0.  0.
          5    1    3    3  501    0 -0.30076337275E+02 -0.38446271374E+02  0.15998836864E+02  0.51582503113E+02  0.47000000000E+01 0. -1.
        -13    1    4    4    0    0  0.11552473201E+02  0.53183251838E+02  0.17197032335E+03  0.18037657837E+03  0.00000000000E+00 0.  1.
         14    1    4    4    0    0  0.34398425314E+02 -0.13286865796E+02  0.45983711388E+02  0.58943143620E+02  0.00000000000E+00 0. -1.
         -5    1    5    5    0  502  0.48476310751E+02 -0.29290791785E+02 -0.35716319686E+02  0.67124128891E+02  0.47000000000E+01 0.  1.
         13    1    6    6    0    0  0.12181437910E+02 -0.12460434446E+02  0.76959856295E+01  0.19049358281E+02  0.00000000000E+00 0. -1.
        -14    1    6    6    0    0 -0.76532309901E+02  0.40301111562E+02  0.33180685173E+01  0.86558556080E+02  0.00000000000E+00 0.  1.
</event>
<event>
12    1  0.1035051E+000  0.2062608E+03  0.7818608E-02  0.1144740E+00
         21   -1    0    0  503  502  0.00000000000E+00  0.00000000000E+00  0.24288620558E+03  0.24288620558E+03  0.00000000000E+00 0.  1.
         21   -1    0    0  501  503 -0.00000000000E+00 -0.00000000000E+00 -0.17471486451E+03  0.17471486451E+03  0.00000000000E+00 0.  1.
          6    2    1    2  501    0 -0.94150831529E+02 -0.65005646463E+02  0.25313041588E+02  0.20693460376E+03  0.17056103602E+03 0.  0.
         24    2    3    3    0    0 -0.22804634464E+02  0.15071593343E+02 -0.26305588687E+02  0.87816103254E+02  0.79198988098E+02 0.  0.
         -6    2    1    2    0  502  0.94150831529E+02  0.65005646463E+02  0.42858299486E+02  0.21066646634E+03  0.17161996695E+03 0.  0.
        -24    2    5    5    0    0  0.98830355549E+02  0.42549175954E+02 -0.27466213349E+02  0.13654617142E+03  0.79451825039E+02 0.  0.
          5    1    3    3  501    0 -0.71346197064E+02 -0.80077239806E+02  0.51618630274E+02  0.11911850050E+03  0.47000000000E+01 0. -1.
        -11    1    4    4    0    0  0.56426235464E+01 -0.23961352985E+02 -0.30661713433E+02  0.39320812657E+02  0.00000000000E+00 0.  1.
         12    1    4    4    0    0 -0.28447258011E+02  0.39032946328E+02  0.43561247461E+01  0.48495290598E+02  0.00000000000E+00 0. -1.
         -5    1    5    5    0  502 -0.46795240208E+01  0.22456470509E+02  0.70324512835E+02  0.74120294915E+02  0.47000000000E+01 0.  1.
         13    1    6    6    0    0  0.97737821850E+02  0.90914119290E+01 -0.96720135458E+01  0.98635102458E+02  0.00000000000E+00 0. -1.
        -14    1    6    6    0    0  0.10925336996E+01  0.33457764025E+02 -0.17794199803E+02  0.37911068965E+02  0.00000000000E+00 0.  1.
</event>
<event>
12    1  0.1035051E+000  0.1847748E+03  0.7818608E-02  0.1163301E+00
         21   -1    0    0  503  502  0.00000000000E+00  0.00000000000E+00  0.13583846610E+03  0.13583846610E+03  0.00000000000E+00 0. -1.
         21   -1    0    0  501  503 -0.00000000000E+00 -0.00000000000E+00 -0.43385829768E+03  0.43385829768E+03  0.00000000000E+00 0. -1.
          6    2    1    2  501    0  0.53764708472E+02  0.43444136659E+02 -0.33392261441E+03  0.38163598135E+03  0.17135831746E+03 0.  0.
         24    2    3    3    0    0 -0.62483729473E+01  0.82573368769E+02 -0.19416603418E+03  0.22451609571E+03  0.76482841271E+02 0.  0.
         -6    2    1    2    0  502 -0.53764708472E+02 -0.43444136659E+02  0.35902782835E+02  0.18806078243E+03  0.17117187615E+03 0.  0.
        -24    2    5    5    0    0 -0.56853555008E+02 -0.66847109743E+02 -0.28574615960E+02  0.11923734836E+03  0.75499495147E+02 0.  0.
          5    1    3    3  501    0  0.60013081420E+02 -0.39129232110E+02 -0.13975658023E+03  0.15711988564E+03  0.47000000000E+01 0. -1.
        -13    1    4    4    0    0 -0.40793128435E+02  0.34072693652E+02 -0.89032729073E+02  0.10369115018E+03  0.00000000000E+00 0.  1.
         14    1    4    4    0    0  0.34544755488E+02  0.48500675117E+02 -0.10513330511E+03  0.12082494553E+03  0.00000000000E+00 0. -1.
         -5    1    5    5    0  502  0.30888465361E+01  0.23402973084E+02  0.64477398795E+02  0.68823434072E+02  0.47000000000E+01 0.  1.
         13    1    6    6    0    0 -0.55770112006E+01 -0.70647723315E+00 -0.34862050302E+02  0.35312387561E+02  0.00000000000E+00 0. -1.
        -14    1    6    6    0    0 -0.51276543808E+02 -0.66140632510E+02  0.62874343421E+01  0.83924960794E+02  0.00000000000E+00 0.  1.
</event>
<event>
12    1  0.1035051E+000  0.2418739E+03  0.7818608E-02  0.1118629E+00
         21   -1    0    0  501  502  0.00000000000E+00  0.00000000000E+00  0.51029502379E+03  0.51029502379E+03  0.00000000000E+00 0. -1.
         21   -1    0    0  502  503 -0.00000000000E+00 -0.00000000000E+00 -0.11484967574E+03  0.11484967574E+03  0.00000000000E+00 0. -1.
         -6    2    1    2    0  503 -0.16822138797E+03 -0.23656265125E+01  0.21700094309E+03  0.32494980100E+03  0.17377840001E+03 0.  0.
        -24    2    3    3    0    0 -0.17076935861E+03 -0.11296228788E+02  0.23614485006E+03  0.30315927586E+03  0.82773049383E+02 0.  0.
          6    2    1    2  501    0  0.16822138797E+03  0.23656265125E+01  0.17844440496E+03  0.30019489853E+03  0.17312001584E+03 0.  0.
         24    2    5    5    0    0  0.17930612842E+03 -0.26911742275E+02  0.11560566922E+03  0.22983274604E+03  0.81138713535E+02 0.  0.
          5    1    5    5  501    0 -0.11084740455E+02  0.29277368787E+02  0.62838735733E+02  0.70362152487E+02  0.47000000000E+01 0. -1.
        -13    1    6    6    0    0  0.15801721551E+03 -0.55078950306E+01  0.12108433652E+03  0.19915118342E+03  0.00000000000E+00 0.  1.
         14    1    6    6    0    0  0.21288912911E+02 -0.21403847244E+02 -0.54786672958E+01  0.30681562625E+02  0.00000000000E+00 0. -1.
         -5    1    3    3    0  503  0.25479706450E+01  0.89306022750E+01 -0.19143906978E+02  0.21790525138E+02  0.47000000000E+01 0.  1.
         13    1    4    4    0    0 -0.42976463186E+02  0.29267195533E+02  0.40151524796E+02  0.65693911939E+02  0.00000000000E+00 0. -1.
        -14    1    4    4    0    0 -0.12779289543E+03 -0.40563424320E+02  0.19599332527E+03  0.23746536393E+03  0.00000000000E+00 0.  1.
</event>
<event>
12    1  0.1035051E+000  0.2156202E+03  0.7818608E-02  0.1137321E+00
         21   -1    0    0  503  502  0.00000000000E+00  0.00000000000E+00  0.17277346396E+03  0.17277346396E+03  0.00000000000E+00 0. -1.
         21   -1    0    0  501  503 -0.00000000000E+00 -0.00000000000E+00 -0.30304115733E+03  0.30304115733E+03  0.00000000000E+00 0. -1.
          6    2    1    2  501    0  0.82534878743E+02  0.99572509949E+02 -0.14565505928E+03  0.25964605669E+03  0.17167989840E+03 0.  0.
         24    2    3    3    0    0  0.49566252688E+02 -0.87190189465E+01 -0.10070550694E+03  0.13775865870E+03  0.79391524866E+02 0.  0.
         -6    2    1    2    0  502 -0.82534878743E+02 -0.99572509949E+02  0.15387365915E+02  0.21616856460E+03  0.17252648013E+03 0.  0.
        -24    2    5    5    0    0 -0.14313804976E+02 -0.11799309644E+02  0.54026638513E+02  0.98383451006E+02  0.80101916593E+02 0.  0.
          5    1    3    3  501    0  0.32968626055E+02  0.10829152890E+03 -0.44949552338E+02  0.12188739799E+03  0.47000000000E+01 0. -1.
        -13    1    4    4    0    0  0.17751535728E+01  0.30313296974E+02 -0.46997394709E+02  0.55953572299E+02  0.00000000000E+00 0.  1.
         14    1    4    4    0    0  0.47791099115E+02 -0.39032315921E+02 -0.53708112232E+02  0.81805086396E+02  0.00000000000E+00 0. -1.
         -5    1    5    5    0  502 -0.68221073767E+02 -0.87773200305E+02 -0.38639272597E+02  0.11778511359E+03  0.47000000000E+01 0.  1.
         13    1    6    6    0    0 -0.21024737089E+02  0.30756321774E+02  0.35588426094E+02  0.51522101768E+02  0.00000000000E+00 0. -1.
        -14    1    6    6    0    0  0.67109321128E+01 -0.42555631418E+02  0.18438212419E+02  0.46861349238E+02  0.00000000000E+00 0.  1.
</event>
<event>
12    1  0.1035051E+000  0.1787070E+03  0.7818608E-02  0.1169153E+00
         21   -1    0    0  501  502  0.00000000000E+00  0.00000000000E+00  0.15440680671E+03  0.15440680671E+03  0.00000000000E+00 0.  1.
         21   -1    0    0  502  503 -0.00000000000E+00 -0.00000000000E+00 -0.28652638964E+03  0.28652638964E+03  0.00000000000E+00 0.  1.
         -6    2    1    2    0  503 -0.22462329386E+01 -0.49576380784E+02  0.50580744053E+02  0.18536400740E+03  0.17128496862E+03 0.  0.
        -24    2    3    3    0    0 -0.28108732616E+02 -0.28733404625E+02  0.93805947293E+02  0.13064831733E+03  0.81570323543E+02 0.  0.
          6    2    1    2  501    0  0.22462329386E+01  0.49576380784E+02 -0.18270032698E+03  0.25556918896E+03  0.17167800608E+03 0.  0.
         24    2    5    5    0    0  0.31880058722E+02  0.85033774325E+02 -0.16668897078E+03  0.20643830341E+03  0.81144803993E+02 0.  0.
          5    1    5    5  501    0 -0.29633825784E+02 -0.35457393540E+02 -0.16011356201E+02  0.49130885547E+02  0.47000000000E+01 0. -1.
        -13    1    6    6    0    0  0.48078283389E+02  0.16812066718E+02 -0.81464785895E+02  0.96076418865E+02  0.00000000000E+00 0.  1.
         14    1    6    6    0    0 -0.16198224666E+02  0.68221707606E+02 -0.85224184883E+02  0.11036188454E+03  0.00000000000E+00 0. -1.
         -5    1    3    3    0  503  0.25862499677E+02 -0.20842976159E+02 -0.43225203240E+02  0.54715690070E+02  0.47000000000E+01 0.  1.
         13    1    4    4    0    0  0.20380683052E+02  0.10814474549E+02  0.79356341053E+01  0.24398757962E+02  0.00000000000E+00 0. -1.
        -14    1    4    4    0    0 -0.48489415668E+02 -0.39547879174E+02  0.85870313187E+02  0.10624955937E+03  0.00000000000E+00 0.  1.
</event>
<event>
12    1  0.1035051E+000  0.5757693E+03  0.7818608E-02  0.9957162E-01
         21   -1    0    0  501  502  0.00000000000E+00  0.00000000000E+00  0.28857207027E+04  0.28857207027E+04  0.00000000000E+00 0.  1.
         21   -1    0    0  502  503 -0.00000000000E+00 -0.00000000000E+00 -0.16848695680E+03  0.16848695680E+03  0.00000000000E+00 0. -1.
         -6    2    1    2    0  503 -0.22168927649E+02 -0.54853729062E+03  0.22202509572E+04  0.22936143885E+04  0.17253413982E+03 0.  0.
        -24    2    3    3    0    0  0.16762124615E+02 -0.45742653095E+03  0.19778737292E+04  0.20317258473E+04  0.80033928404E+02 0.  0.
          6    2    1    2  501    0  0.22168927649E+02  0.54853729062E+03  0.49698278868E+03  0.76059327103E+03  0.17356731013E+03 0.  0.
         24    2    5    5    0    0 -0.56320862510E+01  0.21860473633E+03  0.28212861807E+03  0.36586198094E+03  0.80241390945E+02 0.  0.
          5    1    5    5  501    0  0.27801013900E+02  0.32993255428E+03  0.21485417061E+03  0.39473129009E+03  0.47000000000E+01 0. -1.
        -11    1    6    6    0    0  0.30005046971E+02  0.10754375090E+03  0.10176345885E+03  0.15106873521E+03  0.00000000000E+00 0.  1.
         12    1    6    6    0    0 -0.35637133222E+02  0.11106098543E+03  0.18036515922E+03  0.21479324573E+03  0.00000000000E+00 0. -1.
         -5    1    3    3    0  503 -0.38931052264E+02 -0.91110759666E+02  0.24237722801E+03  0.26188854120E+03  0.47000000000E+01 0.  1.
         13    1    4    4    0    0 -0.78236269788E+01 -0.28029704980E+01  0.58797116693E+02  0.59381535128E+02  0.00000000000E+00 0. -1.
        -14    1    4    4    0    0  0.24585751594E+02 -0.45462356045E+03  0.19190766125E+04  0.19723443121E+04  0.00000000000E+00 0.  1.
</event>
<event>
12    1  0.1035051E+000  0.3132614E+03  0.7818608E-02  0.1078922E+00
         21   -1    0    0  503  502  0.00000000000E+00  0.00000000000E+00  0.25642374257E+04  0.25642374257E+04  0.00000000000E+00 0.  1.
         21   -1    0    0  501  503 -0.00000000000E+00 -0.00000000000E+00 -0.48279510445E+02  0.48279510445E+02  0.00000000000E+00 0. -1.
          6    2    1    2  501    0  0.16209195099E+03 -0.20513489336E+03  0.18584453746E+04  0.18846622758E+04  0.17256465009E+03 0.  0.
         24    2    3    3    0    0  0.18821694441E+03 -0.15562851924E+03  0.15453833873E+04  0.15666004984E+04  0.79884001399E+02 0.  0.
         -6    2    1    2    0  502 -0.16209195099E+03  0.20513489336E+03  0.65751254071E+03  0.72785466038E+03  0.17057414928E+03 0.  0.
        -24    2    5    5    0    0 -0.15483771711E+03  0.22593547581E+03  0.63461915534E+03  0.69573791657E+03  0.79298287240E+02 0.  0.
          5    1    3    3  501    0 -0.26124993427E+02 -0.49506374120E+02  0.31306198729E+03  0.31806177740E+03  0.47000000000E+01 0. -1.
        -13    1    4    4    0    0  0.82066469621E+01 -0.44550205380E+02  0.25376593104E+03  0.25777745753E+03  0.00000000000E+00 0.  1.
         14    1    4    4    0    0  0.18001029745E+03 -0.11107831386E+03  0.12916174562E+04  0.13088230408E+04  0.00000000000E+00 0. -1.
         -5    1    5    5    0  502 -0.72542338803E+01 -0.20800582450E+02  0.22893385363E+02  0.32116743808E+02  0.47000000000E+01 0.  1.
         11    1    6    6    0    0 -0.36127244397E+02  0.11793375821E+03  0.24305486263E+03  0.27256048019E+03  0.00000000000E+00 0. -1.
        -12    1    6    6    0    0 -0.11871047271E+03  0.10800171760E+03  0.39156429272E+03  0.42317743639E+03  0.00000000000E+00 0.  1.
</event>
<event>
12    1  0.1035051E+000  0.1827822E+03  0.7818608E-02  0.1167095E+00
         21   -1    0    0  503  502  0.00000000000E+00  0.00000000000E+00  0.49063499046E+02  0.49063499046E+02  0.00000000000E+00 0. -1.
         21   -1    0    0  501  503 -0.00000000000E+00 -0.00000000000E+00 -0.14175049669E+04  0.14175049669E+04  0.00000000000E+00 0. -1.
          6    2    1    2  501    0  0.89947949907E+01 -0.61447383706E+02 -0.15223508747E+03  0.23787572740E+03  0.17190884948E+03 0.  0.
         24    2    3    3    0    0  0.19882627511E+02  0.16949520770E+02 -0.12985734109E+03  0.15548960563E+03  0.81433919787E+02 0.  0.
         -6    2    1    2    0  502 -0.89947949907E+01  0.61447383706E+02 -0.12162063804E+04  0.12286927385E+04  0.16331319223E+03 0.  0.
        -24    2    5    5    0    0  0.12882917060E+02  0.26939045439E+02 -0.36012528543E+03  0.37162425188E+03  0.86733394124E+02 0.  0.
          5    1    3    3  501    0 -0.10887832520E+02 -0.78396904476E+02 -0.22377746379E+02  0.82386121777E+02  0.47000000000E+01 0. -1.
        -11    1    4    4    0    0  0.46410171298E+02  0.27507759877E+02 -0.63972362176E+02  0.83684191911E+02  0.00000000000E+00 0.  1.
         12    1    4    4    0    0 -0.26527543787E+02 -0.10558239107E+02 -0.65884978915E+02  0.71805413717E+02  0.00000000000E+00 0. -1.
         -5    1    5    5    0  502 -0.21877712051E+02  0.34508338267E+02 -0.85608109496E+03  0.85706848667E+03  0.47000000000E+01 0.  1.
         13    1    6    6    0    0  0.22434990698E+02  0.48530604403E+02 -0.32456831569E+03  0.32894245686E+03  0.00000000000E+00 0. -1.
        -14    1    6    6    0    0 -0.95520736379E+01 -0.21591558963E+02 -0.35556969733E+02  0.42681795017E+02  0.00000000000E+00 0.  1.
</event>
<event>
12    1  0.1035051E+000  0.2091281E+03  0.7818608E-02  0.1145457E+00
         21   -1    0    0  501  502  0.00000000000E+00  0.00000000000E+00  0.26854269827E+03  0.26854269827E+03  0.00000000000E+00 0. -1.
         21   -1    0    0  502  503 -0.00000000000E+00 -0.00000000000E+00 -0.15949058951E+03  0.15949058951E+03  0.00000000000E+00 0. -1.
         -6    2    1    2    0  503  0.52173823707E+02  0.74240912541E+02  0.10565120365E+03  0.23430055313E+03  0.18841643078E+03 0.  0.
        -24    2    3    3    0    0  0.16229057226E+01  0.64745830870E+02 -0.13710555440E+02  0.10424336795E+03  0.80523561721E+02 0.  0.
          6    2    1    2  501    0 -0.52173823707E+02 -0.74240912541E+02  0.34009051102E+01  0.19373273466E+03  0.17113440726E+03 0.  0.
         24    2    5    5    0    0 -0.43129369504E+02 -0.11941044617E+03  0.10203891025E+02  0.14693038923E+03  0.73249045866E+02 0.  0.
          5    1    5    5  501    0 -0.90444542027E+01  0.45169533627E+02 -0.68029859149E+01  0.46802345425E+02  0.47000000000E+01 0. -1.
        -11    1    6    6    0    0 -0.30765629054E+02 -0.11097672652E+02 -0.13473599004E+02  0.35372590229E+02  0.00000000000E+00 0.  1.
         12    1    6    6    0    0 -0.12363740450E+02 -0.10831277352E+03  0.23677490029E+02  0.11155779900E+03  0.00000000000E+00 0. -1.
         -5    1    3    3    0  503  0.50550917984E+02  0.94950816716E+01  0.11936175909E+03  0.13005718518E+03  0.47000000000E+01 0.  1.
         11    1    4    4    0    0 -0.12604554577E+02  0.19843666382E+02 -0.42836616738E+02  0.48863295275E+02  0.00000000000E+00 0. -1.
        -12    1    4    4    0    0  0.14227460300E+02  0.44902164488E+02  0.29126061298E+02  0.55380072671E+02  0.00000000000E+00 0.  1.
</event>
<event>
12    1  0.1035051E+000  0.2382030E+03  0.7818608E-02  0.1123009E+00
         21   -1    0    0  503  502  0.00000000000E+00  0.00000000000E+00  0.18765954349E+04  0.18765954349E+04  0.00000000000E+00 0.  1.
         21   -1    0    0  501  503 -0.00000000000E+00 -0.00000000000E+00 -0.45512526966E+02  0.45512526966E+02  0.00000000000E+00 0.  1.
          6    2    1    2  501    0 -0.13472926394E+03 -0.81888225167E+02  0.15127568932E+04  0.15313961190E+04  0.17855811145E+03 0.  0.
         24    2    3    3    0    0 -0.60345910794E+02  0.76676708709E+01  0.36313614863E+03  0.37588623663E+03  0.75645081276E+02 0.  0.
         -6    2    1    2    0  502  0.13472926394E+03  0.81888225167E+02  0.31832601467E+03  0.39071184287E+03  0.16268569870E+03 0.  0.
        -24    2    5    5    0    0  0.15341707874E+03  0.41119668221E+02  0.27687355616E+03  0.32946067167E+03  0.81594980912E+02 0.  0.
          5    1    3    3  501    0 -0.74383353145E+02 -0.89555896038E+02  0.11496207446E+04  0.11555098823E+04  0.47000000000E+01 0. -1.
        -11    1    4    4    0    0  0.27844805262E+01  0.14490991165E+01 -0.29721168140E+01  0.43228114008E+01  0.00000000000E+00 0.  1.
         12    1    4    4    0    0 -0.63130391321E+02  0.62185717544E+01  0.36610826545E+03  0.37156342523E+03  0.00000000000E+00 0. -1.
         -5    1    5    5    0  502 -0.18687814801E+02  0.40768556946E+02  0.41452458506E+02  0.61251171202E+02  0.47000000000E+01 0.  1.
         11    1    6    6    0    0  0.12395904709E+02 -0.25471406362E+01 -0.30294785616E+01  0.13012460157E+02  0.00000000000E+00 0. -1.
        -12    1    6    6    0    0  0.14102117403E+03  0.43666808858E+02  0.27990303472E+03  0.31644821151E+03  0.00000000000E+00 0.  1.
</event>
<event>
12    1  0.1035051E+000  0.2899796E+03  0.7818608E-02  0.1090494E+00
         21   -1    0    0  503  502  0.00000000000E+00  0.00000000000E+00  0.14404780614E+03  0.14404780614E+03  0.00000000000E+00 0.  1.
         21   -1    0    0  501  503 -0.00000000000E+00 -0.00000000000E+00 -0.69021216552E+03  0.69021216552E+03  0.00000000000E+00 0.  1.
          6    2    1    2  501    0  0.21146213971E+03 -0.98662120568E+02 -0.10726911762E+03  0.30822080150E+03  0.17041991760E+03 0.  0.
         24    2    3    3    0    0  0.18345961635E+03 -0.11723375668E+03 -0.13164828165E+03  0.26644185200E+03  0.79112615313E+02 0.  0.
         -6    2    1    2    0  502 -0.21146213971E+03  0.98662120568E+02 -0.43889524176E+03  0.52603917016E+03  0.17215610574E+03 0.  0.
        -24    2    5    5    0    0 -0.47080104236E+02  0.81337483551E+02 -0.14934119720E+03  0.19259467501E+03  0.77185446900E+02 0.  0.
          5    1    3    3  501    0  0.28002523357E+02  0.18571636108E+02  0.24379164029E+02  0.41778949494E+02  0.47000000000E+01 0. -1.
        -11    1    4    4    0    0  0.35932960276E+02  0.80439566535E+00 -0.47621612240E+02  0.59662740793E+02  0.00000000000E+00 0.  1.
         12    1    4    4    0    0  0.14752665607E+03 -0.11803815234E+03 -0.84026669409E+02  0.20677911121E+03  0.00000000000E+00 0. -1.
         -5    1    5    5    0  502 -0.16438203547E+03  0.17324637017E+02 -0.28955404455E+03  0.33344449516E+03  0.47000000000E+01 0.  1.
         11    1    6    6    0    0 -0.60804607964E+02  0.64303056659E+02 -0.14562256845E+03  0.17040544559E+03  0.00000000000E+00 0. -1.
        -12    1    6    6    0    0  0.13724503728E+02  0.17034426892E+02 -0.37186287515E+01  0.22189229412E+02  0.00000000000E+00 0.  1.
</event>
<event>
12    1  0.1035051E+000  0.3165803E+03  0.7818608E-02  0.1077248E+00
         21   -1    0    0  503  502  0.00000000000E+00  0.00000000000E+00  0.61088060814E+03  0.61088060814E+03  0.00000000000E+00 0.  1.
         21   -1    0    0  501  503 -0.00000000000E+00 -0.00000000000E+00 -0.30396870449E+03  0.30396870449E+03  0.00000000000E+00 0.  1.
          6    2    1    2  501    0  0.12079431939E+03  0.23668525751E+03  0.46383913138E+03  0.56150915531E+03  0.17185637312E+03 0.  0.
         24    2    3    3    0    0  0.12132780803E+02  0.10586225415E+03  0.10818878898E+03  0.16726146132E+03  0.70125324643E+02 0.  0.
         -6    2    1    2    0  502 -0.12079431939E+03 -0.23668525751E+03 -0.15692722773E+03  0.35334015732E+03  0.17208118216E+03 0.  0.
        -24    2    5    5    0    0 -0.20496512525E+02 -0.35335496074E+02 -0.24792094164E+02  0.92412657782E+02  0.79099602255E+02 0.  0.
          5    1    3    3  501    0  0.10866153859E+03  0.13082300336E+03  0.35565034239E+03  0.39424769399E+03  0.47000000000E+01 0. -1.
        -11    1    4    4    0    0  0.24668629192E+02  0.31719453630E+02  0.63680647248E+01  0.40684361285E+02  0.00000000000E+00 0.  1.
         12    1    4    4    0    0 -0.12535848390E+02  0.74142800518E+02  0.10182072426E+03  0.12657710003E+03  0.00000000000E+00 0. -1.
         -5    1    5    5    0  502 -0.10029780686E+03 -0.20134976144E+03 -0.13213513357E+03  0.26092749954E+03  0.47000000000E+01 0.  1.
         11    1    6    6    0    0  0.25070842206E+02 -0.27852692307E+02 -0.26991098386E+02  0.46182669799E+02  0.00000000000E+00 0. -1.
        -12    1    6    6    0    0 -0.45567354731E+02 -0.74828037668E+01  0.21990042219E+01  0.46229987983E+02  0.00000000000E+00 0.  1.
</event>
<event>
12    1  0.1035051E+000  0.2826427E+03  0.7818608E-02  0.1094393E+00
         21   -1    0    0  503  502  0.00000000000E+00  0.00000000000E+00  0.43331394162E+02  0.43331394162E+02  0.00000000000E+00 0. -1.
         21   -1    0    0  501  503 -0.00000000000E+00 -0.00000000000E+00 -0.27454138541E+04  0.27454138541E+04  0.00000000000E+00 0. -1.
          6    2    1    2  501    0  0.29017615433E+02  0.22214889805E+03 -0.21547970282E+04  0.21732549629E+04  0.17232163611E+03 0.  0.
         24    2    3    3    0    0  0.74123724464E+02  0.13820476732E+03 -0.11203604878E+04  0.11344276316E+04  0.84401093234E+02 0.  0.
         -6    2    1    2    0  502 -0.29017615433E+02 -0.22214889805E+03 -0.54728543172E+03  0.61549028531E+03  0.17063057353E+03 0.  0.
        -24    2    5    5    0    0  0.44211602411E+02 -0.14925911136E+03 -0.38309499551E+03  0.42143867183E+03  0.81337755181E+02 0.  0.
          5    1    3    3  501    0 -0.45106109031E+02  0.83944130735E+02 -0.10344365404E+04  0.10388273314E+04  0.47000000000E+01 0. -1.
        -11    1    4    4    0    0  0.66236795675E+01  0.87138708673E+02 -0.71529522360E+03  0.72061382486E+03  0.00000000000E+00 0.  1.
         12    1    4    4    0    0  0.67500044896E+02  0.51066058647E+02 -0.40506526416E+03  0.41381380673E+03  0.00000000000E+00 0. -1.
         -5    1    5    5    0  502 -0.73229217844E+02 -0.72889786699E+02 -0.16419043621E+03  0.19405161348E+03  0.47000000000E+01 0.  1.
         11    1    6    6    0    0  0.73358343610E+01 -0.13636523287E+03 -0.29981280484E+03  0.32944955478E+03  0.00000000000E+00 0. -1.
        -12    1    6    6    0    0  0.36875768050E+02 -0.12893878481E+02 -0.83282190671E+02  0.91989117044E+02  0.00000000000E+00 0.  1.
</event>
<event>
12    1  0.1035051E+000  0.1990124E+03  0.7818608E-02  0.1150924E+00
         21   -1    0    0  503  502  0.00000000000E+00  0.00000000000E+00  0.44283876783E+03  0.44283876783E+03  0.00000000000E+00 0.  1.
         21   -1    0    0  501  503 -0.00000000000E+00 -0.00000000000E+00 -0.93533645943E+02  0.93533645943E+02  0.00000000000E+00 0.  1.
          6    2    1    2  501    0 -0.79259762248E+02  0.55698740601E+02  0.11438855094E+03  0.22954452769E+03  0.17384329147E+03 0.  0.
         24    2    3    3    0    0 -0.44696836521E+02 -0.35464659054E+02  0.54465275733E+02  0.11500959772E+03  0.83697025459E+02 0.  0.
         -6    2    1    2    0  502  0.79259762248E+02 -0.55698740601E+02  0.23491657094E+03  0.30682788608E+03  0.17196830160E+03 0.  0.
        -24    2    5    5    0    0  0.10331864875E+03 -0.84651893363E+02  0.16784169086E+03  0.22976787951E+03  0.82351436130E+02 0.  0.
          5    1    3    3  501    0 -0.34562925727E+02  0.91163399655E+02  0.59923275208E+02  0.11453492997E+03  0.47000000000E+01 0. -1.
        -11    1    4    4    0    0  0.21810849076E+02  0.51390049157E+01  0.19072334941E+02  0.29425778988E+02  0.00000000000E+00 0.  1.
         12    1    4    4    0    0 -0.66507685597E+02 -0.40603663970E+02  0.35392940793E+02  0.85583818734E+02  0.00000000000E+00 0. -1.
         -5    1    5    5    0  502 -0.24058886504E+02  0.28953152762E+02  0.67074880084E+02  0.77060006572E+02  0.47000000000E+01 0.  1.
         13    1    6    6    0    0  0.92720834106E+02 -0.77281852693E+02  0.89235091745E+02  0.15010842559E+03  0.00000000000E+00 0. -1.
        -14    1    6    6    0    0  0.10597814646E+02 -0.73700406698E+01  0.78606599114E+02  0.79659453921E+02  0.00000000000E+00 0.  1.
</event>
<event>
12    1  0.1035051E+000  0.2586006E+03  0.7818608E-02  0.1108148E+00
         21   -1    0    0  501  502  0.00000000000E+00  0.00000000000E+00  0.23102818823E+02  0.23102818823E+02  0.00000000000E+00 0. -1.
         21   -1    0    0  502  503 -0.00000000000E+00 -0.00000000000E+00 -0.28835405424E+04  0.28835405424E+04  0.00000000000E+00 0. -1.
         -6    2    1    2    0  503 -0.12022778057E+03 -0.15147002396E+03 -0.14512145572E+04  0.14738892956E+04  0.17008256024E+03 0.  0.
        -24    2    3    3    0    0 -0.10772825343E+03 -0.50785360615E+02 -0.10226807715E+04  0.10334838743E+04  0.89601499144E+02 0.  0.
          6    2    1    2  501    0  0.12022778057E+03  0.15147002396E+03 -0.14092231664E+04  0.14327540656E+04  0.17168690253E+03 0.  0.
         24    2    5    5    0    0  0.14749793997E+03  0.12214921143E+03 -0.12935474197E+04  0.13102536982E+04  0.82606020071E+02 0.  0.
          5    1    5    5  501    0 -0.27270159403E+02  0.29320812529E+02 -0.11567574668E+03  0.12250036740E+03  0.47000000000E+01 0. -1.
        -11    1    6    6    0    0  0.81653928013E+02  0.11679084215E+03 -0.88461498514E+03  0.89601960732E+03  0.00000000000E+00 0.  1.
         12    1    6    6    0    0  0.65844011961E+02  0.53583692843E+01 -0.40893243454E+03  0.41423409089E+03  0.00000000000E+00 0. -1.
         -5    1    3    3    0  503 -0.12499527143E+02 -0.10068466335E+03 -0.42853378576E+03  0.44040542134E+03  0.47000000000E+01 0.  1.
         13    1    4    4    0    0 -0.57665851519E+02 -0.25339336059E+02 -0.84018919601E+03  0.84254692302E+03  0.00000000000E+00 0. -1.
        -14    1    4    4    0    0 -0.50062401910E+02 -0.25446024557E+02 -0.18249157545E+03  0.19093695127E+03  0.00000000000E+00 0.  1.
</event>
<event>
12    1  0.1035051E+000  0.1808346E+03  0.7818608E-02  0.1167072E+00
         21   -1    0    0  501  502  0.00000000000E+00  0.00000000000E+00  0.11910676847E+04  0.11910676847E+04  0.00000000000E+00 0.  1.
         21   -1    0    0  502  503 -0.00000000000E+00 -0.00000000000E+00 -0.32815264062E+02  0.32815264062E+02  0.00000000000E+00 0.  1.
         -6    2    1    2    0  503 -0.14367515223E+02 -0.52991812860E+02  0.33114201195E+03  0.37730117833E+03  0.17229796681E+03 0.  0.
        -24    2    3    3    0    0 -0.14938320857E+02 -0.15361113268E+02  0.56684531033E+02  0.10023549261E+03  0.79842975207E+02 0.  0.
          6    2    1    2  501    0  0.14367515223E+02  0.52991812860E+02  0.82711040866E+03  0.84658177041E+03  0.17197240519E+03 0.  0.
         24    2    5    5    0    0 -0.22456136350E+02 -0.11497571932E+02  0.63632106923E+03  0.64179523739E+03  0.79750557145E+02 0.  0.
          5    1    5    5  501    0  0.36823651573E+02  0.64489384793E+02  0.19078933943E+03  0.20478653302E+03  0.47000000000E+01 0. -1.
        -11    1    6    6    0    0 -0.45193412988E+02 -0.59490444063E+01  0.56270469308E+03  0.56454796725E+03  0.00000000000E+00 0.  1.
         12    1    6    6    0    0  0.22737276638E+02 -0.55485275260E+01  0.73616376148E+02  0.77247270138E+02  0.00000000000E+00 0. -1.
         -5    1    3    3    0  503  0.57080563353E+00 -0.37630699592E+02  0.27445748092E+03  0.27706568572E+03  0.47000000000E+01 0.  1.
         13    1    4    4    0    0 -0.14534795815E+02  0.12853162196E+02  0.67335398437E+02  0.70075102215E+02  0.00000000000E+00 0. -1.
        -14    1    4    4    0    0 -0.40352504219E+00 -0.28214275464E+02 -0.10650867404E+02  0.30160390397E+02  0.00000000000E+00 0.  1.
</event>
<event>
12    1  0.1035051E+000  0.4003392E+03  0.7818608E-02  0.1043685E+00
         21   -1    0    0  501  502  0.00000000000E+00  0.00000000000E+00  0.11566004110E+04  0.11566004110E+04  0.00000000000E+00 0. -1.
         21   -1    0    0  502  503 -0.00000000000E+00 -0.00000000000E+00 -0.25647137248E+03  0.25647137248E+03  0.00000000000E+00 0. -1.
         -6    2    1    2    0  503 -0.11626277229E+03 -0.34217174351E+03  0.92920859619E+03  0.10116778823E+04  0.17165368656E+03 0.  0.
        -24    2    3    3    0    0 -0.10340050120E+03 -0.30462759919E+03  0.90901837795E+03  0.96690360733E+03  0.71404037539E+02 0.  0.
          6    2    1    2  501    0  0.11626277229E+03  0.34217174351E+03 -0.29079557712E+02  0.40139390110E+03  0.17225826217E+03 0.  0.
         24    2    5    5    0    0  0.10914995194E+03  0.30199335017E+03  0.26908631042E+02  0.33195570711E+03  0.79729677686E+02 0.  0.
          5    1    5    5  501    0  0.71128203517E+01  0.40178393345E+02 -0.55988188754E+02  0.69438193994E+02  0.47000000000E+01 0. -1.
        -13    1    6    6    0    0 -0.12044725809E+02  0.34197669730E+02 -0.35914541668E+01  0.36434250065E+02  0.00000000000E+00 0.  1.
         14    1    6    6    0    0  0.12119467775E+03  0.26779568044E+03  0.30500085209E+02  0.29552145704E+03  0.00000000000E+00 0. -1.
         -5    1    3    3    0  503 -0.12862271092E+02 -0.37544144319E+02  0.20190218238E+02  0.44774275011E+02  0.47000000000E+01 0.  1.
         11    1    4    4    0    0 -0.20515357113E+02 -0.10160945100E+03  0.38824124644E+03  0.40184154321E+03  0.00000000000E+00 0. -1.
        -12    1    4    4    0    0 -0.82885144085E+02 -0.20301814819E+03  0.52077713151E+03  0.56506206412E+03  0.00000000000E+00 0.  1.
</event>
<event>
12    1  0.1035051E+000  0.2453627E+03  0.7818608E-02  0.1116324E+00
         21   -1    0    0  501  502  0.00000000000E+00  0.00000000000E+00  0.13411019143E+03  0.13411019143E+03  0.00000000000E+00 0. -1.
         21   -1    0    0  502  503 -0.00000000000E+00 -0.00000000000E+00 -0.11220616587E+04  0.11220616587E+04  0.00000000000E+00 0. -1.
         -6    2    1    2    0  503 -0.12022307604E+03 -0.11601019884E+03 -0.74081546835E+01  0.24547446847E+03  0.17969663231E+03 0.  0.
        -24    2    3    3    0    0 -0.61790189512E+02 -0.18334852939E+02 -0.57806473723E+02  0.12090739421E+03  0.84396772564E+02 0.  0.
          6    2    1    2  501    0  0.12022307604E+03  0.11601019884E+03 -0.98054331262E+03  0.10106973817E+04  0.17925416364E+03 0.  0.
         24    2    5    5    0    0  0.47658610134E+02  0.10622214025E+03 -0.37541441631E+03  0.40113649142E+03  0.80124993424E+02 0.  0.
          5    1    5    5  501    0  0.72564465906E+02  0.97880585908E+01 -0.60512889630E+03  0.60956089027E+03  0.47000000000E+01 0. -1.
        -13    1    6    6    0    0  0.24895178311E+02  0.11047857952E+03 -0.26275303514E+03  0.28611963217E+03  0.00000000000E+00 0.  1.
         14    1    6    6    0    0  0.22763431823E+02 -0.42564392728E+01 -0.11266138117E+03  0.11501685925E+03  0.00000000000E+00 0. -1.
         -5    1    3    3    0  503 -0.58432886528E+02 -0.97675345904E+02  0.50398319039E+02  0.12456707425E+03  0.47000000000E+01 0.  1.
         13    1    4    4    0    0 -0.27942362275E+02  0.23685273214E+02  0.62442880322E+01  0.37158564420E+02  0.00000000000E+00 0. -1.
        -14    1    4    4    0    0 -0.33847827237E+02 -0.42020126152E+02 -0.64050761755E+02  0.83748829794E+02  0.00000000000E+00 0.  1.
</event>
<event>
12    1  0.1035051E+000  0.1945659E+03  0.7818608E-02  0.1154887E+00
         21   -1    0    0  503  502  0.00000000000E+00  0.00000000000E+00  0.78349014027E+02  0.78349014027E+02  0.00000000000E+00 0. -1.
         21   -1    0    0  501  503 -0.00000000000E+00 -0.00000000000E+00 -0.75138690372E+03  0.75138690372E+03  0.00000000000E+00 0. -1.
          6    2    1    2  501    0  0.60170027227E+02 -0.62149136577E+02 -0.84956962962E+02  0.21030468210E+03  0.17183546317E+03 0.  0.
         24    2    3    3    0    0  0.93332558183E+02  0.25752673150E+01 -0.68545795785E+02  0.13560248450E+03  0.70511766838E+02 0.  0.
         -6    2    1    2    0  502 -0.60170027227E+02  0.62149136577E+02 -0.58808092674E+03  0.61943123565E+03  0.17427831753E+03 0.  0.
        -24    2    5    5    0    0  0.34683582404E+02  0.19412222031E+02 -0.23048209453E+03  0.24697631769E+03  0.79344315143E+02 0.  0.
          5    1    3    3  501    0 -0.33162530956E+02 -0.64724403892E+02 -0.16411167176E+02  0.74702197603E+02  0.47000000000E+01 0. -1.
        -11    1    4    4    0    0  0.19230418654E+02  0.96994020999E+01  0.13023624800E+02  0.25169469713E+02  0.00000000000E+00 0.  1.
         12    1    4    4    0    0  0.74102139529E+02 -0.71241347849E+01 -0.81569420585E+02  0.11043301478E+03  0.00000000000E+00 0. -1.
         -5    1    5    5    0  502 -0.94853609631E+02  0.42736914545E+02 -0.35759883220E+03  0.37245491797E+03  0.47000000000E+01 0.  1.
         11    1    6    6    0    0 -0.27531818300E+01 -0.18746443618E+02 -0.12895826284E+02  0.22919674824E+02  0.00000000000E+00 0. -1.
        -12    1    6    6    0    0  0.37436764234E+02  0.38158665649E+02 -0.21758626825E+03  0.22405664286E+03  0.00000000000E+00 0.  1.
</event>
<event>
12    1  0.1035051E+000  0.3825665E+03  0.7818608E-02  0.1050010E+00
         21   -1    0    0  503  502  0.00000000000E+00  0.00000000000E+00  0.94288101570E+03  0.94288101570E+03  0.00000000000E+00 0. -1.
         21   -1    0    0  501  503 -0.00000000000E+00 -0.00000000000E+00 -0.17213574215E+03  0.17213574215E+03  0.00000000000E+00 0. -1.
          6    2    1    2  501    0 -0.31000553077E+03 -0.14313302325E+03  0.21003324650E+03  0.43622729077E+03  0.17201683965E+03 0.  0.
         24    2    3    3    0    0 -0.29873362556E+03 -0.10118711329E+03  0.21831207978E+03  0.39176220008E+03  0.79604310798E+02 0.  0.
         -6    2    1    2    0  502  0.31000553077E+03  0.14313302325E+03  0.56071202705E+03  0.67878946708E+03  0.17253020570E+03 0.  0.
        -24    2    5    5    0    0  0.98900476893E+02  0.39280759625E+02  0.12545598299E+03  0.18399602500E+03  0.82407834217E+02 0.  0.
          5    1    3    3  501    0 -0.11271905215E+02 -0.41945909960E+02 -0.82788332856E+01  0.44465090691E+02  0.47000000000E+01 0. -1.
        -13    1    4    4    0    0 -0.13700080345E+03 -0.50029216877E+01  0.89333891782E+02  0.16363005100E+03  0.00000000000E+00 0.  1.
         14    1    4    4    0    0 -0.16173282211E+03 -0.96184191606E+02  0.12897818800E+03  0.22813214908E+03  0.00000000000E+00 0. -1.
         -5    1    5    5    0  502  0.21110505388E+03  0.10385226363E+03  0.43525604406E+03  0.49479344208E+03  0.47000000000E+01 0.  1.
         13    1    6    6    0    0  0.24440229699E+02  0.44735879825E+02  0.84909513546E+02  0.99036605667E+02  0.00000000000E+00 0. -1.
        -14    1    6    6    0    0  0.74460247193E+02 -0.54551202004E+01  0.40546469445E+02  0.84959419331E+02  0.00000000000E+00 0.  1.
</event>
<event>
12    1  0.1035051E+000  0.1895046E+03  0.7818608E-02  0.1159181E+00
         21   -1    0    0  503  502  0.00000000000E+00  0.00000000000E+00  0.52953304870E+03  0.52953304870E+03  0.00000000000E+00 0. -1.
         21   -1    0    0  501  503 -0.00000000000E+00 -0.00000000000E+00 -0.72245981612E+02  0.72245981612E+02  0.00000000000E+00 0. -1.
          6    2    1    2  501    0  0.72934226612E+02  0.27434847467E+02  0.30597386749E+03  0.35927608290E+03  0.17142702207E+03 0.  0.
         24    2    3    3    0    0  0.70728440251E+01  0.15165680495E+02  0.27361770893E+03  0.28472901608E+03  0.76967129187E+02 0.  0.
         -6    2    1    2    0  502 -0.72934226612E+02 -0.27434847467E+02  0.15131319960E+03  0.24250294741E+03  0.17274235978E+03 0.  0.
        -24    2    5    5    0    0 -0.29994898147E+02 -0.33821461056E+02  0.27525963056E+01  0.87658129564E+02  0.75051887048E+02 0.  0.
          5    1    3    3  501    0  0.65861382587E+02  0.12269166971E+02  0.32356158562E+02  0.74547066819E+02  0.47000000000E+01 0. -1.
        -11    1    4    4    0    0  0.27348541936E+02 -0.83188855366E-01  0.33368537274E+02  0.43144048792E+02  0.00000000000E+00 0.  1.
         12    1    4    4    0    0 -0.20275697911E+02  0.15248869351E+02  0.24024917165E+03  0.24158496729E+03  0.00000000000E+00 0. -1.
         -5    1    5    5    0  502 -0.42939328464E+02  0.63866135887E+01  0.14856060329E+03  0.15484481784E+03  0.47000000000E+01 0.  1.
         11    1    6    6    0    0 -0.43108379120E+01  0.12736167620E+02 -0.24471183681E+02  0.27921893201E+02  0.00000000000E+00 0. -1.
        -12    1    6    6    0    0 -0.25684060235E+02 -0.46557628676E+02  0.27223779987E+02  0.59736236364E+02  0.00000000000E+00 0.  1.
</event>
<event>
12    1  0.1035051E+000  0.1795926E+03  0.7818608E-02  0.1168299E+00
         21   -1    0    0  501  502  0.00000000000E+00  0.00000000000E+00  0.64346242126E+03  0.64346242126E+03  0.00000000000E+00 0. -1.
         21   -1    0    0  502  503 -0.00000000000E+00 -0.00000000000E+00 -0.54192424772E+02  0.54192424772E+02  0.00000000000E+00 0. -1.
         -6    2    1    2    0  503  0.43838817674E+00  0.48847512256E+02  0.19739898414E+03  0.26659060224E+03  0.17238885876E+03 0.  0.
        -24    2    3    3    0    0 -0.34190773512E+02  0.88469112493E+02  0.11517521795E+03  0.16885684260E+03  0.79066488519E+02 0.  0.
          6    2    1    2  501    0 -0.43838817674E+00 -0.48847512256E+02  0.39187101234E+03  0.43106424379E+03  0.17282135378E+03 0.  0.
         24    2    5    5    0    0  0.16614065537E+02 -0.30192643804E+02  0.39540690740E+03  0.40511462244E+03  0.81139460061E+02 0.  0.
          5    1    5    5  501    0 -0.17052453714E+02 -0.18654868452E+02 -0.35358950569E+01  0.25949621355E+02  0.47000000000E+01 0. -1.
        -13    1    6    6    0    0 -0.22148936338E+02 -0.54088303712E+01  0.34924059912E+02  0.41707562715E+02  0.00000000000E+00 0.  1.
         14    1    6    6    0    0  0.38763001875E+02 -0.24783813433E+02  0.36048284749E+03  0.36340705972E+03  0.00000000000E+00 0. -1.
         -5    1    3    3    0  503  0.34629161688E+02 -0.39621600237E+02  0.82223766197E+02  0.97733759633E+02  0.47000000000E+01 0.  1.
         13    1    4    4    0    0 -0.13903901291E+02 -0.13440499802E+02  0.21994136287E+02  0.29286644346E+02  0.00000000000E+00 0. -1.
        -14    1    4    4    0    0 -0.20286872221E+02  0.10190961230E+03  0.93181081659E+02  0.13957019826E+03  0.00000000000E+00 0.  1.
</event>
<event>
12    1  0.1035051E+000  0.1806458E+03  0.7818608E-02  0.1168124E+00
         21   -1    0    0  501  502  0.00000000000E+00  0.00000000000E+00  0.33177351197E+04  0.33177351197E+04  0.00000000000E+00 0. -1.
         21   -1    0    0  502  503 -0.00000000000E+00 -0.00000000000E+00 -0.13794044088E+02  0.13794044088E+02  0.00000000000E+00 0. -1.
         -6    2    1    2    0  503 -0.29477629308E+02  0.27135186425E+02  0.25550971090E+04  0.25612044307E+04  0.17216750753E+03 0.  0.
        -24    2    3    3    0    0 -0.17892732363E+02 -0.21224246112E+02  0.63284657127E+03  0.63830504066E+03  0.78536129737E+02 0.  0.
          6    2    1    2  501    0  0.29477629308E+02 -0.27135186425E+02  0.74884396662E+03  0.77032473306E+03  0.17614669751E+03 0.  0.
         24    2    5    5    0    0 -0.21434411970E+00 -0.20383606112E+02  0.72911153464E+03  0.73373708494E+03  0.79692801005E+02 0.  0.
          5    1    5    5  501    0  0.29691973427E+02 -0.67515803133E+01  0.19732431979E+02  0.36587648114E+02  0.47000000000E+01 0. -1.
        -11    1    6    6    0    0  0.11828420360E+02 -0.11304414895E+02  0.27756714720E+02  0.32220126262E+02  0.00000000000E+00 0.  1.
         12    1    6    6    0    0 -0.12042764479E+02 -0.90791912172E+01  0.70135481992E+03  0.70151695868E+03  0.00000000000E+00 0. -1.
         -5    1    3    3    0  503 -0.11584896944E+02  0.48359432537E+02  0.19222505377E+04  0.19228993901E+04  0.47000000000E+01 0.  1.
         13    1    4    4    0    0 -0.10850431615E+01  0.12167761245E+02  0.50391853449E+03  0.50406658403E+03  0.00000000000E+00 0. -1.
        -14    1    4    4    0    0 -0.16807689202E+02 -0.33392007356E+02  0.12892803677E+03  0.13423845663E+03  0.00000000000E+00 0.  1.
</event>
<event>
12    1  0.1035051E+000  0.1743443E+03  0.7818608E-02  0.1173455E+00
         21   -1    0    0  503  502  0.00000000000E+00  0.00000000000E+00  0.13921127952E+04  0.13921127952E+04  0.00000000000E+00 0.  1.
         21   -1    0    0  501  503 -0.00000000000E+00 -0.00000000000E+00 -0.23625116650E+02  0.23625116650E+02  0.00000000000E+00 0.  1.
          6    2    1    2  501    0 -0.23330649513E+02 -0.99116718722E+01  0.48811984528E+03  0.51832123612E+03  0.17249162301E+03 0.  0.
         24    2    3    3    0    0  0.24860446421E+02  0.21520662530E+02  0.13219908465E+03  0.15774939693E+03  0.79543029459E+02 0.  0.
         -6    2    1    2    0  502  0.23330649513E+02  0.99116718722E+01  0.88036783326E+03  0.89741667572E+03  0.17223997091E+03 0.  0.
        -24    2    5    5    0    0 -0.26081839581E+01 -0.54836518408E+02  0.63302464660E+03  0.64038381165E+03  0.79733159003E+02 0.  0.
          5    1    3    3  501    0 -0.48191095934E+02 -0.31432334402E+02  0.35592076063E+03  0.36057183919E+03  0.47000000000E+01 0. -1.
        -13    1    4    4    0    0 -0.15010026561E+02  0.30419510753E+02  0.22537194152E+02  0.40725577370E+02  0.00000000000E+00 0.  1.
         14    1    4    4    0    0  0.39870472982E+02 -0.88988482229E+01  0.10966189050E+03  0.11702381956E+03  0.00000000000E+00 0. -1.
         -5    1    5    5    0  502  0.25938833471E+02  0.64748190280E+02  0.24734318666E+03  0.25703286407E+03  0.47000000000E+01 0.  1.
         13    1    6    6    0    0  0.76351206375E+01 -0.47846724490E+02  0.15950188478E+03  0.16669869633E+03  0.00000000000E+00 0. -1.
        -14    1    6    6    0    0 -0.10243304596E+02 -0.69897939179E+01  0.47352276183E+03  0.47368511532E+03  0.00000000000E+00 0.  1.
</event>
<event>
12    1  0.1035051E+000  0.2076346E+03  0.7818608E-02  0.1143601E+00
         21   -1    0    0  503  502  0.00000000000E+00  0.00000000000E+00  0.16634132575E+03  0.16634132575E+03  0.00000000000E+00 0.  1.
         21   -1    0    0  501  503 -0.00000000000E+00 -0.00000000000E+00 -0.42248548798E+03  0.42248548798E+03  0.00000000000E+00 0.  1.
          6    2    1    2  501    0  0.11240173140E+03  0.29337549475E+02 -0.31176586968E+03  0.37457985957E+03  0.17209669567E+03 0.  0.
         24    2    3    3    0    0  0.20976408018E+01  0.37335320007E+02 -0.83603050834E+02  0.12098309570E+03  0.79051332185E+02 0.  0.
         -6    2    1    2    0  502 -0.11240173140E+03 -0.29337549475E+02  0.55621707450E+02  0.21424695416E+03  0.17121081156E+03 0.  0.
        -24    2    5    5    0    0 -0.29205516760E+02 -0.53619833684E+02 -0.25759955067E+02  0.95266684990E+02  0.68440610828E+02 0.  0.
          5    1    3    3  501    0  0.11030409060E+03 -0.79977705312E+01 -0.22816281885E+03  0.25359676386E+03  0.47000000000E+01 0. -1.
        -13    1    4    4    0    0 -0.93533577458E+01 -0.18311060040E+02 -0.52123061444E+02  0.56032077912E+02  0.00000000000E+00 0.  1.
         14    1    4    4    0    0  0.11450998548E+02  0.55646380047E+02 -0.31479989390E+02  0.64951017791E+02  0.00000000000E+00 0. -1.
         -5    1    5    5    0  502 -0.83196214643E+02  0.24282284209E+02  0.81381662517E+02  0.11898026917E+03  0.47000000000E+01 0.  1.
         11    1    6    6    0    0 -0.44858699364E+02 -0.58086714805E+02 -0.28553439249E+02  0.78750671352E+02  0.00000000000E+00 0. -1.
        -12    1    6    6    0    0  0.15653182605E+02  0.44668811208E+01  0.27934841822E+01  0.16516013638E+02  0.00000000000E+00 0.  1.
</event>
<event>
12    1  0.1035051E+000  0.2944478E+03  0.7818608E-02  0.1088508E+00
         21   -1    0    0  503  502  0.00000000000E+00  0.00000000000E+00  0.27549044293E+03  0.27549044293E+03  0.00000000000E+00 0.  1.
         21   -1    0    0  501  503 -0.00000000000E+00 -0.00000000000E+00 -0.31619706629E+03  0.31619706629E+03  0.00000000000E+00 0. -1.
          6    2    1    2  501    0  0.15727268212E+03  0.17583524898E+03 -0.58716470568E+02  0.30024513589E+03  0.17620098293E+03 0.  0.
         24    2    3    3    0    0  0.91336788574E+02  0.17521954384E+03 -0.85630494031E+02  0.22887023967E+03  0.77490048447E+02 0.  0.
         -6    2    1    2    0  502 -0.15727268212E+03 -0.17583524898E+03  0.18009847201E+02  0.29144237333E+03  0.17018099498E+03 0.  0.
        -24    2    5    5    0    0 -0.13659824054E+03 -0.17731046890E+03  0.61808358955E+02  0.24275964087E+03  0.70808815103E+02 0.  0.
          5    1    3    3  501    0  0.65935893550E+02  0.61570513331E+00  0.26914023463E+02  0.71374896217E+02  0.47000000000E+01 0. -1.
        -11    1    4    4    0    0  0.84498648695E+02  0.96715663619E+02 -0.28539805477E+02  0.13156162707E+03  0.00000000000E+00 0.  1.
         12    1    4    4    0    0  0.68381398793E+01  0.78503880224E+02 -0.57090688554E+02  0.97308612603E+02  0.00000000000E+00 0. -1.
         -5    1    5    5    0  502 -0.20674441584E+02  0.14752199238E+01 -0.43798511754E+02  0.48682732467E+02  0.47000000000E+01 0.  1.
         13    1    6    6    0    0  0.61795001451E+01 -0.20845090205E+02  0.13202244618E+02  0.25436258975E+02  0.00000000000E+00 0. -1.
        -14    1    6    6    0    0 -0.14277774069E+03 -0.15646537870E+03  0.48606114337E+02  0.21732338189E+03  0.00000000000E+00 0.  1.
</event>
<event>
12    1  0.1035051E+000  0.2163409E+03  0.7818608E-02  0.1137110E+00
         21   -1    0    0  501  502  0.00000000000E+00  0.00000000000E+00  0.29776823528E+03  0.29776823528E+03  0.00000000000E+00 0.  1.
         21   -1    0    0  502  503 -0.00000000000E+00 -0.00000000000E+00 -0.16428703002E+03  0.16428703002E+03  0.00000000000E+00 0.  1.
         -6    2    1    2    0  503 -0.20853852530E+02  0.12972929693E+03  0.12009565060E+03  0.24530061728E+03  0.16877456532E+03 0.  0.
        -24    2    3    3    0    0 -0.27184345459E+02  0.16083382950E+03  0.10916998810E+03  0.21140331373E+03  0.78528755271E+02 0.  0.
          6    2    1    2  501    0  0.20853852530E+02 -0.12972929693E+03  0.13385554663E+02  0.21675464802E+03  0.17186864378E+03 0.  0.
         24    2    5    5    0    0  0.20672223550E+02 -0.14194941818E+03  0.55050284901E+02  0.17308081033E+03  0.79683466840E+02 0.  0.
          5    1    5    5  501    0  0.18162897993E+00  0.12220121251E+02 -0.41664730238E+02  0.43673837687E+02  0.47000000000E+01 0. -1.
        -13    1    6    6    0    0 -0.25097080027E+02 -0.30180158416E+02  0.30798840807E+02  0.49892624534E+02  0.00000000000E+00 0.  1.
         14    1    6    6    0    0  0.45769303577E+02 -0.11176925977E+03  0.24251444094E+02  0.12318818579E+03  0.00000000000E+00 0. -1.
         -5    1    3    3    0  503  0.63304929290E+01 -0.31104532568E+02  0.10925662500E+02  0.33897303552E+02  0.47000000000E+01 0.  1.
         11    1    4    4    0    0 -0.20331255758E+02  0.89036790896E+02  0.10499719890E+03  0.13915933986E+03  0.00000000000E+00 0. -1.
        -12    1    4    4    0    0 -0.68530897007E+01  0.71797038604E+02  0.41727892012E+01  0.72243973869E+02  0.00000000000E+00 0.  1.
</event>
<event>
12    1  0.1035051E+000  0.2567421E+03  0.7818608E-02  0.1109166E+00
         21   -1    0    0  503  502  0.00000000000E+00  0.00000000000E+00  0.22902459935E+03  0.22902459935E+03  0.00000000000E+00 0. -1.
         21   -1    0    0  501  503 -0.00000000000E+00 -0.00000000000E+00 -0.33472486920E+03  0.33472486920E+03  0.00000000000E+00 0. -1.
          6    2    1    2  501    0  0.11000369424E+03  0.15442855293E+03 -0.15875030727E+03  0.30158386054E+03  0.17263306222E+03 0.  0.
         24    2    3    3    0    0  0.14494818939E+03  0.12391310132E+03 -0.14604219147E+03  0.25325274494E+03  0.80275755011E+02 0.  0.
         -6    2    1    2    0  502 -0.11000369424E+03 -0.15442855293E+03  0.53050037415E+02  0.26216560801E+03  0.17311126147E+03 0.  0.
        -24    2    5    5    0    0 -0.30806320543E+01 -0.18705396676E+02 -0.36554086767E+01  0.80256526358E+02  0.77899716635E+02 0.  0.
          5    1    3    3  501    0 -0.34944495147E+02  0.30515451610E+02 -0.12708115800E+02  0.48331115601E+02  0.47000000000E+01 0. -1.
        -13    1    4    4    0    0  0.92301151687E+02  0.11193274251E+03 -0.13493115588E+03  0.19812838836E+03  0.00000000000E+00 0.  1.
         14    1    4    4    0    0  0.52647037702E+02  0.11980358816E+02 -0.11111035593E+02  0.55124356578E+02  0.00000000000E+00 0. -1.
         -5    1    5    5    0  502 -0.10692306219E+03 -0.13572315626E+03  0.56705446091E+02  0.18190908165E+03  0.47000000000E+01 0.  1.
         11    1    6    6    0    0 -0.10075167873E+02 -0.14326475001E+02  0.35849368950E+02  0.39899049459E+02  0.00000000000E+00 0. -1.
        -12    1    6    6    0    0  0.69945358185E+01 -0.43789216754E+01 -0.39504777627E+02  0.40357476899E+02  0.00000000000E+00 0.  1.
</event>
<event>
12    1  0.1035051E+000  0.2675804E+03  0.7818608E-02  0.1102697E+00
         21   -1    0    0  501  502  0.00000000000E+00  0.00000000000E+00  0.71807625942E+03  0.71807625942E+03  0.00000000000E+00 0.  1.
         21   -1    0    0  502  503 -0.00000000000E+00 -0.00000000000E+00 -0.10085974982E+03  0.10085974982E+03  0.00000000000E+00 0.  1.
         -6    2    1    2    0  503  0.28705177146E+02 -0.20277021215E+03  0.35362415023E+03  0.44345156542E+03  0.17221935175E+03 0.  0.
        -24    2    3    3    0    0  0.61093988865E+02 -0.20815285546E+03  0.28246177061E+03  0.36493925908E+03  0.79598519144E+02 0.  0.
          6    2    1    2  501    0 -0.28705177146E+02  0.20277021215E+03  0.26359235937E+03  0.37548444382E+03  0.17195316079E+03 0.  0.
         24    2    5    5    0    0  0.46826827905E+02  0.81134050478E+02  0.13284653878E+03  0.18153342110E+03  0.80812710339E+02 0.  0.
          5    1    5    5  501    0 -0.75532005050E+02  0.12163616167E+03  0.13074582059E+03  0.19395102272E+03  0.47000000000E+01 0. -1.
        -13    1    6    6    0    0 -0.14062541995E+02  0.34282963957E+02  0.80349982262E+02  0.88482746084E+02  0.00000000000E+00 0.  1.
         14    1    6    6    0    0  0.60889369900E+02  0.46851086521E+02  0.52496556518E+02  0.93050675018E+02  0.00000000000E+00 0. -1.
         -5    1    3    3    0  503 -0.32388811719E+02  0.53826433084E+01  0.71162379621E+02  0.78512306340E+02  0.47000000000E+01 0.  1.
         11    1    4    4    0    0  0.21618026434E+02 -0.16291499697E+03  0.24203647950E+03  0.29255818688E+03  0.00000000000E+00 0. -1.
        -12    1    4    4    0    0  0.39475962431E+02 -0.45237858493E+02  0.40425291108E+02  0.72381072195E+02  0.00000000000E+00 0.  1.
</event>
<event>
12    1  0.1035051E+000  0.2913873E+03  0.7818608E-02  0.1090219E+00
         21   -1    0    0  501  502  0.00000000000E+00  0.00000000000E+00  0.77269109386E+03  0.77269109386E+03  0.00000000000E+00 0.  1.
         21   -1    0    0  502  503 -0.00000000000E+00 -0.00000000000E+00 -0.11766601209E+03  0.11766601209E+03  0.00000000000E+00 0. -1.
         -6    2    1    2    0  503  0.10258760518E+03 -0.20513045526E+03  0.45153060060E+03  0.53494672459E+03  0.17229449922E+03 0.  0.
        -24    2    3    3    0    0 -0.33873108154E+01 -0.12621138118E+03  0.18929317606E+03  0.24126414101E+03  0.80222768697E+02 0.  0.
          6    2    1    2  501    0 -0.10258760518E+03  0.20513045526E+03  0.20349448118E+03  0.35541038136E+03  0.17973262057E+03 0.  0.
         24    2    5    5    0    0 -0.11165609133E+03  0.78625804731E+02  0.15452133941E+03  0.21937317078E+03  0.74824085869E+02 0.  0.
          5    1    5    5  501    0  0.90684861511E+01  0.12650465053E+03  0.48973141771E+02  0.13603721058E+03  0.47000000000E+01 0. -1.
        -11    1    6    6    0    0 -0.40993112378E+02  0.55400143334E+02  0.11766119210E+03  0.13635896476E+03  0.00000000000E+00 0.  1.
         12    1    6    6    0    0 -0.70662978956E+02  0.23225661397E+02  0.36860147305E+02  0.83014206023E+02  0.00000000000E+00 0. -1.
         -5    1    3    3    0  503  0.10597491600E+03 -0.78919074089E+02  0.26223742453E+03  0.29368258358E+03  0.47000000000E+01 0.  1.
         11    1    4    4    0    0  0.97239842685E+01 -0.46337488113E+02  0.15962406254E+02  0.49965158742E+02  0.00000000000E+00 0. -1.
        -12    1    4    4    0    0 -0.13111295084E+02 -0.79873893063E+02  0.17333076981E+03  0.19129898226E+03  0.00000000000E+00 0.  1.
</event>
<event>
12    1  0.1035051E+000  0.2512912E+03  0.7818608E-02  0.1112585E+00
         21   -1    0    0  501  502  0.00000000000E+00  0.00000000000E+00  0.20018554193E+04  0.20018554193E+04  0.00000000000E+00 0.  1.
         21   -1    0    0  502  503 -0.00000000000E+00 -0.00000000000E+00 -0.35381973080E+02  0.35381973080E+02  0.00000000000E+00 0.  1.
         -6    2    1    2    0  503 -0.17372073051E+03  0.55149967993E+02  0.64555303867E+03  0.69273804606E+03  0.17299382516E+03 0.  0.
        -24    2    3    3    0    0 -0.19265054883E+03  0.61093232743E+02  0.63182511552E+03  0.66815743802E+03  0.79904745389E+02 0.  0.
          6    2    1    2  501    0  0.17372073051E+03 -0.55149967993E+02  0.13209204075E+04  0.13444993463E+04  0.17212599452E+03 0.  0.
         24    2    5    5    0    0  0.90987949608E+02  0.29592227403E+02  0.85251971659E+03  0.86133555421E+03  0.77165814106E+02 0.  0.
          5    1    5    5  501    0  0.82732780905E+02 -0.84742195396E+02  0.46840069091E+03  0.48316379207E+03  0.47000000000E+01 0. -1.
        -13    1    6    6    0    0 -0.53641166615E+01  0.21178947750E+02  0.26590234884E+03  0.26679838960E+03  0.00000000000E+00 0.  1.
         14    1    6    6    0    0  0.96352066270E+02  0.84132796534E+01  0.58661736775E+03  0.59453716461E+03  0.00000000000E+00 0. -1.
         -5    1    3    3    0  503  0.18929818318E+02 -0.59432647502E+01  0.13727923156E+02  0.24580608040E+02  0.47000000000E+01 0.  1.
         11    1    4    4    0    0 -0.13516309284E+03  0.10254132402E+02  0.46823780515E+03  0.48746369206E+03  0.00000000000E+00 0. -1.
        -12    1    4    4    0    0 -0.57487455993E+02  0.50839100341E+02  0.16358731036E+03  0.18069374597E+03  0.00000000000E+00 0.  1.
</event>
<event>
12    1  0.1035051E+000  0.1755193E+03  0.7818608E-02  0.1172488E+00
         21   -1    0    0  501  502  0.00000000000E+00  0.00000000000E+00  0.33620167989E+02  0.33620167989E+02  0.00000000000E+00 0. -1.
         21   -1    0    0  502  503 -0.00000000000E+00 -0.00000000000E+00 -0.92472533550E+03  0.92472533550E+03  0.00000000000E+00 0. -1.
         -6    2    1    2    0  503  0.12338270779E+02 -0.30281698183E+02 -0.38490069964E+03  0.42257502623E+03  0.17132393306E+03 0.  0.
        -24    2    3    3    0    0  0.53265609763E+02 -0.68150443870E+02 -0.28004223589E+03  0.30372017191E+03  0.79627763732E+02 0.  0.
          6    2    1    2  501    0 -0.12338270779E+02  0.30281698183E+02 -0.50620446787E+03  0.53577047726E+03  0.17244659127E+03 0.  0.
         24    2    5    5    0    0  0.44336165666E+02  0.32995900946E+02 -0.42888446280E+03  0.43975052190E+03  0.79901276686E+02 0.  0.
          5    1    5    5  501    0 -0.56674436444E+02 -0.27142027629E+01 -0.77320005074E+02  0.96019955361E+02  0.47000000000E+01 0. -1.
        -11    1    6    6    0    0 -0.24428940555E+00 -0.24060302959E+02 -0.85893825953E+02  0.89200376640E+02  0.00000000000E+00 0.  1.
         12    1    6    6    0    0  0.44580455071E+02  0.57056203905E+02 -0.34299063684E+03  0.35055014526E+03  0.00000000000E+00 0. -1.
         -5    1    3    3    0  503 -0.40927338985E+02  0.37868745687E+02 -0.10485846375E+03  0.11885485432E+03  0.47000000000E+01 0.  1.
         11    1    4    4    0    0  0.69797157730E+00 -0.11470709400E+02 -0.16329713451E+03  0.16370100329E+03  0.00000000000E+00 0. -1.
        -12    1    4    4    0    0  0.52567638186E+02 -0.56679734470E+02 -0.11674510138E+03  0.14001916862E+03  0.00000000000E+00 0.  1.
</event>
<event>
12    1  0.1035051E+000  0.2285633E+03  0.7818608E-02  0.1127794E+00
         21   -1    0    0  503  502  0.00000000000E+00  0.00000000000E+00  0.53707445710E+03  0.53707445710E+03  0.00000000000E+00 0.  1.
         21   -1    0    0  501  503 -0.00000000000E+00 -0.00000000000E+00 -0.97713249914E+02  0.97713249914E+02  0.00000000000E+00 0.  1.
          6    2    1    2  501    0 -0.14054147089E+03 -0.49024810381E+02  0.24760067753E+03  0.33643676899E+03  0.17241887060E+03 0.  0.
         24    2    3    3    0    0 -0.81873567471E+02 -0.97614499218E+02  0.18088866111E+03  0.23506880616E+03  0.79402546578E+02 0.  0.
         -6    2    1    2    0  502  0.14054147089E+03  0.49024810381E+02  0.19176052966E+03  0.29835093803E+03  0.17345271522E+03 0.  0.
        -24    2    5    5    0    0  0.13551361708E+03 -0.19322543210E+02  0.11815275732E+03  0.19766909158E+03  0.79847946835E+02 0.  0.
          5    1    3    3  501    0 -0.58667903416E+02  0.48589688837E+02  0.66712016427E+02  0.10136796283E+03  0.47000000000E+01 0. -1.
        -11    1    4    4    0    0 -0.37560034426E+02 -0.24200472360E+01  0.84625088446E+02  0.92617592331E+02  0.00000000000E+00 0.  1.
         12    1    4    4    0    0 -0.44313533045E+02 -0.95194451982E+02  0.96263572660E+02  0.14245121383E+03  0.00000000000E+00 0. -1.
         -5    1    5    5    0  502  0.50278538105E+01  0.68347353591E+02  0.73607772336E+02  0.10068184645E+03  0.47000000000E+01 0.  1.
         11    1    6    6    0    0  0.21936853056E+02 -0.35363272298E+02  0.17795871909E+02  0.45260132640E+02  0.00000000000E+00 0. -1.
        -12    1    6    6    0    0  0.11357676402E+03  0.16040729088E+02  0.10035688541E+03  0.15240895894E+03  0.00000000000E+00 0.  1.
</event>
<event>
12    1  0.1035051E+000  0.1771658E+03  0.7818608E-02  0.1170579E+00
         21   -1    0    0  501  502  0.00000000000E+00  0.00000000000E+00  0.13692670455E+03  0.13692670455E+03  0.00000000000E+00 0.  1.
         21   -1    0    0  502  503 -0.00000000000E+00 -0.00000000000E+00 -0.45267672188E+03  0.45267672188E+03  0.00000000000E+00 0.  1.
         -6    2    1    2    0  503  0.19056481073E+02  0.38125733269E+02  0.49258746376E+02  0.18387062275E+03  0.17194551698E+03 0.  0.
        -24    2    3    3    0    0 -0.53636472730E+02  0.42087732346E+02  0.25565150186E+02  0.10716704089E+03  0.78631732328E+02 0.  0.
          6    2    1    2  501    0 -0.19056481073E+02 -0.38125733269E+02 -0.36500876371E+03  0.40573280368E+03  0.17196217429E+03 0.  0.
         24    2    5    5    0    0 -0.47812816014E+01 -0.53871371765E+02 -0.37136921213E+03  0.38305568402E+03  0.76756628361E+02 0.  0.
          5    1    5    5  501    0 -0.14275199472E+02  0.15745638496E+02  0.63604484179E+01  0.22677119652E+02  0.47000000000E+01 0. -1.
        -11    1    6    6    0    0  0.25778342858E+02 -0.45666376008E+02 -0.13937980671E+03  0.14891833795E+03  0.00000000000E+00 0.  1.
         12    1    6    6    0    0 -0.30559624459E+02 -0.82049957576E+01 -0.23198940542E+03  0.23413734608E+03  0.00000000000E+00 0. -1.
         -5    1    3    3    0  503  0.72692953803E+02 -0.39619990770E+01  0.23693596191E+02  0.76703581858E+02  0.47000000000E+01 0.  1.
         13    1    4    4    0    0 -0.65158495770E+01  0.54597368497E+02  0.17835888096E+02  0.57805257950E+02  0.00000000000E+00 0. -1.
        -14    1    4    4    0    0 -0.47120623153E+02 -0.12509636151E+02  0.77292620895E+01  0.49361782944E+02  0.00000000000E+00 0.  1.
</event>
<event>
12    1  0.1035051E+000  0.2590976E+03  0.7818608E-02  0.1108790E+00
         21   -1    0    0  501  502  0.00000000000E+00  0.00000000000E+00  0.11829700325E+03  0.11829700325E+03  0.00000000000E+00 0.  1.
         21   -1    0    0  502  503 -0.00000000000E+00 -0.00000000000E+00 -0.65531173637E+03  0.65531173637E+03  0.00000000000E+00 0.  1.
         -6    2    1    2    0  503 -0.20035844177E+02 -0.19236668779E+03 -0.11160831667E+03  0.27551018253E+03  0.16137864388E+03 0.  0.
        -24    2    3    3    0    0 -0.80715396477E+01 -0.68369143842E+02 -0.10874616237E+03  0.15081528521E+03  0.78613184919E+02 0.  0.
          6    2    1    2  501    0  0.20035844177E+02  0.19236668779E+03 -0.42540641645E+03  0.49809855708E+03  0.17240990630E+03 0.  0.
         24    2    5    5    0    0  0.57753809517E+02  0.82553074565E+02 -0.13704966371E+03  0.18720728765E+03  0.78188525966E+02 0.  0.
          5    1    5    5  501    0 -0.37717965340E+02  0.10981361323E+03 -0.28835675274E+03  0.31089126944E+03  0.47000000000E+01 0. -1.
        -13    1    6    6    0    0  0.58805170162E+02  0.48789709319E+02 -0.13272976402E+03  0.15315245355E+03  0.00000000000E+00 0.  1.
         14    1    6    6    0    0 -0.10513606455E+01  0.33763365246E+02 -0.43198996893E+01  0.34054834095E+02  0.00000000000E+00 0. -1.
         -5    1    3    3    0  503 -0.11964304529E+02 -0.12399754395E+03 -0.28621543071E+01  0.12469489731E+03  0.47000000000E+01 0.  1.
         13    1    4    4    0    0  0.15026683403E+02 -0.19824131939E+02  0.46632406028E+01  0.25308955612E+02  0.00000000000E+00 0. -1.
        -14    1    4    4    0    0 -0.23098223051E+02 -0.48545011903E+02 -0.11340940297E+03  0.12550632960E+03  0.00000000000E+00 0.  1.
</event>
<event>
12    1  0.1035051E+000  0.1840701E+03  0.7818608E-02  0.1164100E+00
         21   -1    0    0  501  502  0.00000000000E+00  0.00000000000E+00  0.30316454677E+03  0.30316454677E+03  0.00000000000E+00 0.  1.
         21   -1    0    0  502  503 -0.00000000000E+00 -0.00000000000E+00 -0.11262332917E+03  0.11262332917E+03  0.00000000000E+00 0.  1.
         -6    2    1    2    0  503  0.45526223552E+02  0.47661653777E+02  0.72929762821E+02  0.19799129645E+03  0.17186486812E+03 0.  0.
        -24    2    3    3    0    0  0.80313096871E+02  0.73191256562E+02  0.47527897724E+02  0.14769982676E+03  0.88029450733E+02 0.  0.
          6    2    1    2  501    0 -0.45526223552E+02 -0.47661653777E+02  0.11761145478E+03  0.21779657949E+03  0.17105152869E+03 0.  0.
         24    2    5    5    0    0  0.20929667943E+02 -0.71135733051E+02  0.90250899406E+02  0.14204627980E+03  0.80830546481E+02 0.  0.
          5    1    5    5  501    0 -0.66455891495E+02  0.23474079274E+02  0.27360555373E+02  0.75750299686E+02  0.47000000000E+01 0. -1.
        -11    1    6    6    0    0 -0.16795823762E+02  0.29771302824E+01  0.43316422854E+02  0.46554006159E+02  0.00000000000E+00 0.  1.
         12    1    6    6    0    0  0.37725491705E+02 -0.74112863334E+02  0.46934476551E+02  0.95492273641E+02  0.00000000000E+00 0. -1.
         -5    1    3    3    0  503 -0.34786873319E+02 -0.25529602785E+02  0.25401865097E+02  0.50291469695E+02  0.47000000000E+01 0.  1.
         11    1    4    4    0    0 -0.46899947044E+01  0.36234695314E+02  0.40797222929E+02  0.54766436743E+02  0.00000000000E+00 0. -1.
        -12    1    4    4    0    0  0.85003091576E+02  0.36956561249E+02  0.67306747954E+01  0.92933390017E+02  0.00000000000E+00 0.  1.
</event>
<event>
12    1  0.1035051E+000  0.1943494E+03  0.7818608E-02  0.1154900E+00
         21   -1    0    0  503  502  0.00000000000E+00  0.00000000000E+00  0.57112679960E+02  0.57112679960E+02  0.00000000000E+00 0. -1.
         21   -1    0    0  501  503 -0.00000000000E+00 -0.00000000000E+00 -0.71870764666E+03  0.71870764666E+03  0.00000000000E+00 0. -1.
          6    2    1    2  501    0  0.15687397890E+02 -0.88581948175E+02 -0.21573040152E+03  0.28943887891E+03  0.17071145974E+03 0.  0.
         24    2    3    3    0    0  0.75299115312E+02 -0.65349194450E+02 -0.11941276158E+03  0.17371292908E+03  0.77306533482E+02 0.  0.
         -6    2    1    2    0  502 -0.15687397890E+02  0.88581948175E+02 -0.44586456518E+03  0.48638144772E+03  0.17227549508E+03 0.  0.
        -24    2    5    5    0    0 -0.50767054229E+02  0.10952463536E+03 -0.27302930209E+03  0.30872082574E+03  0.78680422567E+02 0.  0.
          5    1    3    3  501    0 -0.59611717422E+02 -0.23232753725E+02 -0.96317639938E+02  0.11572594983E+03  0.47000000000E+01 0. -1.
        -13    1    4    4    0    0  0.30241023281E+02 -0.71073778706E+02 -0.94011298231E+02  0.12167220596E+03  0.00000000000E+00 0.  1.
         14    1    4    4    0    0  0.45058092031E+02  0.57245842556E+01 -0.25401463352E+02  0.52040723119E+02  0.00000000000E+00 0. -1.
         -5    1    5    5    0  502  0.35079656338E+02 -0.20942687190E+02 -0.17283526309E+03  0.17766062198E+03  0.47000000000E+01 0.  1.
         13    1    6    6    0    0 -0.35125144013E+02  0.13454294458E+02 -0.34274489455E+02  0.50887468091E+02  0.00000000000E+00 0. -1.
        -14    1    6    6    0    0 -0.15641910216E+02  0.96070340906E+02 -0.23875481264E+03  0.25783335764E+03  0.00000000000E+00 0.  1.
</event>
<event>
12    1  0.1035051E+000  0.1750264E+03  0.7818608E-02  0.1172930E+00
         21   -1    0    0  503  502  0.00000000000E+00  0.00000000000E+00  0.18814144945E+03  0.18814144945E+03  0.00000000000E+00 0. -1.
         21   -1    0    0  501  503 -0.00000000000E+00 -0.00000000000E+00 -0.16202209963E+03  0.16202209963E+03  0.00000000000E+00 0. -1.
          6    2    1    2  501    0 -0.53767078423E+01 -0.26211565576E+02  0.10788568919E+02  0.17446701381E+03  0.17206507644E+03 0.  0.
         24    2    3    3    0    0  0.43820903553E+02 -0.60258622264E+02  0.21967922089E+02  0.11342051535E+03  0.82645329912E+02 0.  0.
         -6    2    1    2    0  502  0.53767078423E+01  0.26211565576E+02  0.15330780903E+02  0.17569653527E+03  0.17296902759E+03 0.  0.
        -24    2    5    5    0    0  0.35802012420E+01 -0.33534582844E+01 -0.57418942203E+02  0.97007715964E+02  0.78035238896E+02 0.  0.
          5    1    3    3  501    0 -0.49197611396E+02  0.34047056688E+02 -0.11179353170E+02  0.61046498454E+02  0.47000000000E+01 0. -1.
        -13    1    4    4    0    0  0.52460215180E+02 -0.56832924655E+01  0.24349518642E+02  0.58114310183E+02  0.00000000000E+00 0.  1.
         14    1    4    4    0    0 -0.86393116262E+01 -0.54575329799E+02 -0.23815965536E+01  0.55306205169E+02  0.00000000000E+00 0. -1.
         -5    1    5    5    0  502  0.17965066003E+01  0.29565023861E+02  0.72749723106E+02  0.78688819306E+02  0.47000000000E+01 0.  1.
         13    1    6    6    0    0  0.31525253749E+02  0.16092570137E+02 -0.51440709812E+02  0.62441645266E+02  0.00000000000E+00 0. -1.
        -14    1    6    6    0    0 -0.27945052507E+02 -0.19446028421E+02 -0.59782323907E+01  0.34566070698E+02  0.00000000000E+00 0.  1.
</event>
<event>
12    1  0.1035051E+000  0.2190724E+03  0.7818608E-02  0.1135959E+00
         21   -1    0    0  503  502  0.00000000000E+00  0.00000000000E+00  0.77652118098E+03  0.77652118098E+03  0.00000000000E+00 0.  1.
         21   -1    0    0  501  503 -0.00000000000E+00 -0.00000000000E+00 -0.68752344224E+02  0.68752344224E+02  0.00000000000E+00 0.  1.
          6    2    1    2  501    0  0.12372618104E+03 -0.16359237539E+02  0.20637909289E+03  0.30097347059E+03  0.18004695913E+03 0.  0.
         24    2    3    3    0    0 -0.19478005085E+00 -0.41996463725E+02  0.83571667350E+02  0.12457215050E+03  0.82281566534E+02 0.  0.
         -6    2    1    2    0  502 -0.12372618104E+03  0.16359237539E+02  0.50138974388E+03  0.54430005461E+03  0.17115806046E+03 0.  0.
        -24    2    5    5    0    0 -0.14085035784E+02 -0.36054054593E+02  0.18221331830E+03  0.20273891137E+03  0.80019308515E+02 0.  0.
          5    1    3    3  501    0  0.12392096110E+03  0.25637226187E+02  0.12280742554E+03  0.17640132010E+03  0.47000000000E+01 0. -1.
        -11    1    4    4    0    0  0.27821030349E+02 -0.12119039607E+02  0.77419993746E+02  0.83154893316E+02  0.00000000000E+00 0.  1.
         12    1    4    4    0    0 -0.28015810400E+02 -0.29877424118E+02  0.61516736033E+01  0.41417257181E+02  0.00000000000E+00 0. -1.
         -5    1    5    5    0  502 -0.10964114526E+03  0.52413292132E+02  0.31917642558E+03  0.34156114324E+03  0.47000000000E+01 0.  1.
         11    1    6    6    0    0  0.32730339004E+02 -0.23621433385E+02  0.87320799324E+02  0.96198592510E+02  0.00000000000E+00 0. -1.
        -12    1    6    6    0    0 -0.46815374788E+02 -0.12432621208E+02  0.94892518972E+02  0.10654031886E+03  0.00000000000E+00 0.  1.
</event>
<event>
12    1  0.1035051E+000  0.2218470E+03  0.7818608E-02  0.1132691E+00
         21   -1    0    0  501  502  0.00000000000E+00  0.00000000000E+00  0.46493637920E+03  0.46493637920E+03  0.00000000000E+00 0.  1.
         21   -1    0    0  502  503 -0.00000000000E+00 -0.00000000000E+00 -0.10544164643E+03  0.10544164643E+03  0.00000000000E+00 0.  1.
         -6    2    1    2    0  503 -0.60600567574E+01  0.13904598031E+03  0.17432798841E+03  0.28214592926E+03  0.17275870146E+03 0.  0.
        -24    2    3    3    0    0 -0.23553556775E+02  0.65550858572E+02  0.19710994029E+02  0.10999465738E+03  0.82816763214E+02 0.  0.
          6    2    1    2  501    0  0.60600567574E+01 -0.13904598031E+03  0.18516674437E+03  0.28823209637E+03  0.17152407770E+03 0.  0.
         24    2    5    5    0    0  0.83625732960E+01 -0.49318906480E+00  0.64277491186E+02  0.10427971373E+03  0.81685292155E+02 0.  0.
          5    1    5    5  501    0 -0.23025165386E+01 -0.13855279125E+03  0.12088925318E+03  0.18395238264E+03  0.47000000000E+01 0. -1.
        -13    1    6    6    0    0 -0.43606114606E+01 -0.61100528438E+00 -0.19271139953E+02  0.19767779209E+02  0.00000000000E+00 0.  1.
         14    1    6    6    0    0  0.12723184757E+02  0.11781621959E+00  0.83548631139E+02  0.84511934519E+02  0.00000000000E+00 0. -1.
         -5    1    3    3    0  503  0.17493500018E+02  0.73495121743E+02  0.15461699438E+03  0.17215127189E+03  0.47000000000E+01 0.  1.
         13    1    4    4    0    0  0.51642759479E+01 -0.14921015469E+02 -0.10952715966E+02  0.19216358545E+02  0.00000000000E+00 0. -1.
        -14    1    4    4    0    0 -0.28717832723E+02  0.80471874040E+02  0.30663709995E+02  0.90778298830E+02  0.00000000000E+00 0.  1.
</event>
<event>
12    1  0.1035051E+000  0.1887815E+03  0.7818608E-02  0.1159940E+00
         21   -1    0    0  501  502  0.00000000000E+00  0.00000000000E+00  0.25051287518E+03  0.25051287518E+03  0.00000000000E+00 0.  1.
         21   -1    0    0  502  503 -0.00000000000E+00 -0.00000000000E+00 -0.14418270826E+03  0.14418270826E+03  0.00000000000E+00 0.  1.
         -6    2    1    2    0  503  0.16804086496E+02  0.73107970373E+02  0.23750657672E+02  0.18864263080E+03  0.17144910545E+03 0.  0.
        -24    2    3    3    0    0  0.30585764016E+02  0.60220722178E+02  0.78350066036E+02  0.13068401457E+03  0.79859592264E+02 0.  0.
          6    2    1    2  501    0 -0.16804086496E+02 -0.73107970373E+02  0.82579509249E+02  0.20605295264E+03  0.17323767283E+03 0.  0.
         24    2    5    5    0    0  0.30497992439E+02 -0.22416856562E+02 -0.11500137241E+02  0.89090798184E+02  0.79826525439E+02 0.  0.
          5    1    5    5  501    0 -0.47302078935E+02 -0.50691113811E+02  0.94079646489E+02  0.11696215445E+03  0.47000000000E+01 0. -1.
        -11    1    6    6    0    0  0.43246553649E+02  0.14811946239E+02  0.58480704853E+01  0.46085334785E+02  0.00000000000E+00 0.  1.
         12    1    6    6    0    0 -0.12748561209E+02 -0.37228802801E+02 -0.17348207726E+02  0.43005463399E+02  0.00000000000E+00 0. -1.
         -5    1    3    3    0  503 -0.13781677519E+02  0.12887248195E+02 -0.54599408364E+02  0.57958616227E+02  0.47000000000E+01 0.  1.
         13    1    4    4    0    0  0.22826337389E+02 -0.13060413167E+02  0.51153159086E+01  0.26791463707E+02  0.00000000000E+00 0. -1.
        -14    1    4    4    0    0  0.77594266261E+01  0.73281135345E+02  0.73234750128E+02  0.10389255087E+03  0.00000000000E+00 0.  1.
</event>
<event>
12    1  0.1035051E+000  0.3605574E+03  0.7818608E-02  0.1058445E+00
         21   -1    0    0  501  502  0.00000000000E+00  0.00000000000E+00  0.19180386531E+03  0.19180386531E+03  0.00000000000E+00 0.  1.
         21   -1    0    0  502  503 -0.00000000000E+00 -0.00000000000E+00 -0.67800422447E+03  0.67800422447E+03  0.00000000000E+00 0.  1.
         -6    2    1    2    0  503  0.11386505145E+03 -0.29539575500E+03 -0.26555268717E+03  0.44779441068E+03  0.17256217013E+03 0.  0.
        -24    2    3    3    0    0 -0.53931948467E+01 -0.69816535838E+02 -0.92751820246E+02  0.13958872767E+03  0.77321908330E+02 0.  0.
          6    2    1    2  501    0 -0.11386505145E+03  0.29539575500E+03 -0.22064767199E+03  0.42201367910E+03  0.17083983196E+03 0.  0.
         24    2    5    5    0    0 -0.72962837508E+02  0.15684327707E+03 -0.20109558858E+03  0.27615705700E+03  0.76810775059E+02 0.  0.
          5    1    5    5  501    0 -0.40902213939E+02  0.13855247793E+03 -0.19552083404E+02  0.14585662210E+03  0.47000000000E+01 0. -1.
        -13    1    6    6    0    0 -0.65508460792E+02  0.58362338624E+02 -0.71269511958E+02  0.11303479261E+03  0.00000000000E+00 0.  1.
         14    1    6    6    0    0 -0.74543767155E+01  0.98480938444E+02 -0.12982607663E+03  0.16312226439E+03  0.00000000000E+00 0. -1.
         -5    1    3    3    0  503  0.11925824629E+03 -0.22557921916E+03 -0.17280086692E+03  0.30820568300E+03  0.47000000000E+01 0.  1.
         11    1    4    4    0    0  0.66238719442E+01 -0.23061218035E+02  0.10052273253E+02  0.26014297114E+02  0.00000000000E+00 0. -1.
        -12    1    4    4    0    0 -0.12017066791E+02 -0.46755317804E+02 -0.10280409350E+03  0.11357443056E+03  0.00000000000E+00 0.  1.
</event>
<event>
12    1  0.1035051E+000  0.4724772E+03  0.7818608E-02  0.1021245E+00
         21   -1    0    0  501  502  0.00000000000E+00  0.00000000000E+00  0.59213257282E+03  0.59213257282E+03  0.00000000000E+00 0. -1.
         21   -1    0    0  502  503 -0.00000000000E+00 -0.00000000000E+00 -0.41919568100E+03  0.41919568100E+03  0.00000000000E+00 0. -1.
         -6    2    1    2    0  503  0.24947570718E+03 -0.36155677333E+03  0.24734748258E+03  0.53302744003E+03  0.17313591733E+03 0.  0.
        -24    2    3    3    0    0  0.18965058986E+03 -0.31278056763E+03  0.13755058131E+03  0.39873070726E+03  0.79164289716E+02 0.  0.
          6    2    1    2  501    0 -0.24947570718E+03  0.36155677333E+03 -0.74410590762E+02  0.47830081380E+03  0.17399225169E+03 0.  0.
         24    2    5    5    0    0 -0.19153578369E+03  0.34853750932E+03 -0.35596561830E+02  0.40720120191E+03  0.79883363613E+02 0.  0.
          5    1    5    5  501    0 -0.57939923483E+02  0.13019264010E+02 -0.38814028932E+02  0.71099611887E+02  0.47000000000E+01 0. -1.
        -11    1    6    6    0    0 -0.50820719453E+02  0.34230943157E+02 -0.52010363459E+01  0.61494339367E+02  0.00000000000E+00 0.  1.
         12    1    6    6    0    0 -0.14071506424E+03  0.31430656617E+03 -0.30395525484E+02  0.34570686254E+03  0.00000000000E+00 0. -1.
         -5    1    3    3    0  503  0.59825117316E+02 -0.48776205698E+02  0.10979690127E+03  0.13429673277E+03  0.47000000000E+01 0.  1.
         11    1    4    4    0    0  0.25599743693E+02 -0.48309316748E+02 -0.78272216547E+01  0.55230447768E+02  0.00000000000E+00 0. -1.
        -12    1    4    4    0    0  0.16405084617E+03 -0.26447125089E+03  0.14537780297E+03  0.34350025949E+03  0.00000000000E+00 0.  1.
</event>
<event>
12    1  0.1035051E+000  0.1896803E+03  0.7818608E-02  0.1158863E+00
         21   -1    0    0  503  502  0.00000000000E+00  0.00000000000E+00  0.38231325327E+02  0.38231325327E+02  0.00000000000E+00 0.  1.
         21   -1    0    0  501  503 -0.00000000000E+00 -0.00000000000E+00 -0.10360902679E+04  0.10360902679E+04  0.00000000000E+00 0.  1.
          6    2    1    2  501    0 -0.60712159187E+02 -0.51169227683E+02 -0.33357225786E+03  0.38348483762E+03  0.17171462760E+03 0.  0.
         24    2    3    3    0    0  0.21324824457E+02  0.96586443028E+01 -0.10155679587E+03  0.12994320139E+03  0.77610664558E+02 0.  0.
         -6    2    1    2    0  502  0.60712159187E+02  0.51169227683E+02 -0.66428668468E+03  0.69083675558E+03  0.17226249528E+03 0.  0.
        -24    2    5    5    0    0  0.77324706724E+01  0.77705536825E+02 -0.55747778131E+03  0.56860232942E+03  0.80182235050E+02 0.  0.
          5    1    3    3  501    0 -0.82036983643E+02 -0.60827871986E+02 -0.23201546199E+03  0.25354163622E+03  0.47000000000E+01 0. -1.
        -11    1    4    4    0    0  0.25504249483E+02 -0.29444683031E+02 -0.67434189746E+02  0.77876993055E+02  0.00000000000E+00 0.  1.
         12    1    4    4    0    0 -0.41794250266E+01  0.39103327334E+02 -0.34122606124E+02  0.52066208339E+02  0.00000000000E+00 0. -1.
         -5    1    5    5    0  502  0.52979688515E+02 -0.26536309142E+02 -0.10680890337E+03  0.12223442615E+03  0.47000000000E+01 0.  1.
         13    1    6    6    0    0  0.50307023426E+01  0.82109388028E+01 -0.34290523572E+03  0.34304041769E+03  0.00000000000E+00 0. -1.
        -14    1    6    6    0    0  0.27017683297E+01  0.69494598022E+02 -0.21457254558E+03  0.22556191173E+03  0.00000000000E+00 0.  1.
</event>
<event>
12    1  0.1035051E+000  0.2550096E+03  0.7818608E-02  0.1110364E+00
         21   -1    0    0  503  502  0.00000000000E+00  0.00000000000E+00  0.21973796057E+03  0.21973796057E+03  0.00000000000E+00 0. -1.
         21   -1    0    0  501  503 -0.00000000000E+00 -0.00000000000E+00 -0.30902940833E+03  0.30902940833E+03  0.00000000000E+00 0. -1.
          6    2    1    2  501    0  0.45238339558E+02 -0.18113152103E+03  0.12466334989E+02  0.25531413083E+03  0.17370883863E+03 0.  0.
         24    2    3    3    0    0  0.79634876389E+02 -0.63167326255E+02 -0.86161377484E+01  0.13055342528E+03  0.81474746876E+02 0.  0.
         -6    2    1    2    0  502 -0.45238339558E+02  0.18113152103E+03 -0.10175778275E+03  0.27345323807E+03  0.17195025962E+03 0.  0.
        -24    2    5    5    0    0 -0.86413333164E+01  0.22687191547E+02 -0.69131256970E+02  0.10752998293E+03  0.78703146301E+02 0.  0.
          5    1    3    3  501    0 -0.34396536830E+02 -0.11796419477E+03  0.21082472737E+02  0.12476070556E+03  0.47000000000E+01 0. -1.
        -11    1    4    4    0    0  0.30680897384E+02 -0.31979469550E+02 -0.44101191221E+02  0.62521348387E+02  0.00000000000E+00 0.  1.
         12    1    4    4    0    0  0.48953979004E+02 -0.31187856705E+02  0.35485053472E+02  0.68032076891E+02  0.00000000000E+00 0. -1.
         -5    1    5    5    0  502 -0.36597006242E+02  0.15844432948E+03 -0.32626525778E+02  0.16592325513E+03  0.47000000000E+01 0.  1.
         11    1    6    6    0    0 -0.20487592277E+02 -0.25514845037E+02 -0.26966544337E+02  0.42402161125E+02  0.00000000000E+00 0. -1.
        -12    1    6    6    0    0  0.11846258961E+02  0.48202036584E+02 -0.42164712633E+02  0.65127821809E+02  0.00000000000E+00 0.  1.
</event>
<event>
12    1  0.1035051E+000  0.4382267E+03  0.7818608E-02  0.1031302E+00
         21   -1    0    0  503  502  0.00000000000E+00  0.00000000000E+00  0.46727015987E+03  0.46727015987E+03  0.00000000000E+00 0.  1.
         21   -1    0    0  501  503 -0.00000000000E+00 -0.00000000000E+00 -0.41256790864E+03  0.41256790864E+03  0.00000000000E+00 0.  1.
          6    2    1    2  501    0 -0.12885818106E+03 -0.38177326997E+03 -0.83223395090E+00  0.43810654241E+03  0.17199241089E+03 0.  0.
         24    2    3    3    0    0 -0.66106461821E+02 -0.24481245308E+03  0.65089461080E+02  0.27359574183E+03  0.79465656297E+02 0.  0.
         -6    2    1    2    0  502  0.12885818106E+03  0.38177326997E+03  0.55534485179E+02  0.44173152610E+03  0.17230032392E+03 0.  0.
        -24    2    5    5    0    0 -0.29440507901E+01  0.17828295629E+03  0.11767916999E+02  0.19532182952E+03  0.78858438212E+02 0.  0.
          5    1    3    3  501    0 -0.62751719240E+02 -0.13696081689E+03 -0.65921695031E+02  0.16451080058E+03  0.47000000000E+01 0. -1.
        -13    1    4    4    0    0  0.18555537534E+02 -0.48090897724E+02  0.11058579498E+02  0.52719394890E+02  0.00000000000E+00 0.  1.
         14    1    4    4    0    0 -0.84661999355E+02 -0.19672155535E+03  0.54030881581E+02  0.22087634694E+03  0.00000000000E+00 0. -1.
         -5    1    5    5    0  502  0.13180223185E+03  0.20349031368E+03  0.43766568180E+02  0.24640969659E+03  0.47000000000E+01 0.  1.
         11    1    6    6    0    0  0.20467326865E+02  0.15283726628E+03 -0.98956462030E+01  0.15451881842E+03  0.00000000000E+00 0. -1.
        -12    1    6    6    0    0 -0.23411377655E+02  0.25445690008E+02  0.21663563202E+02  0.40803011094E+02  0.00000000000E+00 0.  1.
</event>
<event>
12    1  0.1035051E+000  0.1743154E+03  0.7818608E-02  0.1173532E+00
         21   -1    0    0  503  502  0.00000000000E+00  0.00000000000E+00  0.56920320721E+03  0.56920320721E+03  0.00000000000E+00 0. -1.
         21   -1    0    0  501  503 -0.00000000000E+00 -0.00000000000E+00 -0.64113718808E+02  0.64113718808E+02  0.00000000000E+00 0. -1.
          6    2    1    2  501    0  0.42528838967E+01  0.21016228785E+02  0.38263650405E+03  0.42028971582E+03  0.17254849201E+03 0.  0.
         24    2    3    3    0    0  0.62434826229E+02  0.19990583163E+02  0.31250708778E+03  0.32904052191E+03  0.79430813942E+02 0.  0.
         -6    2    1    2    0  502 -0.42528838967E+01 -0.21016228785E+02  0.12245298435E+03  0.21302721020E+03  0.17299158943E+03 0.  0.
        -24    2    5    5    0    0  0.29458784075E+02 -0.54037625700E+02  0.22601397043E+02  0.10248618298E+03  0.78769979068E+02 0.  0.
          5    1    3    3  501    0 -0.58181942332E+02  0.10256456217E+01  0.70129416273E+02  0.91249193910E+02  0.47000000000E+01 0. -1.
        -13    1    4    4    0    0  0.21741548339E+02  0.37994226499E+02  0.70563346760E+02  0.83038798627E+02  0.00000000000E+00 0.  1.
         14    1    4    4    0    0  0.40693277890E+02 -0.18003643335E+02  0.24194374102E+03  0.24600172328E+03  0.00000000000E+00 0. -1.
         -5    1    5    5    0  502 -0.33711667972E+02  0.33021396915E+02  0.99851587304E+02  0.11054102722E+03  0.47000000000E+01 0.  1.
         11    1    6    6    0    0  0.40478851431E+02  0.27920284335E+00  0.23972661397E+02  0.47045763485E+02  0.00000000000E+00 0. -1.
        -12    1    6    6    0    0 -0.11020067356E+02 -0.54316828543E+02 -0.13712643540E+01  0.55440419492E+02  0.00000000000E+00 0.  1.
</event>
<event>
12    1  0.1035051E+000  0.2061561E+03  0.7818608E-02  0.1144786E+00
         21   -1    0    0  503  502  0.00000000000E+00  0.00000000000E+00  0.96851677830E+03  0.96851677830E+03  0.00000000000E+00 0. -1.
         21   -1    0    0  501  503 -0.00000000000E+00 -0.00000000000E+00 -0.44259070446E+02  0.44259070446E+02  0.00000000000E+00 0. -1.
          6    2    1    2  501    0 -0.63650064451E+02  0.93774334674E+02  0.40629852495E+03  0.45529753486E+03  0.17138377207E+03 0.  0.
         24    2    3    3    0    0 -0.10601675680E+03  0.54187183056E+02  0.32317224449E+03  0.35383745554E+03  0.81147038173E+02 0.  0.
         -6    2    1    2    0  502  0.63650064451E+02 -0.93774334674E+02  0.51795918291E+03  0.55747831388E+03  0.17220742942E+03 0.  0.
        -24    2    5    5    0    0  0.55673420394E+02 -0.70564233024E+02  0.51720195983E+03  0.53247833277E+03  0.89199029676E+02 0.  0.
          5    1    3    3  501    0  0.42366692345E+02  0.39587151617E+02  0.83126280456E+02  0.10146007932E+03  0.47000000000E+01 0. -1.
        -13    1    4    4    0    0 -0.44724731844E+02  0.67257399651E+02  0.16520477707E+03  0.18389257140E+03  0.00000000000E+00 0.  1.
         14    1    4    4    0    0 -0.61292024953E+02 -0.13070216595E+02  0.15796746742E+03  0.16994488414E+03  0.00000000000E+00 0. -1.
         -5    1    5    5    0  502  0.79766440566E+01 -0.23210101650E+02  0.75722307671E+00  0.24999981116E+02  0.47000000000E+01 0.  1.
         11    1    6    6    0    0  0.74459831076E+01 -0.45158222699E+02  0.40665652094E+03  0.40922394085E+03  0.00000000000E+00 0. -1.
        -12    1    6    6    0    0  0.48227437287E+02 -0.25406010325E+02  0.11054543889E+03  0.12325439192E+03  0.00000000000E+00 0.  1.
</event>
<event>
12    1  0.1035051E+000  0.1908265E+03  0.7818608E-02  0.1159002E+00
         21   -1    0    0  503  502  0.00000000000E+00  0.00000000000E+00  0.27406902429E+03  0.27406902429E+03  0.00000000000E+00 0. -1.
         21   -1    0    0  501  503 -0.00000000000E+00 -0.00000000000E+00 -0.16702868377E+03  0.16702868377E+03  0.00000000000E+00 0. -1.
          6    2    1    2  501    0  0.52692655723E+02 -0.51167971287E+02  0.15940276234E+03  0.24864430779E+03  0.17612516545E+03 0.  0.
         24    2    3    3    0    0  0.86901541658E+02 -0.38153703562E+02  0.55271116665E+02  0.13816757417E+03  0.83831969895E+02 0.  0.
         -6    2    1    2    0  502 -0.52692655723E+02  0.51167971287E+02 -0.52362421816E+02  0.19245340026E+03  0.17000532580E+03 0.  0.
        -24    2    5    5    0    0  0.18071042591E+02  0.50043038241E+02 -0.60756340500E+02  0.12102991432E+03  0.90144544996E+02 0.  0.
          5    1    3    3  501    0 -0.34208885935E+02 -0.13014267725E+02  0.10413164567E+03  0.11047673362E+03  0.47000000000E+01 0. -1.
        -13    1    4    4    0    0  0.43179674413E+02  0.11250298290E+02 -0.96018959153E+01  0.45642632475E+02  0.00000000000E+00 0.  1.
         14    1    4    4    0    0  0.43721867245E+02 -0.49404001853E+02  0.64873012581E+02  0.92524941695E+02  0.00000000000E+00 0. -1.
         -5    1    5    5    0  502 -0.70763698315E+02  0.11249330465E+01  0.83939186833E+01  0.71423485944E+02  0.47000000000E+01 0.  1.
         11    1    6    6    0    0  0.27961400063E+02  0.35549521437E+02 -0.81897074607E+02  0.93556075148E+02  0.00000000000E+00 0. -1.
        -12    1    6    6    0    0 -0.98903574714E+01  0.14493516804E+02  0.21140734107E+02  0.27473839172E+02  0.00000000000E+00 0.  1.
</event>
<event>
12    1  0.1035051E+000  0.1807821E+03  0.7818608E-02  0.1167113E+00
         21   -1    0    0  501  502  0.00000000000E+00  0.00000000000E+00  0.59716551598E+03  0.59716551598E+03  0.00000000000E+00 0. -1.
         21   -1    0    0  502  503 -0.00000000000E+00 -0.00000000000E+00 -0.61370210759E+02  0.61370210759E+02  0.00000000000E+00 0. -1.
         -6    2    1    2    0  503  0.47476264271E+02  0.25616329851E+02  0.37705527956E+03  0.41815408944E+03  0.17254554948E+03 0.  0.
        -24    2    3    3    0    0 -0.98102573702E+01 -0.89941903800E+01  0.78512094759E+02  0.11216429081E+03  0.78990774775E+02 0.  0.
          6    2    1    2  501    0 -0.47476264271E+02 -0.25616329851E+02  0.15874002567E+03  0.24038163730E+03  0.17226358809E+03 0.  0.
         24    2    5    5    0    0 -0.63278825821E+02 -0.83010910395E+01  0.25507677523E+02  0.10502105575E+03  0.79408202529E+02 0.  0.
          5    1    5    5  501    0  0.15802561550E+02 -0.17315238811E+02  0.13323234814E+03  0.13536058155E+03  0.47000000000E+01 0. -1.
        -13    1    6    6    0    0 -0.61681310928E+02  0.25751437464E+02  0.23573811661E+02  0.70876267153E+02  0.00000000000E+00 0.  1.
         14    1    6    6    0    0 -0.15975148926E+01 -0.34052528503E+02  0.19338658616E+01  0.34144788599E+02  0.00000000000E+00 0. -1.
         -5    1    3    3    0  503  0.57286521641E+02  0.34610520231E+02  0.29854318480E+03  0.30598979863E+03  0.47000000000E+01 0.  1.
         13    1    4    4    0    0 -0.34704783714E+02 -0.30964449929E+02  0.51202542292E+02  0.69173112617E+02  0.00000000000E+00 0. -1.
        -14    1    4    4    0    0  0.24894526344E+02  0.21970259549E+02  0.27309552467E+02  0.42991178194E+02  0.00000000000E+00 0.  1.
</event>
<event>
12    1  0.1035051E+000  0.1865379E+03  0.7818608E-02  0.1162389E+00
         21   -1    0    0  503  502  0.00000000000E+00  0.00000000000E+00  0.39754237228E+02  0.39754237228E+02  0.00000000000E+00 0.  1.
         21   -1    0    0  501  503 -0.00000000000E+00 -0.00000000000E+00 -0.88102611807E+03  0.88102611807E+03  0.00000000000E+00 0.  1.
          6    2    1    2  501    0  0.51639175564E+02 -0.10285886467E+02 -0.35302064664E+03  0.39927429087E+03  0.17895244756E+03 0.  0.
         24    2    3    3    0    0  0.68744316335E+02  0.22659922873E+02 -0.34487286507E+03  0.36097953224E+03  0.78292250602E+02 0.  0.
         -6    2    1    2    0  502 -0.51639175564E+02  0.10285886467E+02 -0.48825123420E+03  0.52150606442E+03  0.17551895515E+03 0.  0.
        -24    2    5    5    0    0  0.30726409585E+02  0.16986520717E+02 -0.35438185262E+03  0.36411454800E+03  0.75896327108E+02 0.  0.
          5    1    3    3  501    0 -0.17105140772E+02 -0.32945809340E+02 -0.81477815661E+01  0.38294758628E+02  0.47000000000E+01 0. -1.
        -11    1    4    4    0    0 -0.12215585743E+01  0.29857691264E+02 -0.16796441856E+03  0.17060193385E+03  0.00000000000E+00 0.  1.
         12    1    4    4    0    0  0.69965874910E+02 -0.71977683908E+01 -0.17690844651E+03  0.19037759839E+03  0.00000000000E+00 0. -1.
         -5    1    5    5    0  502 -0.82365585149E+02 -0.67006342504E+01 -0.13386938159E+03  0.15739151643E+03  0.47000000000E+01 0.  1.
         11    1    6    6    0    0  0.45412328795E+01  0.21670316808E+02 -0.31940563145E+03  0.32017211439E+03  0.00000000000E+00 0. -1.
        -12    1    6    6    0    0  0.26185176706E+02 -0.46837960912E+01 -0.34976221164E+02  0.43942433613E+02  0.00000000000E+00 0.  1.
</event>
<event>
12    1  0.1035051E+000  0.2327479E+03  0.7818608E-02  0.1125488E+00
         21   -1    0    0  501  502  0.00000000000E+00  0.00000000000E+00  0.20484988707E+03  0.20484988707E+03  0.00000000000E+00 0. -1.
         21   -1    0    0  502  503 -0.00000000000E+00 -0.00000000000E+00 -0.28940835232E+03  0.28940835232E+03  0.00000000000E+00 0. -1.
         -6    2    1    2    0  503  0.13834341752E+03  0.69014007748E+02  0.37544033738E+02  0.23142632996E+03  0.16806771639E+03 0.  0.
        -24    2    3    3    0    0  0.13642450078E+03  0.65883304430E+02 -0.21779264384E+02  0.17180395794E+03  0.78038512246E+02 0.  0.
          6    2    1    2  501    0 -0.13834341752E+03 -0.69014007748E+02 -0.12210249898E+03  0.26283190943E+03  0.17398206206E+03 0.  0.
         24    2    5    5    0    0 -0.70953696455E+02 -0.10485599042E+03 -0.10818652230E+03  0.18510310760E+03  0.80806132605E+02 0.  0.
          5    1    5    5  501    0 -0.67389721068E+02  0.35841982669E+02 -0.13915976678E+02  0.77728801832E+02  0.47000000000E+01 0. -1.
        -13    1    6    6    0    0 -0.88107835379E+02 -0.77869236758E+02 -0.91765009192E+02  0.14915570925E+03  0.00000000000E+00 0.  1.
         14    1    6    6    0    0  0.17154138924E+02 -0.26986753659E+02 -0.16421513111E+02  0.35947398350E+02  0.00000000000E+00 0. -1.
         -5    1    3    3    0  503  0.19189167477E+01  0.31307033180E+01  0.59323298122E+02  0.59622372016E+02  0.47000000000E+01 0.  1.
         13    1    4    4    0    0  0.65719333487E+02  0.38031704784E+02 -0.49805498811E+02  0.90807648767E+02  0.00000000000E+00 0. -1.
        -14    1    4    4    0    0  0.70705167289E+02  0.27851599646E+02  0.28026234427E+02  0.80996309178E+02  0.00000000000E+00 0.  1.
</event>
<event>
12    1  0.1035051E+000  0.1841052E+03  0.7818608E-02  0.1164477E+00
         21   -1    0    0  503  502  0.00000000000E+00  0.00000000000E+00  0.54159342788E+03  0.54159342788E+03  0.00000000000E+00 0.  1.
         21   -1    0    0  501  503 -0.00000000000E+00 -0.00000000000E+00 -0.62802012575E+02  0.62802012575E+02  0.00000000000E+00 0.  1.
          6    2    1    2  501    0  0.61204923630E+02  0.10191178896E+02  0.27709420920E+03  0.33130851027E+03  0.17068750804E+03 0.  0.
         24    2    3    3    0    0  0.52937112693E+02 -0.47799814295E+02  0.10719708385E+03  0.15153522196E+03  0.79903370147E+02 0.  0.
         -6    2    1    2    0  502 -0.61204923630E+02 -0.10191178896E+02  0.20169720610E+03  0.27308693018E+03  0.17333437537E+03 0.  0.
        -24    2    5    5    0    0 -0.72168430552E+02 -0.15302641524E+02  0.22286786313E+03  0.24825525176E+03  0.80734951577E+02 0.  0.
          5    1    3    3  501    0  0.82678109366E+01  0.57990993192E+02  0.16989712534E+03  0.17977328831E+03  0.47000000000E+01 0. -1.
        -11    1    4    4    0    0  0.35721318619E+02 -0.16947613944E+02  0.10921075226E+03  0.11614741767E+03  0.00000000000E+00 0.  1.
         12    1    4    4    0    0  0.17215794074E+02 -0.30852200351E+02 -0.20136684047E+01  0.35387804291E+02  0.00000000000E+00 0. -1.
         -5    1    5    5    0  502  0.10963506923E+02  0.51114626273E+01 -0.21170657026E+02  0.24831678420E+02  0.47000000000E+01 0.  1.
         13    1    6    6    0    0 -0.58659546636E+02 -0.45434742347E+02  0.17523090852E+03  0.19029222140E+03  0.00000000000E+00 0. -1.
        -14    1    6    6    0    0 -0.13508883916E+02  0.30132100823E+02  0.47636954609E+02  0.57963030365E+02  0.00000000000E+00 0.  1.
</event>
<event>
12    1  0.1035051E+000  0.2123438E+03  0.7818608E-02  0.1139944E+00
         21   -1    0    0  501  502  0.00000000000E+00  0.00000000000E+00  0.84951878124E+02  0.84951878124E+02  0.00000000000E+00 0. -1.
         21   -1    0    0  502  503 -0.00000000000E+00 -0.00000000000E+00 -0.76326998101E+03  0.76326998101E+03  0.00000000000E+00 0. -1.
         -6    2    1    2    0  503  0.94569477327E+02  0.79327677032E+02 -0.10304808176E+03  0.23501269098E+03  0.17139367370E+03 0.  0.
        -24    2    3    3    0    0  0.10582161822E+03  0.53204923412E+02 -0.16073891447E+02  0.14338513666E+03  0.79195635421E+02 0.  0.
          6    2    1    2  501    0 -0.94569477327E+02 -0.79327677032E+02 -0.57527002113E+03  0.61320916815E+03  0.17278200228E+03 0.  0.
         24    2    5    5    0    0 -0.12252065166E+03 -0.44382008536E+02 -0.31998925865E+03  0.35399337854E+03  0.77052667929E+02 0.  0.
          5    1    5    5  501    0  0.27951174331E+02 -0.34945668496E+02 -0.25528076248E+03  0.25921578961E+03  0.47000000000E+01 0. -1.
        -13    1    6    6    0    0 -0.10721645153E+03 -0.49167953723E+02 -0.31624643304E+03  0.33752727529E+03  0.00000000000E+00 0.  1.
         14    1    6    6    0    0 -0.15304200125E+02  0.47859451870E+01 -0.37428256102E+01  0.16466103253E+02  0.00000000000E+00 0. -1.
         -5    1    3    3    0  503 -0.11252140893E+02  0.26122753620E+02 -0.86974190312E+02  0.91627554326E+02  0.47000000000E+01 0.  1.
         13    1    4    4    0    0  0.71273527471E+02 -0.40809152695E+01 -0.25540533154E+02  0.75821424554E+02  0.00000000000E+00 0. -1.
        -14    1    4    4    0    0  0.34548090748E+02  0.57285838681E+02  0.94666417074E+01  0.67563712102E+02  0.00000000000E+00 0.  1.
</event>
<event>
12    1  0.1035051E+000  0.2014429E+03  0.7818608E-02  0.1148589E+00
         21   -1    0    0  501  502  0.00000000000E+00  0.00000000000E+00  0.15205515702E+03  0.15205515702E+03  0.00000000000E+00 0. -1.
         21   -1    0    0  502  503 -0.00000000000E+00 -0.00000000000E+00 -0.33491542299E+03  0.33491542299E+03  0.00000000000E+00 0. -1.
         -6    2    1    2    0  503  0.95078538800E+02 -0.44723782457E+02  0.18579504095E+02  0.20229789681E+03  0.17186941504E+03 0.  0.
        -24    2    3    3    0    0  0.66780873368E+01 -0.22016677592E+01  0.55114343207E+02  0.97514050128E+02  0.80137100982E+02 0.  0.
          6    2    1    2  501    0 -0.95078538800E+02  0.44723782457E+02 -0.20143977007E+03  0.28467268320E+03  0.17152378942E+03 0.  0.
         24    2    5    5    0    0 -0.10966974555E+03 -0.63464055026E+01 -0.18470496443E+03  0.22878698617E+03  0.78484592151E+02 0.  0.
          5    1    5    5  501    0  0.14591206745E+02  0.51070187960E+02 -0.16734805633E+02  0.55885697026E+02  0.47000000000E+01 0. -1.
        -11    1    6    6    0    0 -0.45523023982E+02 -0.38499460800E+02 -0.11053699001E+03  0.12559052653E+03  0.00000000000E+00 0.  1.
         12    1    6    6    0    0 -0.64146721563E+02  0.32153055298E+02 -0.74167974427E+02  0.10319645964E+03  0.00000000000E+00 0. -1.
         -5    1    3    3    0  503  0.88400451464E+02 -0.42522114698E+02 -0.36534839112E+02  0.10478384669E+03  0.47000000000E+01 0.  1.
         13    1    4    4    0    0 -0.99577507294E+01 -0.30791611678E+02 -0.99879246181E+00  0.32377117470E+02  0.00000000000E+00 0. -1.
        -14    1    4    4    0    0  0.16635838066E+02  0.28589943919E+02  0.56113135669E+02  0.65136932657E+02  0.00000000000E+00 0.  1.
</event>
<event>
12    1  0.1035051E+000  0.2742603E+03  0.7818608E-02  0.1098910E+00
         21   -1    0    0  501  502  0.00000000000E+00  0.00000000000E+00  0.27785522975E+03  0.27785522975E+03  0.00000000000E+00 0. -1.
         21   -1    0    0  502  503 -0.00000000000E+00 -0.00000000000E+00 -0.27188242224E+03  0.27188242224E+03  0.00000000000E+00 0. -1.
         -6    2    1    2    0  503  0.20886514554E+03  0.43027242877E+02  0.23289857313E+02  0.27493114613E+03  0.17195559021E+03 0.  0.
        -24    2    3    3    0    0  0.36958984897E+02  0.18033647155E+00 -0.24302724611E+02  0.91424390639E+02  0.80011234801E+02 0.  0.
          6    2    1    2  501    0 -0.20886514554E+03 -0.43027242877E+02 -0.17317049810E+02  0.27480650586E+03  0.17246084424E+03 0.  0.
         24    2    5    5    0    0 -0.21086262075E+03 -0.47137546394E+02 -0.54817154414E+02  0.23673772144E+03  0.79717220369E+02 0.  0.
          5    1    5    5  501    0  0.19974752085E+01  0.41103035168E+01  0.37500104604E+02  0.38068784424E+02  0.47000000000E+01 0. -1.
        -13    1    6    6    0    0 -0.54866421524E+02 -0.21024840511E+02  0.19599009724E+02  0.61939400316E+02  0.00000000000E+00 0.  1.
         14    1    6    6    0    0 -0.15599619923E+03 -0.26112705883E+02 -0.74416164138E+02  0.17479832112E+03  0.00000000000E+00 0. -1.
         -5    1    3    3    0  503  0.17190616064E+03  0.42846906405E+02  0.47592581923E+02  0.18350675549E+03  0.47000000000E+01 0.  1.
         11    1    4    4    0    0  0.36124516706E+02 -0.30427468149E+02  0.68707906001E+01  0.47728600322E+02  0.00000000000E+00 0. -1.
        -12    1    4    4    0    0  0.83446819098E+00  0.30607804620E+02 -0.31173515211E+02  0.43695790317E+02  0.00000000000E+00 0.  1.
</event>
<event>
12    1  0.1035051E+000  0.2336419E+03  0.7818608E-02  0.1124112E+00
         21   -1    0    0  503  502  0.00000000000E+00  0.00000000000E+00  0.93417412306E+03  0.93417412306E+03  0.00000000000E+00 0.  1.
         21   -1    0    0  501  503 -0.00000000000E+00 -0.00000000000E+00 -0.92179481316E+02  0.92179481316E+02  0.00000000000E+00 0.  1.
          6    2    1    2  501    0  0.27929073144E+02  0.15533516293E+03  0.73158757948E+03  0.76799018541E+03  0.17227737074E+03 0.  0.
         24    2    3    3    0    0  0.44345927421E+02  0.16765421243E+03  0.71774337087E+03  0.74279049896E+03  0.80670209516E+02 0.  0.
         -6    2    1    2    0  502 -0.27929073144E+02 -0.15533516293E+03  0.11040706226E+03  0.25836341896E+03  0.17220014778E+03 0.  0.
        -24    2    5    5    0    0 -0.74467368259E+02 -0.88334931037E+02  0.10750505699E+03  0.17659939497E+03  0.79256293429E+02 0.  0.
          5    1    3    3  501    0 -0.16416854277E+02 -0.12319049500E+02  0.13844208616E+02  0.25199686450E+02  0.47000000000E+01 0. -1.
        -13    1    4    4    0    0  0.59316813982E+02  0.96898141617E+02  0.34917203382E+03  0.36719047301E+03  0.00000000000E+00 0.  1.
         14    1    4    4    0    0 -0.14970886561E+02  0.70756070809E+02  0.36857133705E+03  0.37560002595E+03  0.00000000000E+00 0. -1.
         -5    1    5    5    0  502  0.46538295115E+02 -0.67000231889E+02  0.29020052724E+01  0.81764023996E+02  0.47000000000E+01 0.  1.
         11    1    6    6    0    0 -0.38990617542E+02 -0.76780940950E+02  0.31075994486E+02  0.91549432455E+02  0.00000000000E+00 0. -1.
        -12    1    6    6    0    0 -0.35476750717E+02 -0.11553990087E+02  0.76429062504E+02  0.85049962514E+02  0.00000000000E+00 0.  1.
</event>
<event>
12    1  0.1035051E+000  0.2640668E+03  0.7818608E-02  0.1104892E+00
         21   -1    0    0  503  502  0.00000000000E+00  0.00000000000E+00  0.66859705713E+03  0.66859705713E+03  0.00000000000E+00 0.  1.
         21   -1    0    0  501  503 -0.00000000000E+00 -0.00000000000E+00 -0.10405783140E+03  0.10405783140E+03  0.00000000000E+00 0.  1.
          6    2    1    2  501    0  0.19824621034E+03 -0.26532149088E+02  0.30025394771E+03  0.39985461365E+03  0.17241161240E+03 0.  0.
         24    2    3    3    0    0  0.21007974076E+03 -0.42706157405E+02  0.22070504461E+03  0.31768558681E+03  0.79095524475E+02 0.  0.
         -6    2    1    2    0  502 -0.19824621034E+03  0.26532149088E+02  0.26428527803E+03  0.37280027488E+03  0.17066874910E+03 0.  0.
        -24    2    5    5    0    0 -0.12941680595E+03  0.32649189251E+02  0.26098475901E+03  0.30346133550E+03  0.78492410380E+02 0.  0.
          5    1    3    3  501    0 -0.11833530422E+02  0.16174008316E+02  0.79548903095E+02  0.82169026834E+02  0.47000000000E+01 0. -1.
        -13    1    4    4    0    0  0.77097778133E+00 -0.72383053835E+01  0.34633137556E+02  0.35389852903E+02  0.00000000000E+00 0.  1.
         14    1    4    4    0    0  0.20930876298E+03 -0.35467852021E+02  0.18607190706E+03  0.28229573391E+03  0.00000000000E+00 0. -1.
         -5    1    5    5    0  502 -0.68829404389E+02 -0.61170401631E+01  0.33005190204E+01  0.69338939382E+02  0.47000000000E+01 0.  1.
         11    1    6    6    0    0 -0.60857997309E+02 -0.96799181230E+01  0.56223016130E+02  0.83417169660E+02  0.00000000000E+00 0. -1.
        -12    1    6    6    0    0 -0.68558808642E+02  0.42329107374E+02  0.20476174288E+03  0.22004416584E+03  0.00000000000E+00 0.  1.
</event>
<event>
12    1  0.1035051E+000  0.2217078E+03  0.7818608E-02  0.1133070E+00
         21   -1    0    0  501  502  0.00000000000E+00  0.00000000000E+00  0.14786048524E+03  0.14786048524E+03  0.00000000000E+00 0.  1.
         21   -1    0    0  502  503 -0.00000000000E+00 -0.00000000000E+00 -0.39157993799E+03  0.39157993799E+03  0.00000000000E+00 0.  1.
         -6    2    1    2    0  503  0.12873588164E+03 -0.31132892709E+02 -0.23044252796E+03  0.31977823327E+03  0.17779813146E+03 0.  0.
        -24    2    3    3    0    0  0.14749005329E+03  0.16886141273E+02 -0.18724788172E+03  0.25235854739E+03  0.81145607696E+02 0.  0.
          6    2    1    2  501    0 -0.12873588164E+03  0.31132892709E+02 -0.13276924789E+02  0.21966218996E+03  0.17473699304E+03 0.  0.
         24    2    5    5    0    0 -0.12107840363E+02  0.62823097729E+01  0.25605381889E+02  0.94148942624E+02  0.89567408141E+02 0.  0.
          5    1    5    5  501    0 -0.11662804128E+03  0.24850582937E+02 -0.38882306678E+02  0.12551324734E+03  0.47000000000E+01 0. -1.
        -13    1    6    6    0    0 -0.13273685742E+02  0.14415621599E+02 -0.31150417654E+02  0.36801486373E+02  0.00000000000E+00 0.  1.
         14    1    6    6    0    0  0.11658453783E+01 -0.81333118256E+01  0.56755799543E+02  0.57347456251E+02  0.00000000000E+00 0. -1.
         -5    1    3    3    0  503 -0.18754171654E+02 -0.48019033982E+02 -0.43194646241E+02  0.67419685871E+02  0.47000000000E+01 0.  1.
         13    1    4    4    0    0  0.25492130641E+02  0.36500970742E+02 -0.62851516326E+02  0.77022611578E+02  0.00000000000E+00 0. -1.
        -14    1    4    4    0    0  0.12199792265E+03 -0.19614829469E+02 -0.12439636539E+03  0.17533593582E+03  0.00000000000E+00 0.  1.
</event>
<event>
12    1  0.1035051E+000  0.1760824E+03  0.7818608E-02  0.1171851E+00
         21   -1    0    0  503  502  0.00000000000E+00  0.00000000000E+00  0.77526998178E+02  0.77526998178E+02  0.00000000000E+00 0. -1.
         21   -1    0    0  501  503 -0.00000000000E+00 -0.00000000000E+00 -0.39843819667E+03  0.39843819667E+03  0.00000000000E+00 0. -1.
          6    2    1    2  501    0 -0.37553820677E+02 -0.62324663508E+01 -0.16782901749E+03  0.24325207822E+03  0.17191818218E+03 0.  0.
         24    2    3    3    0    0 -0.33331669738E+02 -0.55982198019E+02 -0.47915233912E+02  0.11327412682E+03  0.79310475115E+02 0.  0.
         -6    2    1    2    0  502  0.37553820677E+02  0.62324663508E+01 -0.15308218100E+03  0.23271311662E+03  0.17109093320E+03 0.  0.
        -24    2    5    5    0    0 -0.33599474040E+02  0.12790083841E+01 -0.32792648726E+02  0.92788173637E+02  0.80023289349E+02 0.  0.
          5    1    3    3  501    0 -0.42221509388E+01  0.49749731668E+02 -0.11991378358E+03  0.12997795141E+03  0.47000000000E+01 0. -1.
        -13    1    4    4    0    0 -0.50773482027E+02 -0.51001029079E+02 -0.58081984343E+02  0.92480097045E+02  0.00000000000E+00 0.  1.
         14    1    4    4    0    0  0.17441812288E+02 -0.49811689396E+01  0.10166750431E+02  0.20794029773E+02  0.00000000000E+00 0. -1.
         -5    1    5    5    0  502  0.71153294717E+02  0.49534579668E+01 -0.12028953227E+03  0.13992494298E+03  0.47000000000E+01 0.  1.
         11    1    6    6    0    0  0.37366778317E+01 -0.10831071668E+02 -0.49000692380E+02  0.50322387944E+02  0.00000000000E+00 0. -1.
        -12    1    6    6    0    0 -0.37336151872E+02  0.12110080052E+02  0.16208043654E+02  0.42465785693E+02  0.00000000000E+00 0.  1.
</event>
<event>
12    1  0.1035051E+000  0.5286601E+03  0.7818608E-02  0.1006589E+00
         21   -1    0    0  501  502  0.00000000000E+00  0.00000000000E+00  0.75783187216E+03  0.75783187216E+03  0.00000000000E+00 0. -1.
         21   -1    0    0  502  503 -0.00000000000E+00 -0.00000000000E+00 -0.37376175658E+03  0.37376175658E+03  0.00000000000E+00 0.  1.
         -6    2    1    2    0  503 -0.27328870350E+03 -0.41879968212E+03  0.12454002615E+03  0.54313139779E+03  0.17146897081E+03 0.  0.
        -24    2    3    3    0    0 -0.22982500524E+03 -0.29190631327E+03  0.34309767729E+02  0.38140752924E+03  0.79156265957E+02 0.  0.
          6    2    1    2  501    0  0.27328870350E+03  0.41879968212E+03  0.25953008942E+03  0.58846223095E+03  0.16985888476E+03 0.  0.
         24    2    5    5    0    0  0.26377201182E+03  0.39013331990E+03  0.27818035718E+03  0.55265370918E+03  0.79133618916E+02 0.  0.
          5    1    5    5  501    0  0.95166916855E+01  0.28666362222E+02 -0.18650267755E+02  0.35808521765E+02  0.47000000000E+01 0. -1.
        -11    1    6    6    0    0  0.18953829339E+03  0.33559025737E+03  0.22364173715E+03  0.44560207820E+03  0.00000000000E+00 0.  1.
         12    1    6    6    0    0  0.74233718422E+02  0.54543062525E+02  0.54538620033E+02  0.10705163098E+03  0.00000000000E+00 0. -1.
         -5    1    3    3    0  503 -0.43463698261E+02 -0.12689336885E+03  0.90230258420E+02  0.16172386855E+03  0.47000000000E+01 0.  1.
         11    1    4    4    0    0 -0.20227027182E+03 -0.28798166705E+03  0.29395159669E+02  0.35314413323E+03  0.00000000000E+00 0. -1.
        -12    1    4    4    0    0 -0.27554733425E+02 -0.39246462169E+01  0.49146080604E+01  0.28263396017E+02  0.00000000000E+00 0.  1.
</event>
<event>
12    1  0.1035051E+000  0.2661875E+03  0.7818608E-02  0.1103732E+00
         21   -1    0    0  501  502  0.00000000000E+00  0.00000000000E+00  0.77881996514E+03  0.77881996514E+03  0.00000000000E+00 0. -1.
         21   -1    0    0  502  503 -0.00000000000E+00 -0.00000000000E+00 -0.94528407645E+02  0.94528407645E+02  0.00000000000E+00 0. -1.
         -6    2    1    2    0  503 -0.20044626397E+03 -0.11208373744E+02  0.24977499002E+03  0.36377950535E+03  0.17217331526E+03 0.  0.
        -24    2    3    3    0    0 -0.10543297734E+03 -0.65860564529E+02  0.18316223157E+03  0.23542945205E+03  0.80155456123E+02 0.  0.
          6    2    1    2  501    0  0.20044626397E+03  0.11208373744E+02  0.43451656748E+03  0.50956886744E+03  0.17478973330E+03 0.  0.
         24    2    5    5    0    0  0.12742750582E+03  0.59776283944E+02  0.35937625685E+03  0.39398886387E+03  0.79151484538E+02 0.  0.
          5    1    5    5  501    0  0.73018758157E+02 -0.48567910199E+02  0.75140310634E+02  0.11558000357E+03  0.47000000000E+01 0. -1.
        -11    1    6    6    0    0  0.22615252622E+02 -0.74293920050E+01  0.15858169381E+02  0.28602920355E+02  0.00000000000E+00 0.  1.
         12    1    6    6    0    0  0.10481225319E+03  0.67205675949E+02  0.34351808747E+03  0.36538594351E+03  0.00000000000E+00 0. -1.
         -5    1    3    3    0  503 -0.95013286630E+02  0.54652190785E+02  0.66612758446E+02  0.12835005330E+03  0.47000000000E+01 0.  1.
         11    1    4    4    0    0 -0.10102475572E+03 -0.81927271380E+02  0.15169252794E+03  0.19982167575E+03  0.00000000000E+00 0. -1.
        -12    1    4    4    0    0 -0.44082216252E+01  0.16066706851E+02  0.31469703624E+02  0.35607776301E+02  0.00000000000E+00 0.  1.
</event>
<event>
12    1  0.1035051E+000  0.1755419E+03  0.7818608E-02  0.1172227E+00
         21   -1    0    0  501  502  0.00000000000E+00  0.00000000000E+00  0.24116247394E+04  0.24116247394E+04  0.00000000000E+00 0.  1.
         21   -1    0    0  502  503 -0.00000000000E+00 -0.00000000000E+00 -0.14968873725E+02  0.14968873725E+02  0.00000000000E+00 0.  1.
         -6    2    1    2    0  503 -0.16837744897E+02  0.35532452651E+02  0.16641812188E+04  0.16734139054E+04  0.17108157333E+03 0.  0.
        -24    2    3    3    0    0 -0.60447049209E+02 -0.65983328892E+01  0.68117685687E+03  0.68852993243E+03  0.79838422876E+02 0.  0.
          6    2    1    2  501    0  0.16837744897E+02 -0.35532452651E+02  0.73247464689E+03  0.75317970780E+03  0.17092249431E+03 0.  0.
         24    2    5    5    0    0 -0.49821019780E+02  0.50460575272E+01  0.35807200939E+03  0.37070169358E+03  0.81832664654E+02 0.  0.
          5    1    5    5  501    0  0.66658764677E+02 -0.40578510178E+02  0.37440263750E+03  0.38247801422E+03  0.47000000000E+01 0. -1.
        -11    1    6    6    0    0  0.14574764189E+02  0.16629318904E+02  0.37612532106E+02  0.43630958846E+02  0.00000000000E+00 0.  1.
         12    1    6    6    0    0 -0.64395783969E+02 -0.11583261376E+02  0.32045947729E+03  0.32707073473E+03  0.00000000000E+00 0. -1.
         -5    1    3    3    0  503  0.43609304312E+02  0.42130785540E+02  0.98300436196E+03  0.98488397294E+03  0.47000000000E+01 0.  1.
         13    1    4    4    0    0  0.15566635123E+01 -0.72140292056E+01  0.37628926005E+01  0.82840074477E+01  0.00000000000E+00 0. -1.
        -14    1    4    4    0    0 -0.62003712721E+02  0.61569631640E+00  0.67741396427E+03  0.68024592498E+03  0.00000000000E+00 0.  1.
</event>
<event>
12    1  0.1035051E+000  0.2785184E+03  0.7818608E-02  0.1097192E+00
         21   -1    0    0  501  502  0.00000000000E+00  0.00000000000E+00  0.72350690584E+03  0.72350690584E+03  0.00000000000E+00 0. -1.
         21   -1    0    0  502  503 -0.00000000000E+00 -0.00000000000E+00 -0.11646848772E+03  0.11646848772E+03  0.00000000000E+00 0. -1.
         -6    2    1    2    0  503  0.13765440131E+03  0.16928124161E+03  0.17600308209E+03  0.32946861839E+03  0.17311156125E+03 0.  0.
        -24    2    3    3    0    0  0.69291755478E+02  0.15684355336E+03  0.17519632122E+03  0.25982029969E+03  0.86090589246E+02 0.  0.
          6    2    1    2  501    0 -0.13765440131E+03 -0.16928124161E+03  0.43103533602E+03  0.51050677517E+03  0.16498737417E+03 0.  0.
         24    2    5    5    0    0 -0.48825094456E+02 -0.17970500305E+02  0.15746188977E+03  0.18546815180E+03  0.83050345404E+02 0.  0.
          5    1    5    5  501    0 -0.88829306854E+02 -0.15131074130E+03  0.27357344625E+03  0.32503862337E+03  0.47000000000E+01 0. -1.
        -11    1    6    6    0    0 -0.13500933413E+02 -0.35375877716E+02  0.20707856071E+02  0.43157192104E+02  0.00000000000E+00 0.  1.
         12    1    6    6    0    0 -0.35324161043E+02  0.17405377411E+02  0.13675403370E+03  0.14231095970E+03  0.00000000000E+00 0. -1.
         -5    1    3    3    0  503  0.68362645832E+02  0.12437688247E+02  0.80676087583E+00  0.69648318696E+02  0.47000000000E+01 0.  1.
         11    1    4    4    0    0  0.46800069410E+02  0.18529325858E+02  0.60748700481E+02  0.78892249452E+02  0.00000000000E+00 0. -1.
        -12    1    4    4    0    0  0.22491686068E+02  0.13831422750E+03  0.11444762074E+03  0.18092805024E+03  0.00000000000E+00 0.  1.
</event>
<event>
12    1  0.1035051E+000  0.1731403E+03  0.7818608E-02  0.1174896E+00
         21   -1    0    0  501  502  0.00000000000E+00  0.00000000000E+00  0.82585211994E+02  0.82585211994E+02  0.00000000000E+00 0.  1.
         21   -1    0    0  502  503 -0.00000000000E+00 -0.00000000000E+00 -0.52096457803E+03  0.52096457803E+03  0.00000000000E+00 0.  1.
         -6    2    1    2    0  503 -0.10071274381E+02 -0.83234736683E+01 -0.38707597582E+03  0.42403464736E+03  0.17264663427E+03 0.  0.
        -24    2    3    3    0    0  0.91314834192E+01  0.45819261568E+02 -0.33224042059E+03  0.34447831635E+03  0.78094971950E+02 0.  0.
          6    2    1    2  501    0  0.10071274381E+02  0.83234736683E+01 -0.51303390223E+02  0.17951514267E+03  0.17153115699E+03 0.  0.
         24    2    5    5    0    0  0.23018882449E+02 -0.56186922520E+02 -0.56125043377E+02  0.11337460964E+03  0.77568952581E+02 0.  0.
          5    1    5    5  501    0 -0.12947608068E+02  0.64510396188E+02  0.48216531542E+01  0.66140533035E+02  0.47000000000E+01 0. -1.
        -13    1    6    6    0    0 -0.26047243835E+02 -0.29516563864E+02 -0.91896182598E+01  0.40424442327E+02  0.00000000000E+00 0.  1.
         14    1    6    6    0    0  0.49066126284E+02 -0.26670358656E+02 -0.46935425117E+02  0.72950167308E+02  0.00000000000E+00 0. -1.
         -5    1    3    3    0  503 -0.19202757800E+02 -0.54142735236E+02 -0.54835555232E+02  0.79556331009E+02  0.47000000000E+01 0.  1.
         13    1    4    4    0    0 -0.92402019139E+01  0.25305717249E+01 -0.68537377707E+00  0.96049394522E+01  0.00000000000E+00 0. -1.
        -14    1    4    4    0    0  0.18371685333E+02  0.43288689843E+02 -0.33155504681E+03  0.33487337690E+03  0.00000000000E+00 0.  1.
</event>
<event>
12    1  0.1035051E+000  0.2045264E+03  0.7818608E-02  0.1146003E+00
         21   -1    0    0  503  502  0.00000000000E+00  0.00000000000E+00  0.22170710399E+03  0.22170710399E+03  0.00000000000E+00 0.  1.
         21   -1    0    0  501  503 -0.00000000000E+00 -0.00000000000E+00 -0.20649764384E+03  0.20649764384E+03  0.00000000000E+00 0.  1.
          6    2    1    2  501    0 -0.27748888759E+02 -0.10540972551E+03  0.70724148835E+02  0.21640926868E+03  0.17306026489E+03 0.  0.
         24    2    3    3    0    0  0.21229617843E+01 -0.91303348843E+02  0.10833568028E+03  0.16612970409E+03  0.86727449409E+02 0.  0.
         -6    2    1    2    0  502  0.27748888759E+02  0.10540972551E+03 -0.55514688688E+02  0.21179547916E+03  0.17289948893E+03 0.  0.
        -24    2    5    5    0    0  0.67479436606E+02  0.66838050767E+02  0.11781573266E+02  0.12451909405E+03  0.79658018555E+02 0.  0.
          5    1    3    3  501    0 -0.29871850543E+02 -0.14106376664E+02 -0.37611531450E+02  0.50279564590E+02  0.47000000000E+01 0. -1.
        -13    1    4    4    0    0 -0.29499186400E+02 -0.34756739129E+01  0.42707771233E+02  0.52021495856E+02  0.00000000000E+00 0.  1.
         14    1    4    4    0    0  0.31622148184E+02 -0.87827674930E+02  0.65627909051E+02  0.11410820823E+03  0.00000000000E+00 0. -1.
         -5    1    5    5    0  502 -0.39730547847E+02  0.38571674740E+02 -0.67296261953E+02  0.87276385107E+02  0.47000000000E+01 0.  1.
         11    1    6    6    0    0  0.55607750628E+02  0.30856104394E+02 -0.28083980883E+02  0.69520004966E+02  0.00000000000E+00 0. -1.
        -12    1    6    6    0    0  0.11871685978E+02  0.35981946373E+02  0.39865554149E+02  0.54999089086E+02  0.00000000000E+00 0.  1.
</event>
<event>
12    1  0.1035051E+000  0.3860677E+03  0.7818608E-02  0.1048719E+00
         21   -1    0    0  503  502  0.00000000000E+00  0.00000000000E+00  0.36635056419E+03  0.36635056419E+03  0.00000000000E+00 0.  1.
         21   -1    0    0  501  503 -0.00000000000E+00 -0.00000000000E+00 -0.41417948141E+03  0.41417948141E+03  0.00000000000E+00 0.  1.
          6    2    1    2  501    0 -0.12923443028E+03  0.32029767087E+03  0.28239222756E+02  0.38709906679E+03  0.17249955905E+03 0.  0.
         24    2    3    3    0    0 -0.56836936968E+02  0.61402398561E+02  0.12617779441E+02  0.11777718028E+03  0.81924134925E+02 0.  0.
         -6    2    1    2    0  502  0.12923443028E+03 -0.32029767087E+03 -0.76068139966E+02  0.39343097881E+03  0.17236425741E+03 0.  0.
        -24    2    5    5    0    0  0.40548037493E+02 -0.24989213456E+03 -0.19477891407E+02  0.26675516406E+03  0.81784515897E+02 0.  0.
          5    1    3    3  501    0 -0.72397493314E+02  0.25889527231E+03  0.15621443314E+02  0.26932188651E+03  0.47000000000E+01 0. -1.
        -13    1    4    4    0    0  0.14605673998E+02  0.21739958608E+02 -0.16586867156E+02  0.31001220545E+02  0.00000000000E+00 0.  1.
         14    1    4    4    0    0 -0.71442610966E+02  0.39662439953E+02  0.29204646598E+02  0.86775959733E+02  0.00000000000E+00 0. -1.
         -5    1    5    5    0  502  0.88686392790E+02 -0.70405536311E+02 -0.56590248559E+02  0.12667581475E+03  0.47000000000E+01 0.  1.
         11    1    6    6    0    0  0.87580299578E+01 -0.20638076014E+03 -0.37482353855E+02  0.20993962965E+03  0.00000000000E+00 0. -1.
        -12    1    6    6    0    0  0.31790007535E+02 -0.43511374417E+02  0.18004462448E+02  0.56815534414E+02  0.00000000000E+00 0.  1.
</event>
<event>
12    1  0.1035051E+000  0.1887539E+03  0.7818608E-02  0.1159786E+00
         21   -1    0    0  503  502  0.00000000000E+00  0.00000000000E+00  0.88782776799E+03  0.88782776799E+03  0.00000000000E+00 0.  1.
         21   -1    0    0  501  503 -0.00000000000E+00 -0.00000000000E+00 -0.58018703014E+02  0.58018703014E+02  0.00000000000E+00 0.  1.
          6    2    1    2  501    0 -0.63062788300E+01 -0.74958204180E+02  0.67949577867E+03  0.70522518618E+03  0.17311715244E+03 0.  0.
         24    2    3    3    0    0 -0.22004971772E+02  0.72038847266E+01  0.18049931826E+03  0.19924434138E+03  0.81130690487E+02 0.  0.
         -6    2    1    2    0  502  0.63062788300E+01  0.74958204180E+02  0.15031328631E+03  0.24062128482E+03  0.17218018801E+03 0.  0.
        -24    2    5    5    0    0  0.32564552821E+02  0.11020575736E+03  0.91870044212E+02  0.16734380189E+03  0.79737594348E+02 0.  0.
          5    1    3    3  501    0  0.15698692943E+02 -0.82162088906E+02  0.49899646041E+03  0.50598084481E+03  0.47000000000E+01 0. -1.
        -11    1    4    4    0    0 -0.19175870791E+02 -0.26857250599E+01  0.93495494190E+00  0.19385594663E+02  0.00000000000E+00 0.  1.
         12    1    4    4    0    0 -0.28291009815E+01  0.98896097865E+01  0.17956436332E+03  0.17985874671E+03  0.00000000000E+00 0. -1.
         -5    1    5    5    0  502 -0.26258273991E+02 -0.35247553179E+02  0.58443242095E+02  0.73277482931E+02  0.47000000000E+01 0.  1.
         13    1    6    6    0    0  0.57183150077E+02  0.55523107091E+02  0.56812133525E+02  0.97879244936E+02  0.00000000000E+00 0. -1.
        -14    1    6    6    0    0 -0.24618597255E+02  0.54682650268E+02  0.35057910687E+02  0.69464556955E+02  0.00000000000E+00 0.  1.
</event>
<event>
12    1  0.1035051E+000  0.1760626E+03  0.7818608E-02  0.1171712E+00
         21   -1    0    0  501  502  0.00000000000E+00  0.00000000000E+00  0.37464211811E+03  0.37464211811E+03  0.00000000000E+00 0. -1.
         21   -1    0    0  502  503 -0.00000000000E+00 -0.00000000000E+00 -0.82809544138E+02  0.82809544138E+02  0.00000000000E+00 0. -1.
         -6    2    1    2    0  503 -0.52725851521E+00  0.36568392700E+02  0.15555794681E+03  0.23481112895E+03  0.17204785996E+03 0.  0.
        -24    2    3    3    0    0 -0.20141106367E+02 -0.43522690993E+02  0.72430501957E+02  0.11762944607E+03  0.79313429964E+02 0.  0.
          6    2    1    2  501    0  0.52725851521E+00 -0.36568392700E+02  0.13627462716E+03  0.22264053329E+03  0.17222226253E+03 0.  0.
         24    2    5    5    0    0  0.55232990476E+01 -0.40723233815E+02  0.16790117505E+03  0.19001306546E+03  0.78900391980E+02 0.  0.
          5    1    5    5  501    0 -0.49960405324E+01  0.41548411151E+01 -0.31626547894E+02  0.32627467836E+02  0.47000000000E+01 0. -1.
        -13    1    6    6    0    0  0.29603433618E+02  0.10893676900E+02  0.50847036379E+02  0.59836916589E+02  0.00000000000E+00 0.  1.
         14    1    6    6    0    0 -0.24080134571E+02 -0.51616910716E+02  0.11705413868E+03  0.13017614887E+03  0.00000000000E+00 0. -1.
         -5    1    3    3    0  503  0.19613847852E+02  0.80091083693E+02  0.83127444851E+02  0.11718168288E+03  0.47000000000E+01 0.  1.
         11    1    4    4    0    0 -0.35496880123E+02  0.34029569616E+01  0.54440729250E+02  0.65079963244E+02  0.00000000000E+00 0. -1.
        -12    1    4    4    0    0  0.15355773756E+02 -0.46925647954E+02  0.17989772707E+02  0.52549482829E+02  0.00000000000E+00 0.  1.
</event>
<event>
12    1  0.1035051E+000  0.2303749E+03  0.7818608E-02  0.1126649E+00
         21   -1    0    0  503  502  0.00000000000E+00  0.00000000000E+00  0.10425977543E+04  0.10425977543E+04  0.00000000000E+00 0. -1.
         21   -1    0    0  501  503 -0.00000000000E+00 -0.00000000000E+00 -0.88072826449E+02  0.88072826449E+02  0.00000000000E+00 0. -1.
          6    2    1    2  501    0 -0.13108934015E+03 -0.75646549651E+02  0.84713223838E+03  0.87789841290E+03  0.17368298278E+03 0.  0.
         24    2    3    3    0    0 -0.14144705052E+03 -0.79115618794E+02  0.84687342778E+03  0.86600414589E+03  0.80635158476E+02 0.  0.
         -6    2    1    2    0  502  0.13108934015E+03  0.75646549651E+02  0.10739268948E+03  0.25277216785E+03  0.17162098797E+03 0.  0.
        -24    2    5    5    0    0  0.77664921330E+02 -0.24640945646E+02  0.71072037761E+02  0.13338611347E+03  0.78112767892E+02 0.  0.
          5    1    3    3  501    0  0.10357710374E+02  0.34690691429E+01  0.25881059992E+00  0.11894267015E+02  0.47000000000E+01 0. -1.
        -11    1    4    4    0    0 -0.44456615855E+02 -0.69795856188E+02  0.34791248847E+03  0.35761844453E+03  0.00000000000E+00 0.  1.
         12    1    4    4    0    0 -0.96990434669E+02 -0.93197626060E+01  0.49896093931E+03  0.50838570136E+03  0.00000000000E+00 0. -1.
         -5    1    5    5    0  502  0.53424418820E+02  0.10028749530E+03  0.36320651718E+02  0.11938605438E+03  0.47000000000E+01 0.  1.
         13    1    6    6    0    0 -0.80144584242E+01  0.16103442435E+02  0.12070197487E+02  0.21661995971E+02  0.00000000000E+00 0. -1.
        -14    1    6    6    0    0  0.85679379755E+02 -0.40744388081E+02  0.59001840274E+02  0.11172411750E+03  0.00000000000E+00 0.  1.
</event>
<event>
12    1  0.1035051E+000  0.1961847E+03  0.7818608E-02  0.1154377E+00
         21   -1    0    0  503  502  0.00000000000E+00  0.00000000000E+00  0.50809950008E+03  0.50809950008E+03  0.00000000000E+00 0.  1.
         21   -1    0    0  501  503 -0.00000000000E+00 -0.00000000000E+00 -0.80577206939E+02  0.80577206939E+02  0.00000000000E+00 0.  1.
          6    2    1    2  501    0 -0.14408699868E+02  0.87163313470E+02  0.29874182452E+03  0.35400068695E+03  0.16812125027E+03 0.  0.
         24    2    3    3    0    0  0.29754083924E+01  0.79160576707E+02  0.31115293899E+03  0.33071170290E+03  0.79239062565E+02 0.  0.
         -6    2    1    2    0  502  0.14408699868E+02 -0.87163313470E+02  0.12878046862E+03  0.23467602007E+03  0.17516669619E+03 0.  0.
        -24    2    5    5    0    0  0.61498848436E+02 -0.70263028188E+02  0.33706165327E+02  0.12713851554E+03  0.79429812188E+02 0.  0.
          5    1    3    3  501    0 -0.17384108260E+02  0.80027367634E+01 -0.12411114461E+02  0.23288984046E+02  0.47000000000E+01 0. -1.
        -11    1    4    4    0    0 -0.24793191477E+02  0.65515558827E+01  0.14528089453E+03  0.14752682313E+03  0.00000000000E+00 0.  1.
         12    1    4    4    0    0  0.27768599869E+02  0.72609020824E+02  0.16587204446E+03  0.18318487977E+03  0.00000000000E+00 0. -1.
         -5    1    5    5    0  502 -0.47090148568E+02 -0.16900285283E+02  0.95074303289E+02  0.10753750453E+03  0.47000000000E+01 0.  1.
         11    1    6    6    0    0 -0.15432532846E+01 -0.60830189781E+01  0.36594717460E+02  0.37128938802E+02  0.00000000000E+00 0. -1.
        -12    1    6    6    0    0  0.63042101721E+02 -0.64180009210E+02 -0.28885521332E+01  0.90009576740E+02  0.00000000000E+00 0.  1.
</event>
<event>
12    1  0.1035051E+000  0.1758200E+03  0.7818608E-02  0.1172271E+00
         21   -1    0    0  501  502  0.00000000000E+00  0.00000000000E+00  0.44514680051E+03  0.44514680051E+03  0.00000000000E+00 0.  1.
         21   -1    0    0  502  503 -0.00000000000E+00 -0.00000000000E+00 -0.10286792353E+03  0.10286792353E+03  0.00000000000E+00 0.  1.
         -6    2    1    2    0  503 -0.26632074165E+02  0.26448505997E+02  0.32817644228E+03  0.37163006790E+03  0.17029485976E+03 0.  0.
        -24    2    3    3    0    0 -0.37981375864E+01 -0.56929939598E+01  0.82517710421E+02  0.12278319286E+03  0.90662582620E+02 0.  0.
          6    2    1    2  501    0  0.26632074165E+02 -0.26448505997E+02  0.14102434705E+02  0.17638465614E+03  0.17176692759E+03 0.  0.
         24    2    5    5    0    0 -0.27939394104E+02 -0.10766041801E+01  0.57206369886E+02  0.10221041682E+03  0.79953935058E+02 0.  0.
          5    1    5    5  501    0  0.54571468269E+02 -0.25371901817E+02 -0.43103935181E+02  0.74174239322E+02  0.47000000000E+01 0. -1.
        -11    1    6    6    0    0  0.21443581837E+02  0.14111603814E+02  0.40426401001E+02  0.47887978263E+02  0.00000000000E+00 0.  1.
         12    1    6    6    0    0 -0.49382975941E+02 -0.15188207994E+02  0.16779968884E+02  0.54322438556E+02  0.00000000000E+00 0. -1.
         -5    1    3    3    0  503 -0.22833936579E+02  0.32141499957E+02  0.24565873186E+03  0.24884687504E+03  0.47000000000E+01 0.  1.
         13    1    4    4    0    0  0.11232262990E+02  0.36292015421E+02  0.64147847154E+02  0.74553473492E+02  0.00000000000E+00 0. -1.
        -14    1    4    4    0    0 -0.15030400577E+02 -0.41985009381E+02  0.18369863267E+02  0.48229719372E+02  0.00000000000E+00 0.  1.
</event>
<event>
12    1  0.1035051E+000  0.4198407E+03  0.7818608E-02  0.1037149E+00
         21   -1    0    0  501  502  0.00000000000E+00  0.00000000000E+00  0.98345700413E+03  0.98345700413E+03  0.00000000000E+00 0. -1.
         21   -1    0    0  502  503 -0.00000000000E+00 -0.00000000000E+00 -0.18428608875E+03  0.18428608875E+03  0.00000000000E+00 0. -1.
         -6    2    1    2    0  503  0.35265902004E+03  0.15009056166E+03  0.49763081607E+03  0.65083632498E+03  0.17045800567E+03 0.  0.
        -24    2    3    3    0    0  0.16936487006E+03  0.14018834390E+03  0.28661894937E+03  0.37111700633E+03  0.85089243032E+02 0.  0.
          6    2    1    2  501    0 -0.35265902004E+03 -0.15009056166E+03  0.30154009931E+03  0.51690676790E+03  0.17137856951E+03 0.  0.
         24    2    5    5    0    0 -0.12928179722E+03 -0.11318401298E+03  0.17271576849E+03  0.25637409198E+03  0.79828155834E+02 0.  0.
          5    1    5    5  501    0 -0.22337722282E+03 -0.36906548679E+02  0.12882433082E+03  0.26053267592E+03  0.47000000000E+01 0. -1.
        -13    1    6    6    0    0 -0.86494443773E+02 -0.28202923025E+02  0.10846193904E+03  0.14156512950E+03  0.00000000000E+00 0.  1.
         14    1    6    6    0    0 -0.42787353449E+02 -0.84981089954E+02  0.64253829450E+02  0.11480896247E+03  0.00000000000E+00 0. -1.
         -5    1    3    3    0  503  0.18329414999E+03  0.99022177624E+01  0.21101186670E+03  0.27971931865E+03  0.47000000000E+01 0.  1.
         13    1    4    4    0    0  0.74192963355E+02  0.57702238654E+02  0.58985747155E+02  0.11096604221E+03  0.00000000000E+00 0. -1.
        -14    1    4    4    0    0  0.95171906701E+02  0.82486105243E+02  0.22763320221E+03  0.26015096412E+03  0.00000000000E+00 0.  1.
</event>
<event>
12    1  0.1035051E+000  0.1862745E+03  0.7818608E-02  0.1162374E+00
         21   -1    0    0  503  502  0.00000000000E+00  0.00000000000E+00  0.29141282420E+03  0.29141282420E+03  0.00000000000E+00 0. -1.
         21   -1    0    0  501  503 -0.00000000000E+00 -0.00000000000E+00 -0.11831591709E+03  0.11831591709E+03  0.00000000000E+00 0.  1.
          6    2    1    2  501    0 -0.83259209210E+01  0.71685335996E+02  0.10211160618E+03  0.21242640003E+03  0.17172677997E+03 0.  0.
         24    2    3    3    0    0  0.80600089368E+01  0.11502534173E+03  0.79620205339E+02  0.16070785495E+03  0.78688274604E+02 0.  0.
         -6    2    1    2    0  502  0.83259209210E+01 -0.71685335996E+02  0.70985300925E+02  0.19730234126E+03  0.16935522596E+03 0.  0.
        -24    2    5    5    0    0 -0.18001478187E+02  0.14050128532E+02 -0.26004402379E-02  0.82824946274E+02  0.79614774947E+02 0.  0.
          5    1    3    3  501    0 -0.16385929858E+02 -0.43340005732E+02  0.22491400838E+02  0.51718545086E+02  0.47000000000E+01 0. -1.
        -11    1    4    4    0    0 -0.28955492350E+02  0.76505412942E+02  0.67190526384E+02  0.10585870575E+03  0.00000000000E+00 0.  1.
         12    1    4    4    0    0  0.37015501287E+02  0.38519928785E+02  0.12429678955E+02  0.54849149201E+02  0.00000000000E+00 0. -1.
         -5    1    5    5    0  502  0.26327399108E+02 -0.85735464528E+02  0.70987901366E+02  0.11447739498E+03  0.47000000000E+01 0.  1.
         11    1    6    6    0    0 -0.29386807512E+02 -0.19969748176E+02  0.20982947863E+02  0.41263293604E+02  0.00000000000E+00 0. -1.
        -12    1    6    6    0    0  0.11385329326E+02  0.34019876708E+02 -0.20985548303E+02  0.41561652670E+02  0.00000000000E+00 0.  1.
</event>
<event>
12    1  0.1035051E+000  0.1952309E+03  0.7818608E-02  0.1153959E+00
         21   -1    0    0  501  502  0.00000000000E+00  0.00000000000E+00  0.94347804540E+02  0.94347804540E+02  0.00000000000E+00 0.  1.
         21   -1    0    0  502  503 -0.00000000000E+00 -0.00000000000E+00 -0.45451490877E+03  0.45451490877E+03  0.00000000000E+00 0.  1.
         -6    2    1    2    0  503 -0.89710281666E+02  0.22421716061E+02 -0.27297086745E+03  0.33560123780E+03  0.17194309626E+03 0.  0.
        -24    2    3    3    0    0  0.30208551654E+01  0.46079746763E+02 -0.18282419772E+03  0.20404410870E+03  0.77954104415E+02 0.  0.
          6    2    1    2  501    0  0.89710281666E+02 -0.22421716061E+02 -0.87196236777E+02  0.21326147550E+03  0.17125012478E+03 0.  0.
         24    2    5    5    0    0  0.37596457450E+01 -0.24086903981E+02 -0.88105363411E+02  0.12716152674E+03  0.88392222176E+02 0.  0.
          5    1    5    5  501    0  0.85950635921E+02  0.16651879199E+01  0.90912663385E+00  0.86099948764E+02  0.47000000000E+01 0. -1.
        -11    1    6    6    0    0 -0.16836106192E+02 -0.10614501470E+02  0.12557888447E+02  0.23533437391E+02  0.00000000000E+00 0.  1.
         12    1    6    6    0    0  0.20595751937E+02 -0.13472402511E+02 -0.10066325186E+03  0.10362808935E+03  0.00000000000E+00 0. -1.
         -5    1    3    3    0  503 -0.92731136831E+02 -0.23658030701E+02 -0.90146669726E+02  0.13155712910E+03  0.47000000000E+01 0.  1.
         13    1    4    4    0    0 -0.32494883071E+02  0.44204502166E+02 -0.11707103571E+03  0.12928875759E+03  0.00000000000E+00 0. -1.
        -14    1    4    4    0    0  0.35515738237E+02  0.18752445967E+01 -0.65753162015E+02  0.74755351111E+02  0.00000000000E+00 0.  1.
</event>
<event>
12    1  0.1035051E+000  0.1890328E+03  0.7818608E-02  0.1159531E+00
         21   -1    0    0  503  502  0.00000000000E+00  0.00000000000E+00  0.57479751982E+03  0.57479751982E+03  0.00000000000E+00 0.  1.
         21   -1    0    0  501  503 -0.00000000000E+00 -0.00000000000E+00 -0.78863223097E+02  0.78863223097E+02  0.00000000000E+00 0.  1.
          6    2    1    2  501    0 -0.30879929442E+02  0.75542202121E+02  0.39916714109E+03  0.44129955264E+03  0.16956029692E+03 0.  0.
         24    2    3    3    0    0 -0.82376077467E+02  0.40938033828E+02  0.30656306989E+03  0.32973385125E+03  0.79257530155E+02 0.  0.
         -6    2    1    2    0  502  0.30879929442E+02 -0.75542202121E+02  0.96767155635E+02  0.21236119028E+03  0.17050864606E+03 0.  0.
        -24    2    5    5    0    0  0.32885756782E+02 -0.73902390931E+02 -0.52400999460E+01  0.11021285444E+03  0.74675151497E+02 0.  0.
          5    1    3    3  501    0  0.51496148024E+02  0.34604168293E+02  0.92604071201E+02  0.11156570139E+03  0.47000000000E+01 0. -1.
        -13    1    4    4    0    0 -0.46666879460E+02  0.58758611757E+02  0.14439970473E+03  0.16273182486E+03  0.00000000000E+00 0.  1.
         14    1    4    4    0    0 -0.35709198007E+02 -0.17820577929E+02  0.16216336515E+03  0.16700202639E+03  0.00000000000E+00 0. -1.
         -5    1    5    5    0  502 -0.20058273397E+01 -0.16398111900E+01  0.10200725558E+03  0.10214833584E+03  0.47000000000E+01 0.  1.
         11    1    6    6    0    0  0.58992735498E+01 -0.19537004118E+02  0.32764985451E+02  0.38601039234E+02  0.00000000000E+00 0. -1.
        -12    1    6    6    0    0  0.26986483232E+02 -0.54365386813E+02 -0.38005085397E+02  0.71611815202E+02  0.00000000000E+00 0.  1.
</event>
<event>
12    1  0.1035051E+000  0.1931848E+03  0.7818608E-02  0.1158390E+00
         21   -1    0    0  501  502  0.00000000000E+00  0.00000000000E+00  0.35673007469E+02  0.35673007469E+02  0.00000000000E+00 0.  1.
         21   -1    0    0  502  503 -0.00000000000E+00 -0.00000000000E+00 -0.11294964115E+04  0.11294964115E+04  0.00000000000E+00 0.  1.
         -6    2    1    2    0  503  0.75435224954E+02 -0.40922120017E+01 -0.32074719545E+03  0.36832112508E+03  0.16454321142E+03 0.  0.
        -24    2    3    3    0    0  0.38195573568E+02 -0.45843758127E+02 -0.28453679250E+03  0.30151344198E+03  0.79928827137E+02 0.  0.
          6    2    1    2  501    0 -0.75435224954E+02  0.40922120017E+01 -0.77307620858E+03  0.79684829390E+03  0.17780089945E+03 0.  0.
         24    2    5    5    0    0 -0.67153725122E+02 -0.52128629349E+02 -0.65643117676E+03  0.66701178250E+03  0.82315316799E+02 0.  0.
          5    1    5    5  501    0 -0.82814998319E+01  0.56220841351E+02 -0.11664503183E+03  0.12983651139E+03  0.47000000000E+01 0. -1.
        -11    1    6    6    0    0  0.19379740911E+02 -0.10941712683E+02 -0.10781851349E+03  0.11009144964E+03  0.00000000000E+00 0.  1.
         12    1    6    6    0    0 -0.86533466033E+02 -0.41186916666E+02 -0.54861266327E+03  0.55692033286E+03  0.00000000000E+00 0. -1.
         -5    1    3    3    0  503  0.37239651386E+02  0.41751546126E+02 -0.36210402951E+02  0.66807683100E+02  0.47000000000E+01 0.  1.
         11    1    4    4    0    0  0.39469401199E+02 -0.27598911966E+02 -0.63384021559E+02  0.79605701817E+02  0.00000000000E+00 0. -1.
        -12    1    4    4    0    0 -0.12738276313E+01 -0.18244846161E+02 -0.22115277094E+03  0.22190774016E+03  0.00000000000E+00 0.  1.
</event>
<event>
12    1  0.1035051E+000  0.2955571E+03  0.7818608E-02  0.1087616E+00
         21   -1    0    0  501  502  0.00000000000E+00  0.00000000000E+00  0.69567211911E+03  0.69567211911E+03  0.00000000000E+00 0. -1.
         21   -1    0    0  502  503 -0.00000000000E+00 -0.00000000000E+00 -0.12738238225E+03  0.12738238225E+03  0.00000000000E+00 0. -1.
         -6    2    1    2    0  503 -0.19468247339E+03 -0.13895374200E+03  0.33943811367E+03  0.45008024221E+03  0.17362195585E+03 0.  0.
        -24    2    3    3    0    0 -0.78177184031E+02 -0.14918384053E+02  0.19634076473E+03  0.22769050831E+03  0.83420869061E+02 0.  0.
          6    2    1    2  501    0  0.19468247339E+03  0.13895374200E+03  0.22885162319E+03  0.37297425915E+03  0.17183516722E+03 0.  0.
         24    2    5    5    0    0  0.18340024700E+03  0.10158822423E+03  0.24280634248E+03  0.33125741914E+03  0.82587770780E+02 0.  0.
          5    1    5    5  501    0  0.11282226393E+02  0.37365517770E+02 -0.13954719293E+02  0.41716840019E+02  0.47000000000E+01 0. -1.
        -11    1    6    6    0    0  0.15817568459E+03  0.56790365421E+02  0.15049775344E+03  0.22559757665E+03  0.00000000000E+00 0.  1.
         12    1    6    6    0    0  0.25224562402E+02  0.44797858813E+02  0.92308589042E+02  0.10565984248E+03  0.00000000000E+00 0. -1.
         -5    1    3    3    0  503 -0.11650528936E+03 -0.12403535795E+03  0.14309734895E+03  0.22238973391E+03  0.47000000000E+01 0.  1.
         11    1    4    4    0    0 -0.92190049404E+02 -0.81044422133E+01  0.13020277323E+03  0.15974182092E+03  0.00000000000E+00 0. -1.
        -12    1    4    4    0    0  0.14012865372E+02 -0.68139418400E+01  0.66137991496E+02  0.67948687393E+02  0.00000000000E+00 0.  1.
</event>
<event>
12    1  0.1035051E+000  0.2243053E+03  0.7818608E-02  0.1131506E+00
         21   -1    0    0  503  502  0.00000000000E+00  0.00000000000E+00  0.16289422759E+03  0.16289422759E+03  0.00000000000E+00 0.  1.
         21   -1    0    0  501  503 -0.00000000000E+00 -0.00000000000E+00 -0.38023356680E+03  0.38023356680E+03  0.00000000000E+00 0.  1.
          6    2    1    2  501    0 -0.71704671567E+02  0.12283421400E+03  0.12911028840E+02  0.22467652549E+03  0.17344463782E+03 0.  0.
         24    2    3    3    0    0 -0.46733733211E+02  0.71409224021E+02 -0.62953746768E+02  0.12956800045E+03  0.74440401757E+02 0.  0.
         -6    2    1    2    0  502  0.71704671567E+02 -0.12283421400E+03 -0.23025036805E+03  0.31845126891E+03  0.16782781244E+03 0.  0.
        -24    2    5    5    0    0  0.53682363734E+02 -0.93928645598E+01 -0.14668514768E+03  0.17632815539E+03  0.81271543305E+02 0.  0.
          5    1    3    3  501    0 -0.24970938356E+02  0.51424989977E+02  0.75864775609E+02  0.95108525037E+02  0.47000000000E+01 0. -1.
        -13    1    4    4    0    0  0.11333212520E+02  0.32987252808E+02 -0.46314711727E+02  0.57979764369E+02  0.00000000000E+00 0.  1.
         14    1    4    4    0    0 -0.58066945731E+02  0.38421971213E+02 -0.16639035041E+02  0.71588236083E+02  0.00000000000E+00 0. -1.
         -5    1    5    5    0  502  0.18022307833E+02 -0.11344134944E+03 -0.83565220366E+02  0.14212311352E+03  0.47000000000E+01 0. -1.
         13    1    6    6    0    0 -0.18344479508E+02  0.12709428176E+02 -0.38336841118E+02  0.44359473395E+02  0.00000000000E+00 0. -1.
        -14    1    6    6    0    0  0.72026843242E+02 -0.22102292736E+02 -0.10834830656E+03  0.13196868199E+03  0.00000000000E+00 0.  1.
</event>
<event>
12    1  0.1035051E+000  0.1877329E+03  0.7818608E-02  0.1161052E+00
         21   -1    0    0  501  502  0.00000000000E+00  0.00000000000E+00  0.13394083527E+03  0.13394083527E+03  0.00000000000E+00 0.  1.
         21   -1    0    0  502  503 -0.00000000000E+00 -0.00000000000E+00 -0.29766124310E+03  0.29766124310E+03  0.00000000000E+00 0.  1.
         -6    2    1    2    0  503  0.65843843100E+01 -0.73201805024E+02 -0.45773150095E+01  0.18549201485E+03  0.17024828159E+03 0.  0.
        -24    2    3    3    0    0  0.32553219221E+02 -0.84669513722E+02 -0.50925635058E+02  0.13093795450E+03  0.79515338059E+02 0.  0.
          6    2    1    2  501    0 -0.65843843100E+01  0.73201805024E+02 -0.15914309282E+03  0.24611006353E+03  0.17274773805E+03 0.  0.
         24    2    5    5    0    0 -0.28643808189E+02  0.35103077817E+02 -0.13407662348E+02  0.93797762997E+02  0.81028150132E+02 0.  0.
          5    1    5    5  501    0  0.22059423879E+02  0.38098727207E+02 -0.14573543048E+03  0.15231230053E+03  0.47000000000E+01 0. -1.
        -13    1    6    6    0    0  0.25155028224E+02 -0.90621208234E-01 -0.15371709394E+02  0.29480045910E+02  0.00000000000E+00 0.  1.
         14    1    6    6    0    0 -0.53798836413E+02  0.35193699026E+02  0.19640470461E+01  0.64317717087E+02  0.00000000000E+00 0. -1.
         -5    1    3    3    0  503 -0.25968834911E+02  0.11467708698E+02  0.46348320049E+02  0.54554060351E+02  0.47000000000E+01 0.  1.
         13    1    4    4    0    0  0.39547124822E+02 -0.58491972717E+02  0.29117258784E+01  0.70666569902E+02  0.00000000000E+00 0. -1.
        -14    1    4    4    0    0 -0.69939056014E+01 -0.26177541005E+02 -0.53837360937E+02  0.60271384597E+02  0.00000000000E+00 0.  1.
</event>
<event>
12    1  0.1035051E+000  0.2585756E+03  0.7818608E-02  0.1108095E+00
         21   -1    0    0  503  502  0.00000000000E+00  0.00000000000E+00  0.22045063993E+03  0.22045063993E+03  0.00000000000E+00 0.  1.
         21   -1    0    0  501  503 -0.00000000000E+00 -0.00000000000E+00 -0.39351574181E+03  0.39351574181E+03  0.00000000000E+00 0.  1.
          6    2    1    2  501    0  0.48059493790E+02  0.18622076203E+03 -0.23402806646E+03  0.34830153398E+03  0.17192130619E+03 0.  0.
         24    2    3    3    0    0 -0.34286540580E+02  0.11944833327E+03 -0.16751377504E+03  0.22305909875E+03  0.79063427189E+02 0.  0.
         -6    2    1    2    0  502 -0.48059493790E+02 -0.18622076203E+03  0.60962964586E+02  0.26566484776E+03  0.17283935064E+03 0.  0.
        -24    2    5    5    0    0  0.13504397756E+02 -0.32428256382E+02 -0.86195210330E+01  0.85925982067E+02  0.77942399762E+02 0.  0.
          5    1    3    3  501    0  0.82346034371E+02  0.66772428766E+02 -0.66514291422E+02  0.12524243523E+03  0.47000000000E+01 0. -1.
        -13    1    4    4    0    0 -0.18238754362E+02  0.21909771728E+02  0.53869977441E-01  0.28507773674E+02  0.00000000000E+00 0.  1.
         14    1    4    4    0    0 -0.16047786218E+02  0.97538561540E+02 -0.16756764502E+03  0.19455132507E+03  0.00000000000E+00 0. -1.
         -5    1    5    5    0  502 -0.61563891546E+02 -0.15379250565E+03  0.69582485620E+02  0.17973886570E+03  0.47000000000E+01 0.  1.
         13    1    6    6    0    0  0.12294351828E+02  0.10799812753E+02  0.25870435852E+02  0.30611541835E+02  0.00000000000E+00 0. -1.
        -14    1    6    6    0    0  0.12100459277E+01 -0.43228069135E+02 -0.34489956885E+02  0.55314440232E+02  0.00000000000E+00 0.  1.
</event>
<event>
12    1  0.1035051E+000  0.1968597E+03  0.7818608E-02  0.1153526E+00
         21   -1    0    0  503  502  0.00000000000E+00  0.00000000000E+00  0.82010693043E+03  0.82010693043E+03  0.00000000000E+00 0.  1.
         21   -1    0    0  501  503 -0.00000000000E+00 -0.00000000000E+00 -0.46703061502E+02  0.46703061502E+02  0.00000000000E+00 0.  1.
          6    2    1    2  501    0  0.92108051140E+02 -0.20937047037E+02  0.33017245477E+03  0.38182769378E+03  0.16690202164E+03 0.  0.
         24    2    3    3    0    0  0.58227461535E+01  0.35255829695E+02  0.14726492109E+03  0.17187520123E+03  0.81100246076E+02 0.  0.
         -6    2    1    2    0  502 -0.92108051140E+02  0.20937047037E+02  0.44323141416E+03  0.48498229815E+03  0.17271794927E+03 0.  0.
        -24    2    5    5    0    0 -0.11011616221E+03 -0.14536140670E+02  0.22067305793E+03  0.25884749092E+03  0.77256433373E+02 0.  0.
          5    1    3    3  501    0  0.86285304987E+02 -0.56192876732E+02  0.18290753368E+03  0.20995249255E+03  0.47000000000E+01 0. -1.
        -11    1    4    4    0    0  0.27665547127E+02  0.50061124691E+02  0.70991892762E+02  0.91166592242E+02  0.00000000000E+00 0.  1.
         12    1    4    4    0    0 -0.21842800973E+02 -0.14805294995E+02  0.76273028329E+02  0.80708608987E+02  0.00000000000E+00 0. -1.
         -5    1    5    5    0  502  0.18008111070E+02  0.35473187706E+02  0.22255835623E+03  0.22613480723E+03  0.47000000000E+01 0.  1.
         13    1    6    6    0    0 -0.10296046376E+03 -0.28044857121E+02  0.21881392549E+03  0.24344795152E+03  0.00000000000E+00 0. -1.
        -14    1    6    6    0    0 -0.71556984471E+01  0.13508716451E+02  0.18591324307E+01  0.15399539402E+02  0.00000000000E+00 0.  1.
</event>
<event>
12    1  0.1035051E+000  0.2180583E+03  0.7818608E-02  0.1135577E+00
         21   -1    0    0  501  502  0.00000000000E+00  0.00000000000E+00  0.21410310974E+03  0.21410310974E+03  0.00000000000E+00 0.  1.
         21   -1    0    0  502  503 -0.00000000000E+00 -0.00000000000E+00 -0.26701547361E+03  0.26701547361E+03  0.00000000000E+00 0.  1.
         -6    2    1    2    0  503  0.10870351580E+03 -0.77692465983E+02  0.73679916439E+02  0.22897765905E+03  0.17073214296E+03 0.  0.
        -24    2    3    3    0    0  0.13939658038E+03 -0.88866358714E+02  0.60464274521E+02  0.19342961714E+03  0.80190098901E+02 0.  0.
          6    2    1    2  501    0 -0.10870351580E+03  0.77692465983E+02 -0.12659228031E+03  0.25214092431E+03  0.17232778841E+03 0.  0.
         24    2    5    5    0    0 -0.12231512492E+03  0.10955587606E+03 -0.11208952138E+03  0.21428629683E+03  0.79944208310E+02 0.  0.
          5    1    5    5  501    0  0.13611609121E+02 -0.31863410081E+02 -0.14502758927E+02  0.37854627476E+02  0.47000000000E+01 0. -1.
        -11    1    6    6    0    0 -0.57554871365E+02  0.65526016021E+02 -0.13297921588E+02  0.88221634036E+02  0.00000000000E+00 0.  1.
         12    1    6    6    0    0 -0.64760253551E+02  0.44029860043E+02 -0.98791599797E+02  0.12606466280E+03  0.00000000000E+00 0. -1.
         -5    1    3    3    0  503 -0.30693064580E+02  0.11173892731E+02  0.13215641917E+02  0.35548041906E+02  0.47000000000E+01 0.  1.
         13    1    4    4    0    0  0.13452507563E+03 -0.57692407481E+02  0.29690634148E+02  0.14935509234E+03  0.00000000000E+00 0. -1.
        -14    1    4    4    0    0  0.48715047489E+01 -0.31173951233E+02  0.30773640373E+02  0.44074524794E+02  0.00000000000E+00 0.  1.
</event>
<event>
12    1  0.1035051E+000  0.2247122E+03  0.7818608E-02  0.1130621E+00
         21   -1    0    0  503  502  0.00000000000E+00  0.00000000000E+00  0.14642272068E+03  0.14642272068E+03  0.00000000000E+00 0. -1.
         21   -1    0    0  501  503 -0.00000000000E+00 -0.00000000000E+00 -0.34740700414E+03  0.34740700414E+03  0.00000000000E+00 0. -1.
          6    2    1    2  501    0 -0.10138898833E+03 -0.10330973392E+03 -0.73405697032E+02  0.23639791298E+03  0.17188062378E+03 0.  0.
         24    2    3    3    0    0 -0.11971766677E+03 -0.54092791359E+02 -0.93677411408E+02  0.17990649512E+03  0.79577256585E+02 0.  0.
         -6    2    1    2    0  502  0.10138898833E+03  0.10330973392E+03 -0.12757858643E+03  0.25743181183E+03  0.17041776301E+03 0.  0.
        -24    2    5    5    0    0  0.80745528987E+02  0.55256004778E+02 -0.15382552849E+03  0.19872657130E+03  0.79100508287E+02 0.  0.
          5    1    3    3  501    0  0.18328678439E+02 -0.49216942560E+02  0.20271714376E+02  0.56491417861E+02  0.47000000000E+01 0. -1.
        -13    1    4    4    0    0 -0.10382919028E+03 -0.59847315208E+02 -0.44384431789E+02  0.12779741655E+03  0.00000000000E+00 0.  1.
         14    1    4    4    0    0 -0.15888476489E+02  0.57545238495E+01 -0.49292979619E+02  0.52109078572E+02  0.00000000000E+00 0. -1.
         -5    1    5    5    0  502  0.20643459345E+02  0.48053729140E+02  0.26246942057E+02  0.58705240527E+02  0.47000000000E+01 0.  1.
         11    1    6    6    0    0  0.32560699019E+02  0.67785851872E+02 -0.81190591836E+02  0.11066631392E+03  0.00000000000E+00 0. -1.
        -12    1    6    6    0    0  0.48184829967E+02 -0.12529847093E+02 -0.72634936649E+02  0.88060257376E+02  0.00000000000E+00 0.  1.
</event>
<event>
12    1  0.1035051E+000  0.1772277E+03  0.7818608E-02  0.1170586E+00
         21   -1    0    0  501  502  0.00000000000E+00  0.00000000000E+00  0.11946942492E+03  0.11946942492E+03  0.00000000000E+00 0.  1.
         21   -1    0    0  502  503 -0.00000000000E+00 -0.00000000000E+00 -0.27030783260E+03  0.27030783260E+03  0.00000000000E+00 0.  1.
         -6    2    1    2    0  503  0.32062323474E+02 -0.31810565532E+02 -0.10866080908E+03  0.20788658878E+03  0.17137607096E+03 0.  0.
        -24    2    3    3    0    0  0.39619636440E+02 -0.84087600983E+02 -0.62619856911E+02  0.13765938115E+03  0.79927582904E+02 0.  0.
          6    2    1    2  501    0 -0.32062323474E+02  0.31810565532E+02 -0.42177598608E+02  0.18189066874E+03  0.17107121583E+03 0.  0.
         24    2    5    5    0    0  0.11583411590E+02  0.58766781646E+02 -0.71171936940E+02  0.12277764622E+03  0.80132363960E+02 0.  0.
          5    1    5    5  501    0 -0.43645735064E+02 -0.26956216114E+02  0.28994338332E+02  0.59113022523E+02  0.47000000000E+01 0. -1.
        -11    1    6    6    0    0 -0.15648960050E+02 -0.11146211018E+02  0.21448203628E+00  0.19213900521E+02  0.00000000000E+00 0.  1.
         12    1    6    6    0    0  0.27232371639E+02  0.69912992664E+02 -0.71386418977E+02  0.10356374570E+03  0.00000000000E+00 0. -1.
         -5    1    3    3    0  503 -0.75573129664E+01  0.52277035451E+02 -0.46040952165E+02  0.70227207627E+02  0.47000000000E+01 0.  1.
         13    1    4    4    0    0 -0.13050625213E+02 -0.54603535122E+02 -0.51696731738E+02  0.76317867755E+02  0.00000000000E+00 0. -1.
        -14    1    4    4    0    0  0.52670261653E+02 -0.29484065861E+02 -0.10923125173E+02  0.61341513397E+02  0.00000000000E+00 0.  1.
</event>
<event>
12    1  0.1035051E+000  0.3659755E+03  0.7818608E-02  0.1056266E+00
         21   -1    0    0  503  502  0.00000000000E+00  0.00000000000E+00  0.23291630915E+03  0.23291630915E+03  0.00000000000E+00 0.  1.
         21   -1    0    0  501  503 -0.00000000000E+00 -0.00000000000E+00 -0.61960477547E+03  0.61960477547E+03  0.00000000000E+00 0.  1.
          6    2    1    2  501    0 -0.14211065634E+03  0.29062406613E+03 -0.30818943545E+03  0.47845461136E+03  0.17111487529E+03 0.  0.
         24    2    3    3    0    0 -0.10085460346E+02  0.90531303664E+02 -0.12003154685E+03  0.17367067639E+03  0.86349858985E+02 0.  0.
         -6    2    1    2    0  502  0.14211065634E+03 -0.29062406613E+03 -0.78499030867E+02  0.37406647327E+03  0.17060434377E+03 0.  0.
        -24    2    5    5    0    0  0.13049273717E+03 -0.30734019609E+03 -0.82188298023E+02  0.35285077769E+03  0.79135354944E+02 0.  0.
          5    1    3    3  501    0 -0.13202519600E+03  0.20009276247E+03 -0.18815788860E+03  0.30478393496E+03  0.47000000000E+01 0. -1.
        -13    1    4    4    0    0 -0.39142124076E+02  0.17524645510E+02 -0.64483795543E+02  0.77442746368E+02  0.00000000000E+00 0.  1.
         14    1    4    4    0    0  0.29056663730E+02  0.73006658155E+02 -0.55547751307E+02  0.96227930027E+02  0.00000000000E+00 0. -1.
         -5    1    5    5    0  502  0.11617919174E+02  0.16716129954E+02  0.36892671565E+01  0.21215695575E+02  0.47000000000E+01 0.  1.
         13    1    6    6    0    0  0.11350461322E+03 -0.17530966381E+03 -0.64390754651E+02  0.21854735124E+03  0.00000000000E+00 0. -1.
        -14    1    6    6    0    0  0.16988123950E+02 -0.13203053227E+03 -0.17797543372E+02  0.13430342646E+03  0.00000000000E+00 0.  1.
</event>
<event>
12    1  0.1035051E+000  0.1859333E+03  0.7818608E-02  0.1162449E+00
         21   -1    0    0  501  502  0.00000000000E+00  0.00000000000E+00  0.54296619493E+03  0.54296619493E+03  0.00000000000E+00 0.  1.
         21   -1    0    0  502  503 -0.00000000000E+00 -0.00000000000E+00 -0.64413031546E+02  0.64413031546E+02  0.00000000000E+00 0.  1.
         -6    2    1    2    0  503 -0.51390779753E+02  0.44025159027E+02  0.19821938561E+03  0.27098926603E+03  0.17194484756E+03 0.  0.
        -24    2    3    3    0    0 -0.28392198175E+02  0.79077301140E+02  0.19637934973E+03  0.22876293357E+03  0.81904177570E+02 0.  0.
          6    2    1    2  501    0  0.51390779753E+02 -0.44025159027E+02  0.28033377777E+03  0.33638996044E+03  0.17318184563E+03 0.  0.
         24    2    5    5    0    0 -0.39261252571E+02 -0.18299891000E+02  0.13422877196E+03  0.16246945244E+03  0.80638872701E+02 0.  0.
          5    1    5    5  501    0  0.90652032325E+02 -0.25725268027E+02  0.14610500581E+03  0.17392050799E+03  0.47000000000E+01 0. -1.
        -11    1    6    6    0    0  0.56397278722E+01 -0.30660030028E+02  0.99795133916E+02  0.10455100538E+03  0.00000000000E+00 0.  1.
         12    1    6    6    0    0 -0.44900980443E+02  0.12360139028E+02  0.34433638048E+02  0.57918447068E+02  0.00000000000E+00 0. -1.
         -5    1    3    3    0  503 -0.22998581578E+02 -0.35052142113E+02  0.18400358842E+01  0.42226332464E+02  0.47000000000E+01 0.  1.
         11    1    4    4    0    0 -0.33207937349E+02  0.55338321397E+02  0.53455105509E+02  0.83800627820E+02  0.00000000000E+00 0. -1.
        -12    1    4    4    0    0  0.48157391739E+01  0.23738979742E+02  0.14292424422E+03  0.14496230575E+03  0.00000000000E+00 0.  1.
</event>
<event>
12    1  0.1035051E+000  0.2478092E+03  0.7818608E-02  0.1114799E+00
         21   -1    0    0  501  502  0.00000000000E+00  0.00000000000E+00  0.48553064650E+03  0.48553064650E+03  0.00000000000E+00 0. -1.
         21   -1    0    0  502  503 -0.00000000000E+00 -0.00000000000E+00 -0.31885919809E+03  0.31885919809E+03  0.00000000000E+00 0. -1.
         -6    2    1    2    0  503  0.54824064461E+01  0.17754348135E+03  0.39604622479E+03  0.46718518121E+03  0.17279362495E+03 0.  0.
        -24    2    3    3    0    0 -0.32845068373E+02  0.20857348353E+02  0.12800526178E+03  0.15431526024E+03  0.76902698275E+02 0.  0.
          6    2    1    2  501    0 -0.54824064461E+01 -0.17754348135E+03 -0.22937477639E+03  0.33720466338E+03  0.17187917970E+03 0.  0.
         24    2    5    5    0    0  0.29945291120E+02 -0.44848509062E+02 -0.15311379490E+03  0.18003944865E+03  0.77860514094E+02 0.  0.
          5    1    5    5  501    0 -0.35427697566E+02 -0.13269497229E+03 -0.76260981485E+02  0.15716521473E+03  0.47000000000E+01 0. -1.
        -13    1    6    6    0    0 -0.12285674528E+02 -0.22016954112E+02 -0.11773386930E+03  0.12040327257E+03  0.00000000000E+00 0.  1.
         14    1    6    6    0    0  0.42230965648E+02 -0.22831554950E+02 -0.35379925606E+02  0.59636176075E+02  0.00000000000E+00 0. -1.
         -5    1    3    3    0  503  0.38327474819E+02  0.15668613299E+03  0.26804096300E+03  0.31286992097E+03  0.47000000000E+01 0.  1.
         11    1    4    4    0    0  0.15289075945E+02 -0.13669353909E+02  0.63534678113E+02  0.66762732138E+02  0.00000000000E+00 0. -1.
        -12    1    4    4    0    0 -0.48134144318E+02  0.34526702262E+02  0.64470583671E+02  0.87552528103E+02  0.00000000000E+00 0.  1.
</event>
<event>
12    1  0.1035051E+000  0.1821600E+03  0.7818608E-02  0.1166870E+00
         21   -1    0    0  503  502  0.00000000000E+00  0.00000000000E+00  0.25484187031E+03  0.25484187031E+03  0.00000000000E+00 0.  1.
         21   -1    0    0  501  503 -0.00000000000E+00 -0.00000000000E+00 -0.15674564499E+03  0.15674564499E+03  0.00000000000E+00 0.  1.
          6    2    1    2  501    0  0.25974440927E+02  0.53966563299E+02 -0.40295524562E+02  0.18656360153E+03  0.17203251606E+03 0.  0.
         24    2    3    3    0    0 -0.71315206870E+01 -0.68486758875E+01  0.31288153245E+02  0.86859986052E+02  0.80423539433E+02 0.  0.
         -6    2    1    2    0  502 -0.25974440927E+02 -0.53966563299E+02  0.13839174988E+03  0.22502391377E+03  0.16702222545E+03 0.  0.
        -24    2    5    5    0    0 -0.43486732573E+02 -0.32796950402E+01  0.14440081928E+03  0.17085715378E+03  0.80241623108E+02 0.  0.
          5    1    3    3  501    0  0.33105961614E+02  0.60815239186E+02 -0.71583677806E+02  0.99703615481E+02  0.47000000000E+01 0. -1.
        -11    1    4    4    0    0  0.34201939123E+02  0.11103081965E+02  0.13338789563E+02  0.38353283769E+02  0.00000000000E+00 0.  1.
         12    1    4    4    0    0 -0.41333459810E+02 -0.17951757852E+02  0.17949363682E+02  0.48506702283E+02  0.00000000000E+00 0. -1.
         -5    1    5    5    0  502  0.17512291646E+02 -0.50686868258E+02 -0.60090693966E+01  0.54166759988E+02  0.47000000000E+01 0.  1.
         11    1    6    6    0    0 -0.45459152479E+02  0.25100681643E+02  0.49341603440E+02  0.71632203603E+02  0.00000000000E+00 0. -1.
        -12    1    6    6    0    0  0.19724199058E+01 -0.28380376683E+02  0.95059215842E+02  0.99224950176E+02  0.00000000000E+00 0.  1.
</event>
<event>
12    1  0.1035051E+000  0.3816424E+03  0.7818608E-02  0.1050464E+00
         21   -1    0    0  501  502  0.00000000000E+00  0.00000000000E+00  0.89258973972E+03  0.89258973972E+03  0.00000000000E+00 0. -1.
         21   -1    0    0  502  503 -0.00000000000E+00 -0.00000000000E+00 -0.18571346733E+03  0.18571346733E+03  0.00000000000E+00 0. -1.
         -6    2    1    2    0  503  0.87334527534E+02 -0.32740434592E+03  0.16362012503E+03  0.41523783788E+03  0.17558471249E+03 0.  0.
        -24    2    3    3    0    0  0.34228272929E+02 -0.73822451590E+02  0.92533119438E+02  0.14653818440E+03  0.79307832329E+02 0.  0.
          6    2    1    2  501    0 -0.87334527534E+02  0.32740434592E+03  0.54325614736E+03  0.66306536917E+03  0.17235868623E+03 0.  0.
         24    2    5    5    0    0 -0.15411421240E+01  0.24429544539E+03  0.41034236347E+03  0.48430363312E+03  0.80538897660E+02 0.  0.
          5    1    5    5  501    0 -0.85793385410E+02  0.83108900534E+02  0.13291378388E+03  0.17876173604E+03  0.47000000000E+01 0. -1.
        -13    1    6    6    0    0  0.64711417071E+01  0.15631587942E+03  0.32860506967E+03  0.36394755343E+03  0.00000000000E+00 0.  1.
         14    1    6    6    0    0 -0.80122838311E+01  0.87979565973E+02  0.81737293803E+02  0.12035607969E+03  0.00000000000E+00 0. -1.
         -5    1    3    3    0  503  0.53106254605E+02 -0.25358189433E+03  0.71087005595E+02  0.26869965347E+03  0.47000000000E+01 0.  1.
         13    1    4    4    0    0 -0.16368366089E+02  0.23605459407E+01  0.14211507594E+00  0.16538312558E+02  0.00000000000E+00 0. -1.
        -14    1    4    4    0    0  0.50596639018E+02 -0.76182997530E+02  0.92391004362E+02  0.12999987184E+03  0.00000000000E+00 0.  1.
</event>
<event>
12    1  0.1035051E+000  0.1794290E+03  0.7818608E-02  0.1168531E+00
         21   -1    0    0  503  502  0.00000000000E+00  0.00000000000E+00  0.13956244626E+03  0.13956244626E+03  0.00000000000E+00 0.  1.
         21   -1    0    0  501  503 -0.00000000000E+00 -0.00000000000E+00 -0.42073449920E+03  0.42073449920E+03  0.00000000000E+00 0.  1.
          6    2    1    2  501    0  0.25983589530E+02  0.45576188460E+02 -0.32948040977E+03  0.37516943492E+03  0.17158796169E+03 0.  0.
         24    2    3    3    0    0 -0.38873655036E+02  0.30458103882E+02 -0.27016638970E+03  0.28586511458E+03  0.79310330123E+02 0.  0.
         -6    2    1    2    0  502 -0.25983589530E+02 -0.45576188460E+02  0.48308356833E+02  0.18512751054E+03  0.17083957955E+03 0.  0.
        -24    2    5    5    0    0 -0.54120021213E+02  0.24795162484E+02  0.39754627502E+02  0.10871388540E+03  0.81819934565E+02 0.  0.
          5    1    3    3  501    0  0.64857244566E+02  0.15118084578E+02 -0.59314020071E+02  0.89304320338E+02  0.47000000000E+01 0. -1.
        -13    1    4    4    0    0  0.55027218454E+01 -0.64471697310E+01  0.10811946116E+01  0.85448772394E+01  0.00000000000E+00 0.  1.
         14    1    4    4    0    0 -0.44376376881E+02  0.36905273613E+02 -0.27124758431E+03  0.27732023734E+03  0.00000000000E+00 0. -1.
         -5    1    5    5    0  502  0.28136431682E+02 -0.70371350944E+02  0.85537293307E+01  0.76413625140E+02  0.47000000000E+01 0.  1.
         11    1    6    6    0    0 -0.12479937843E+02 -0.29916764858E+02  0.11907023426E+02  0.34533156169E+02  0.00000000000E+00 0. -1.
        -12    1    6    6    0    0 -0.41640083370E+02  0.54711927342E+02  0.27847604076E+02  0.74180729231E+02  0.00000000000E+00 0.  1.
</event>
<event>
12    1  0.1035051E+000  0.5419645E+03  0.7818608E-02  0.1003395E+00
         21   -1    0    0  501  502  0.00000000000E+00  0.00000000000E+00  0.52153713927E+03  0.52153713927E+03  0.00000000000E+00 0. -1.
         21   -1    0    0  502  503 -0.00000000000E+00 -0.00000000000E+00 -0.56471804249E+03  0.56471804249E+03  0.00000000000E+00 0.  1.
         -6    2    1    2    0  503  0.44940812981E+03  0.24898056502E+03 -0.53426483599E+02  0.54459151245E+03  0.17252981593E+03 0.  0.
        -24    2    3    3    0    0  0.38682927718E+03  0.18612155477E+03  0.75411391349E+01  0.43685800333E+03  0.80684096673E+02 0.  0.
          6    2    1    2  501    0 -0.44940812981E+03 -0.24898056502E+03  0.10245580374E+02  0.54166366931E+03  0.17127629677E+03 0.  0.
         24    2    5    5    0    0 -0.14205934837E+03 -0.13582058345E+03  0.34973727054E+01  0.21404180925E+03  0.84696960646E+02 0.  0.
          5    1    5    5  501    0 -0.30734878145E+03 -0.11315998157E+03  0.67482076685E+01  0.32762186006E+03  0.47000000000E+01 0. -1.
        -13    1    6    6    0    0 -0.13723340575E+03 -0.84701962557E+02  0.13123743391E+02  0.16180130641E+03  0.00000000000E+00 0.  1.
         14    1    6    6    0    0 -0.48259426163E+01 -0.51118620896E+02 -0.96263706851E+01  0.52240502841E+02  0.00000000000E+00 0. -1.
         -5    1    3    3    0  503  0.62578852628E+02  0.62859010251E+02 -0.60967622734E+02  0.10773350912E+03  0.47000000000E+01 0.  1.
         11    1    4    4    0    0  0.78057812532E+02  0.41293102324E+01  0.65644688430E+01  0.78442115929E+02  0.00000000000E+00 0. -1.
        -12    1    4    4    0    0  0.30877146465E+03  0.18199224454E+03  0.97667029193E+00  0.35841588740E+03  0.00000000000E+00 0.  1.
</event>
<event>
12    1  0.1035051E+000  0.2118654E+03  0.7818608E-02  0.1140511E+00
         21   -1    0    0  501  502  0.00000000000E+00  0.00000000000E+00  0.15839930442E+04  0.15839930442E+04  0.00000000000E+00 0. -1.
         21   -1    0    0  502  503 -0.00000000000E+00 -0.00000000000E+00 -0.28838761053E+02  0.28838761053E+02  0.00000000000E+00 0. -1.
         -6    2    1    2    0  503  0.21386943292E+01  0.12366420289E+03  0.64858175946E+03  0.68230877329E+03  0.17201614550E+03 0.  0.
        -24    2    3    3    0    0 -0.17249135068E+02  0.22913539990E+02  0.14290903040E+03  0.16631111543E+03  0.80086410642E+02 0.  0.
          6    2    1    2  501    0 -0.21386943292E+01 -0.12366420289E+03  0.90657252365E+03  0.93052303193E+03  0.16941653761E+03 0.  0.
         24    2    5    5    0    0  0.45471953725E+02 -0.90173770181E+02  0.39833117126E+03  0.41893751105E+03  0.81497906490E+02 0.  0.
          5    1    5    5  501    0 -0.47610648054E+02 -0.33490432710E+02  0.50824135239E+03  0.51158552088E+03  0.47000000000E+01 0. -1.
        -13    1    6    6    0    0  0.31760170083E+01 -0.36274257292E+02  0.39903299363E+02  0.54020201093E+02  0.00000000000E+00 0.  1.
         14    1    6    6    0    0  0.42295936716E+02 -0.53899512889E+02  0.35842787189E+03  0.36491730995E+03  0.00000000000E+00 0. -1.
         -5    1    3    3    0  503  0.19387829397E+02  0.10075066290E+03  0.50567272906E+03  0.51599765786E+03  0.47000000000E+01 0.  1.
         13    1    4    4    0    0 -0.56658714766E+01 -0.27499245741E+02  0.25156769894E+02  0.37698457362E+02  0.00000000000E+00 0. -1.
        -14    1    4    4    0    0 -0.11583263591E+02  0.50412785731E+02  0.11775226050E+03  0.12861265806E+03  0.00000000000E+00 0.  1.
</event>
<event>
12    1  0.1035051E+000  0.1796808E+03  0.7818608E-02  0.1169083E+00
         21   -1    0    0  501  502  0.00000000000E+00  0.00000000000E+00  0.24303232168E+03  0.24303232168E+03  0.00000000000E+00 0. -1.
         21   -1    0    0  502  503 -0.00000000000E+00 -0.00000000000E+00 -0.22896694828E+03  0.22896694828E+03  0.00000000000E+00 0. -1.
         -6    2    1    2    0  503  0.44716497779E+01 -0.62174001460E+01  0.16227786238E+03  0.24211425308E+03  0.17951756240E+03 0.  0.
        -24    2    3    3    0    0 -0.22206378066E+02 -0.45678458657E+02  0.24582201267E+02  0.96336760311E+02  0.78082276837E+02 0.  0.
          6    2    1    2  501    0 -0.44716497779E+01  0.62174001460E+01 -0.14821248898E+03  0.22988501688E+03  0.17556060885E+03 0.  0.
         24    2    5    5    0    0  0.46944636329E+02  0.28827852122E+02 -0.14342485284E+03  0.17331754853E+03  0.80208729450E+02 0.  0.
          5    1    5    5  501    0 -0.51416286107E+02 -0.22610451976E+02 -0.47876361418E+01  0.56567468349E+02  0.47000000000E+01 0. -1.
        -11    1    6    6    0    0 -0.12898538998E+02 -0.92988734890E+01 -0.67703877839E+02  0.69546074159E+02  0.00000000000E+00 0.  1.
         12    1    6    6    0    0  0.59843175327E+02  0.38126725611E+02 -0.75720974997E+02  0.10377147437E+03  0.00000000000E+00 0. -1.
         -5    1    3    3    0  503  0.26678027844E+02  0.39461058511E+02  0.13769566111E+03  0.14577749276E+03  0.47000000000E+01 0.  1.
         13    1    4    4    0    0 -0.65355298974E+01 -0.39416697719E+02  0.51123670435E+02  0.64884658347E+02  0.00000000000E+00 0. -1.
        -14    1    4    4    0    0 -0.15670848168E+02 -0.62617609380E+01 -0.26541469168E+02  0.31452101964E+02  0.00000000000E+00 0.  1.
</event>
<event>
12    1  0.1035051E+000  0.3138363E+03  0.7818608E-02  0.1080066E+00
         21   -1    0    0  501  502  0.00000000000E+00  0.00000000000E+00  0.78279603352E+02  0.78279603352E+02  0.00000000000E+00 0. -1.
         21   -1    0    0  502  503 -0.00000000000E+00 -0.00000000000E+00 -0.20501776395E+04  0.20501776395E+04  0.00000000000E+00 0.  1.
         -6    2    1    2    0  503 -0.23516007562E+03 -0.76361779824E+02 -0.16560996771E+04  0.16832361474E+04  0.17171605807E+03 0.  0.
        -24    2    3    3    0    0 -0.13804927798E+03 -0.89766566342E+02 -0.13394748625E+04  0.13517492569E+04  0.76925331457E+02 0.  0.
          6    2    1    2  501    0  0.23516007562E+03  0.76361779824E+02 -0.31579835898E+03  0.44522109546E+03  0.19329210465E+03 0.  0.
         24    2    5    5    0    0  0.17767475277E+03  0.55331344063E+02 -0.32524977779E+03  0.38310619475E+03  0.79706104492E+02 0.  0.
          5    1    5    5  501    0  0.57485322857E+02  0.21030435762E+02  0.94514188152E+01  0.62114900707E+02  0.47000000000E+01 0. -1.
        -11    1    6    6    0    0  0.12631627968E+02  0.39445851578E+01 -0.91138977354E+02  0.92094684810E+02  0.00000000000E+00 0.  1.
         12    1    6    6    0    0  0.16504312480E+03  0.51386758905E+02 -0.23411080044E+03  0.29101150994E+03  0.00000000000E+00 0. -1.
         -5    1    3    3    0  503 -0.97110797646E+02  0.13404786518E+02 -0.31662481465E+03  0.33148689050E+03  0.47000000000E+01 0.  1.
         13    1    4    4    0    0 -0.26267015494E+02 -0.33424874342E+02 -0.15653888191E+03  0.16220850741E+03  0.00000000000E+00 0. -1.
        -14    1    4    4    0    0 -0.11178226248E+03 -0.56341692000E+02 -0.11829359806E+04  0.11895407495E+04  0.00000000000E+00 0.  1.
</event>
<event>
12    1  0.1035051E+000  0.2620467E+03  0.7818608E-02  0.1106054E+00
         21   -1    0    0  503  502  0.00000000000E+00  0.00000000000E+00  0.37662734470E+02  0.37662734470E+02  0.00000000000E+00 0.  1.
         21   -1    0    0  501  503 -0.00000000000E+00 -0.00000000000E+00 -0.18186587730E+04  0.18186587730E+04  0.00000000000E+00 0.  1.
          6    2    1    2  501    0 -0.16799953724E+02  0.19585160922E+03 -0.86062668019E+03  0.89937414666E+03  0.17191707812E+03 0.  0.
         24    2    3    3    0    0  0.80035105845E+01  0.25782928840E+02 -0.20294396238E+03  0.21958946369E+03  0.79400661829E+02 0.  0.
         -6    2    1    2    0  502  0.16799953724E+02 -0.19585160922E+03 -0.92036935833E+03  0.95694736080E+03  0.17328705754E+03 0.  0.
        -24    2    5    5    0    0 -0.46583693296E+02 -0.11302943535E+03 -0.37009475308E+03  0.39685698383E+03  0.74697025501E+02 0.  0.
          5    1    3    3  501    0 -0.24803464309E+02  0.17006868038E+03 -0.65768271782E+03  0.67978468297E+03  0.47000000000E+01 0. -1.
        -13    1    4    4    0    0  0.72847405527E+01 -0.13946242686E+02 -0.16116714121E+03  0.16193335831E+03  0.00000000000E+00 0.  1.
         14    1    4    4    0    0  0.71877003185E+00  0.39729171526E+02 -0.41776821170E+02  0.57656105380E+02  0.00000000000E+00 0. -1.
         -5    1    5    5    0  502  0.63383647020E+02 -0.82822173870E+02 -0.55027460525E+03  0.56009037697E+03  0.47000000000E+01 0.  1.
         13    1    6    6    0    0  0.20230173927E+02 -0.18548091012E+02 -0.65221890722E+02  0.70761477137E+02  0.00000000000E+00 0. -1.
        -14    1    6    6    0    0 -0.66813867223E+02 -0.94481344335E+02 -0.30487286236E+03  0.32609550669E+03  0.00000000000E+00 0.  1.
</event>
<event>
12    1  0.1035051E+000  0.1973497E+03  0.7818608E-02  0.1152299E+00
         21   -1    0    0  501  502  0.00000000000E+00  0.00000000000E+00  0.98381995306E+02  0.98381995306E+02  0.00000000000E+00 0.  1.
         21   -1    0    0  502  503 -0.00000000000E+00 -0.00000000000E+00 -0.44687750221E+03  0.44687750221E+03  0.00000000000E+00 0.  1.
         -6    2    1    2    0  503  0.37482877964E+02  0.86911381686E+02 -0.80172744217E+02  0.21301310415E+03  0.17317147345E+03 0.  0.
        -24    2    3    3    0    0  0.20763484817E+02  0.11337146308E+03 -0.10314208466E+03  0.17390614038E+03  0.79503742607E+02 0.  0.
          6    2    1    2  501    0 -0.37482877964E+02 -0.86911381686E+02 -0.26832276268E+03  0.33224639336E+03  0.17155758952E+03 0.  0.
         24    2    5    5    0    0 -0.85894536099E+02 -0.73883002925E+02 -0.23399624829E+03  0.27130521774E+03  0.77560992153E+02 0.  0.
          5    1    5    5  501    0  0.48411658135E+02 -0.13028378760E+02 -0.34326514392E+02  0.60941175628E+02  0.47000000000E+01 0. -1.
        -13    1    6    6    0    0 -0.12473821591E+02 -0.28139018456E+02 -0.11975635618E+02  0.33027510248E+02  0.00000000000E+00 0.  1.
         14    1    6    6    0    0 -0.73420714508E+02 -0.45743984469E+02 -0.22202061267E+03  0.23827770749E+03  0.00000000000E+00 0. -1.
         -5    1    3    3    0  503  0.16719393146E+02 -0.26460081398E+02  0.22969340447E+02  0.39106963771E+02  0.47000000000E+01 0.  1.
         13    1    4    4    0    0  0.64371407988E+01  0.72459303874E+02 -0.13019609797E+02  0.73900593629E+02  0.00000000000E+00 0. -1.
        -14    1    4    4    0    0  0.14326344019E+02  0.40912159210E+02 -0.90122474867E+02  0.10000554675E+03  0.00000000000E+00 0.  1.
</event>
<event>
12    1  0.1035051E+000  0.1777126E+03  0.7818608E-02  0.1171426E+00
         21   -1    0    0  501  502  0.00000000000E+00  0.00000000000E+00  0.46539999712E+03  0.46539999712E+03  0.00000000000E+00 0. -1.
         21   -1    0    0  502  503 -0.00000000000E+00 -0.00000000000E+00 -0.11404753827E+03  0.11404753827E+03  0.00000000000E+00 0. -1.
         -6    2    1    2    0  503  0.19147452524E+02  0.10001685171E+02  0.36258586128E+03  0.40138029871E+03  0.17079513678E+03 0.  0.
        -24    2    3    3    0    0 -0.44511315437E+02  0.17677885395E+02  0.29154455160E+03  0.30556630981E+03  0.77966526710E+02 0.  0.
          6    2    1    2  501    0 -0.19147452524E+02 -0.10001685171E+02 -0.11233402429E+02  0.17806723668E+03  0.17639470742E+03 0.  0.
         24    2    5    5    0    0  0.51955718052E+02 -0.20586110637E+02  0.23238675050E+02  0.98204197332E+02  0.77335915112E+02 0.  0.
          5    1    5    5  501    0 -0.71103170576E+02  0.10584425465E+02 -0.34472077479E+02  0.79863039349E+02  0.47000000000E+01 0. -1.
        -11    1    6    6    0    0  0.52459832949E+02 -0.29865464753E+02 -0.12184082437E+02  0.61582724224E+02  0.00000000000E+00 0.  1.
         12    1    6    6    0    0 -0.50411489748E+00  0.92793541161E+01  0.35422757487E+02  0.36621473108E+02  0.00000000000E+00 0. -1.
         -5    1    3    3    0  503  0.63658767962E+02 -0.76762002237E+01  0.71041309680E+02  0.95813988902E+02  0.47000000000E+01 0.  1.
         13    1    4    4    0    0 -0.35445899990E+02 -0.23936585635E+02  0.20106445511E+03  0.20556334076E+03  0.00000000000E+00 0. -1.
        -14    1    4    4    0    0 -0.90654154476E+01  0.41614471029E+02  0.90480096495E+02  0.10000296905E+03  0.00000000000E+00 0.  1.
</event>
<event>
12    1  0.1035051E+000  0.1882651E+03  0.7818608E-02  0.1160235E+00
         21   -1    0    0  501  502  0.00000000000E+00  0.00000000000E+00  0.41162054658E+02  0.41162054658E+02  0.00000000000E+00 0.  1.
         21   -1    0    0  502  503 -0.00000000000E+00 -0.00000000000E+00 -0.91184524086E+03  0.91184524086E+03  0.00000000000E+00 0.  1.
         -6    2    1    2    0  503  0.16187290022E+01  0.72810575191E+02 -0.55115006626E+03  0.58213647270E+03  0.17266290037E+03 0.  0.
        -24    2    3    3    0    0 -0.34666992434E+02  0.68061848875E+02 -0.17997805032E+03  0.20913518664E+03  0.74237538072E+02 0.  0.
          6    2    1    2  501    0 -0.16187290022E+01 -0.72810575191E+02 -0.31953311994E+03  0.37087082282E+03  0.17360804225E+03 0.  0.
         24    2    5    5    0    0  0.59438267630E+02 -0.63351121962E+02 -0.13746324755E+03  0.17854566449E+03  0.73730167292E+02 0.  0.
          5    1    5    5  501    0 -0.61056996633E+02 -0.94594532297E+01 -0.18206987239E+03  0.19232515833E+03  0.47000000000E+01 0. -1.
        -13    1    6    6    0    0  0.18567368038E+02 -0.70004061173E+02 -0.91145185503E+02  0.11641632436E+03  0.00000000000E+00 0.  1.
         14    1    6    6    0    0  0.40870899592E+02  0.66529392118E+01 -0.46318062050E+02  0.62129340136E+02  0.00000000000E+00 0. -1.
         -5    1    3    3    0  503  0.36285721437E+02  0.47487263162E+01 -0.37117201594E+03  0.37300128605E+03  0.47000000000E+01 0.  1.
         11    1    4    4    0    0 -0.13216706800E+02  0.74176373293E+02 -0.16729002647E+03  0.18347416344E+03  0.00000000000E+00 0. -1.
        -12    1    4    4    0    0 -0.21450285635E+02 -0.61145244180E+01 -0.12688023849E+02  0.25661023203E+02  0.00000000000E+00 0.  1.
</event>
<event>
12    1  0.1035051E+000  0.2638470E+03  0.7818608E-02  0.1106247E+00
         21   -1    0    0  503  502  0.00000000000E+00  0.00000000000E+00  0.55639734595E+03  0.55639734595E+03  0.00000000000E+00 0.  1.
         21   -1    0    0  501  503 -0.00000000000E+00 -0.00000000000E+00 -0.23878659426E+03  0.23878659426E+03  0.00000000000E+00 0.  1.
          6    2    1    2  501    0  0.17206900190E+03  0.93508861478E+02 -0.12213622071E+03  0.28235586699E+03  0.16265279162E+03 0.  0.
         24    2    3    3    0    0  0.13679931675E+03  0.82213998325E+02 -0.15207666748E+03  0.23450145260E+03  0.79940126931E+02 0.  0.
         -6    2    1    2    0  502 -0.17206900190E+03 -0.93508861478E+02  0.43974697240E+03  0.51282807322E+03  0.17681511347E+03 0.  0.
        -24    2    5    5    0    0 -0.72652599045E+02 -0.10072252587E+03  0.17030629419E+03  0.22550242663E+03  0.80147883378E+02 0.  0.
          5    1    3    3  501    0  0.35269685151E+02  0.11294863153E+02  0.29940446767E+02  0.47854414393E+02  0.47000000000E+01 0. -1.
        -13    1    4    4    0    0 -0.28011550016E+01  0.27255728199E+02 -0.14776759307E+02  0.31129950283E+02  0.00000000000E+00 0.  1.
         14    1    4    4    0    0  0.13960047175E+03  0.54958270126E+02 -0.13729990817E+03  0.20337150231E+03  0.00000000000E+00 0. -1.
         -5    1    5    5    0  502 -0.99416402857E+02  0.72136643924E+01  0.26944067821E+03  0.28732564658E+03  0.47000000000E+01 0.  1.
         11    1    6    6    0    0 -0.82385197241E+02 -0.50786837445E+02  0.11641716085E+03  0.15139213626E+03  0.00000000000E+00 0. -1.
        -12    1    6    6    0    0  0.97325981965E+01 -0.49935688425E+02  0.53889133346E+02  0.74110290372E+02  0.00000000000E+00 0.  1.
</event>
<event>
12    1  0.1035051E+000  0.1785854E+03  0.7818608E-02  0.1169255E+00
         21   -1    0    0  503  502  0.00000000000E+00  0.00000000000E+00  0.14030504986E+04  0.14030504986E+04  0.00000000000E+00 0.  1.
         21   -1    0    0  501  503 -0.00000000000E+00 -0.00000000000E+00 -0.61636663379E+02  0.61636663379E+02  0.00000000000E+00 0.  1.
          6    2    1    2  501    0 -0.15574941730E+02  0.45682458048E+02  0.12530547862E+04  0.12657168050E+04  0.17193972034E+03 0.  0.
         24    2    3    3    0    0  0.31692056846E+02  0.64438166143E+02  0.10756573000E+04  0.10811147903E+04  0.81325880883E+02 0.  0.
         -6    2    1    2    0  502  0.15574941730E+02 -0.45682458048E+02  0.88359048991E+02  0.19897035696E+03  0.17161706100E+03 0.  0.
        -24    2    5    5    0    0  0.19954664821E+02 -0.76614167784E+02  0.83920229410E+01  0.11298915031E+03  0.80176073025E+02 0.  0.
          5    1    3    3  501    0 -0.47266998576E+02 -0.18755708094E+02  0.17739748617E+03  0.18460201473E+03  0.47000000000E+01 0. -1.
        -11    1    4    4    0    0  0.40218238508E+02  0.51075474533E+02  0.39817444291E+03  0.40344652408E+03  0.00000000000E+00 0.  1.
         12    1    4    4    0    0 -0.85261816626E+01  0.13362691609E+02  0.67748285714E+03  0.67766826620E+03  0.00000000000E+00 0. -1.
         -5    1    5    5    0  502 -0.43797230907E+01  0.30931709736E+02  0.79967026050E+02  0.85981206649E+02  0.47000000000E+01 0.  1.
         11    1    6    6    0    0  0.49040618089E+02 -0.40492138302E+02 -0.73342778808E+01  0.64018646649E+02  0.00000000000E+00 0. -1.
        -12    1    6    6    0    0 -0.29085953268E+02 -0.36122029482E+02  0.15726300822E+02  0.48970503662E+02  0.00000000000E+00 0.  1.
</event>
<event>
12    1  0.1035051E+000  0.1911195E+03  0.7818608E-02  0.1157886E+00
         21   -1    0    0  503  502  0.00000000000E+00  0.00000000000E+00  0.12637587229E+04  0.12637587229E+04  0.00000000000E+00 0.  1.
         21   -1    0    0  501  503 -0.00000000000E+00 -0.00000000000E+00 -0.31630718999E+02  0.31630718999E+02  0.00000000000E+00 0.  1.
          6    2    1    2  501    0 -0.59246315352E+02 -0.58140059966E+02  0.41886969836E+03  0.46041119525E+03  0.17215182849E+03 0.  0.
         24    2    3    3    0    0  0.76376211259E+01  0.52215363278E+01  0.29666062888E+03  0.30729261536E+03  0.79596639574E+02 0.  0.
         -6    2    1    2    0  502  0.59246315352E+02  0.58140059966E+02  0.81325830554E+03  0.83497824664E+03  0.17002708134E+03 0.  0.
        -24    2    5    5    0    0  0.10460919404E+03  0.37049786786E+02  0.53394611334E+03  0.55118257878E+03  0.79925046307E+02 0.  0.
          5    1    3    3  501    0 -0.66883936477E+02 -0.63361596293E+02  0.12220906948E+03  0.15311857989E+03  0.47000000000E+01 0. -1.
        -11    1    4    4    0    0 -0.11955213775E+02 -0.44676060036E+01  0.27872802366E+03  0.27902006704E+03  0.00000000000E+00 0.  1.
         12    1    4    4    0    0  0.19592834901E+02  0.96891423314E+01  0.17932605223E+02  0.28272548322E+02  0.00000000000E+00 0. -1.
         -5    1    5    5    0  502 -0.45362878688E+02  0.21090273180E+02  0.27931219220E+03  0.28379566786E+03  0.47000000000E+01 0.  1.
         13    1    6    6    0    0  0.14485203227E+02  0.64044296068E+01  0.10159577680E+02  0.18816345281E+02  0.00000000000E+00 0. -1.
        -14    1    6    6    0    0  0.90123990813E+02  0.30645357179E+02  0.52378653566E+03  0.53236623350E+03  0.00000000000E+00 0.  1.
</event>
<event>
12    1  0.1035051E+000  0.3072143E+03  0.7818608E-02  0.1081703E+00
         21   -1    0    0  501  502  0.00000000000E+00  0.00000000000E+00  0.56244859946E+03  0.56244859946E+03  0.00000000000E+00 0.  1.
         21   -1    0    0  502  503 -0.00000000000E+00 -0.00000000000E+00 -0.16820040811E+03  0.16820040811E+03  0.00000000000E+00 0.  1.
         -6    2    1    2    0  503 -0.24121416195E+03 -0.80285147406E+02  0.17800255962E+03  0.35505712635E+03  0.17248383959E+03 0.  0.
        -24    2    3    3    0    0 -0.77622555243E+02  0.72932779099E+01  0.40432351086E+02  0.12401633635E+03  0.87560400196E+02 0.  0.
          6    2    1    2  501    0  0.24121416195E+03  0.80285147406E+02  0.21624563173E+03  0.37559188122E+03  0.17227045938E+03 0.  0.
         24    2    5    5    0    0  0.20272592858E+03  0.93830055137E+02  0.10972200984E+03  0.26142454502E+03  0.80012448601E+02 0.  0.
          5    1    5    5  501    0  0.38488233373E+02 -0.13544907731E+02  0.10652362189E+03  0.11416733620E+03  0.47000000000E+01 0. -1.
        -13    1    6    6    0    0  0.12941996481E+03  0.19040147887E+02  0.76582173955E+02  0.15158127817E+03  0.00000000000E+00 0.  1.
         14    1    6    6    0    0  0.73305963763E+02  0.74789907250E+02  0.33139835882E+02  0.10984326685E+03  0.00000000000E+00 0. -1.
         -5    1    3    3    0  503 -0.16359160671E+03 -0.87578425316E+02  0.13757020854E+03  0.23104079000E+03  0.47000000000E+01 0.  1.
         11    1    4    4    0    0 -0.57015546908E+02 -0.37159199967E+02  0.20034757677E+02  0.70943429904E+02  0.00000000000E+00 0. -1.
        -12    1    4    4    0    0 -0.20607008335E+02  0.44452477876E+02  0.20397593409E+02  0.53072906447E+02  0.00000000000E+00 0.  1.
</event>
<event>
12    1  0.1164481E+000  0.1768229E+03  0.7818608E-02  0.1171121E+00
         21   -1    0    0  501  502  0.00000000000E+00  0.00000000000E+00  0.14580041636E+03  0.14580041636E+03  0.00000000000E+00 0. -1.
         21   -1    0    0  502  503 -0.00000000000E+00 -0.00000000000E+00 -0.73455044312E+03  0.73455044312E+03  0.00000000000E+00 0. -1.
         -6    2    1    2    0  503 -0.10467872968E+02 -0.40545369875E+02  0.76577439821E+02  0.19192732679E+03  0.17093417182E+03 0.  0.
        -24    2    3    3    0    0  0.43233122126E+01 -0.77693465502E+02  0.74895237470E+01  0.11196489614E+03  0.80156592937E+02 0.  0.
          6    2    1    2  501    0  0.10467872968E+02  0.40545369875E+02 -0.66532746657E+03  0.68842353269E+03  0.17179295446E+03 0.  0.
         24    2    5    5    0    0 -0.21109898500E+01 -0.33493519081E+02 -0.48315231634E+03  0.49131985381E+03  0.82660545974E+02 0.  0.
          5    1    5    5  501    0  0.12578862818E+02  0.74038888956E+02 -0.18217515023E+03  0.19710367889E+03  0.47000000000E+01 0. -1.
        -13    1    6    6    0    0  0.39140537614E+02 -0.92569177701E+01 -0.18204747564E+03  0.18643753806E+03  0.00000000000E+00 0.  1.
         14    1    6    6    0    0 -0.41251527464E+02 -0.24236601311E+02 -0.30110484070E+03  0.30488231574E+03  0.00000000000E+00 0. -1.
         -5    1    3    3    0  503 -0.14791185180E+02  0.37148095627E+02  0.69087916074E+02  0.79962430649E+02  0.47000000000E+01 0.  1.
         11    1    4    4    0    0  0.39283316034E+02 -0.57826192574E+02  0.13815548348E+02  0.71259503523E+02  0.00000000000E+00 0. -1.
        -12    1    4    4    0    0 -0.34960003821E+02 -0.19867272929E+02 -0.63260246008E+01  0.40705392616E+02  0.00000000000E+00 0.  1.
</event>
<event>
12    1  0.1035051E+000  0.1842310E+03  0.7818608E-02  0.1163814E+00
         21   -1    0    0  503  502  0.00000000000E+00  0.00000000000E+00  0.18998147356E+03  0.18998147356E+03  0.00000000000E+00 0.  1.
         21   -1    0    0  501  503 -0.00000000000E+00 -0.00000000000E+00 -0.22378376224E+03  0.22378376224E+03  0.00000000000E+00 0.  1.
          6    2    1    2  501    0  0.14697060177E+02 -0.63244589185E+02  0.76196473342E+02  0.19919404025E+03  0.17221057309E+03 0.  0.
         24    2    3    3    0    0 -0.45653787545E+02 -0.43716282955E+02  0.87180620401E+02  0.13464699499E+03  0.80832981971E+02 0.  0.
         -6    2    1    2    0  502 -0.14697060177E+02  0.63244589185E+02 -0.10999876202E+03  0.21457119555E+03  0.17240994367E+03 0.  0.
        -24    2    5    5    0    0  0.20895390695E+02  0.10540433711E+03 -0.86243181736E+02  0.15431603395E+03  0.69490001472E+02 0.  0.
          5    1    3    3  501    0  0.60350847722E+02 -0.19528306230E+02 -0.10984147059E+02  0.64547045259E+02  0.47000000000E+01 0. -1.
        -11    1    4    4    0    0  0.18223090379E+02 -0.32753381779E+02  0.37140158346E+02  0.52766053509E+02  0.00000000000E+00 0.  1.
         12    1    4    4    0    0 -0.63876877924E+02 -0.10962901176E+02  0.50040462055E+02  0.81880941483E+02  0.00000000000E+00 0. -1.
         -5    1    5    5    0  502 -0.35592450873E+02 -0.42159747929E+02 -0.23755580289E+02  0.60255161600E+02  0.47000000000E+01 0.  1.
         11    1    6    6    0    0  0.20971815339E+02  0.11250794795E+01 -0.37087361542E+01  0.21326921163E+02  0.00000000000E+00 0. -1.
        -12    1    6    6    0    0 -0.76424643062E-01  0.10427925763E+03 -0.82534445581E+02  0.13298911279E+03  0.00000000000E+00 0.  1.
</event>
<event>
12    1  0.1035051E+000  0.2072703E+03  0.7818608E-02  0.1144121E+00
         21   -1    0    0  501  502  0.00000000000E+00  0.00000000000E+00  0.17853830660E+04  0.17853830660E+04  0.00000000000E+00 0.  1.
         21   -1    0    0  502  503 -0.00000000000E+00 -0.00000000000E+00 -0.28071601059E+02  0.28071601059E+02  0.00000000000E+00 0.  1.
         -6    2    1    2    0  503  0.25392265921E+02 -0.11228756618E+03  0.53029692787E+03  0.56936439813E+03  0.17235928018E+03 0.  0.
        -24    2    3    3    0    0  0.13057741288E+02 -0.68250050667E+02  0.50691032227E+03  0.51778468708E+03  0.79462779515E+02 0.  0.
          6    2    1    2  501    0 -0.25392265921E+02  0.11228756618E+03  0.12270145370E+04  0.12440902689E+04  0.17012541954E+03 0.  0.
         24    2    5    5    0    0  0.42161047092E+02  0.85950987936E+02  0.66398169937E+03  0.67638864678E+03  0.86398947827E+02 0.  0.
          5    1    5    5  501    0 -0.67553313013E+02  0.26336578242E+02  0.56303283766E+03  0.56770162210E+03  0.47000000000E+01 0. -1.
        -13    1    6    6    0    0  0.13359873876E+02 -0.16888326880E+02  0.13854616715E+03  0.14020963679E+03  0.00000000000E+00 0.  1.
         14    1    6    6    0    0  0.28801173216E+02  0.10283931482E+03  0.52543553221E+03  0.53617901000E+03  0.00000000000E+00 0. -1.
         -5    1    3    3    0  503  0.12334524634E+02 -0.44037515511E+02  0.23386605598E+02  0.51579711047E+02  0.47000000000E+01 0.  1.
         11    1    4    4    0    0  0.10867728840E+02 -0.85076448063E+02  0.36911455802E+03  0.37894810527E+03  0.00000000000E+00 0. -1.
        -12    1    4    4    0    0  0.21900124478E+01  0.16826397396E+02  0.13779576425E+03  0.13883658181E+03  0.00000000000E+00 0.  1.
</event>
<event>
12    1  0.1035051E+000  0.2855993E+03  0.7818608E-02  0.1093201E+00
         21   -1    0    0  503  502  0.00000000000E+00  0.00000000000E+00  0.38841604784E+03  0.38841604784E+03  0.00000000000E+00 0. -1.
         21   -1    0    0  501  503 -0.00000000000E+00 -0.00000000000E+00 -0.38405039517E+03  0.38405039517E+03  0.00000000000E+00 0. -1.
          6    2    1    2  501    0  0.19495737808E+03 -0.96551185038E+02  0.26436200200E+03  0.38917120634E+03  0.18503094104E+03 0.  0.
         24    2    3    3    0    0  0.10983937315E+03 -0.13548329147E+03  0.17117895746E+03  0.25701238724E+03  0.79578398823E+02 0.  0.
         -6    2    1    2    0  502 -0.19495737808E+03  0.96551185038E+02 -0.25999634933E+03  0.38329523667E+03  0.17884805335E+03 0.  0.
        -24    2    5    5    0    0 -0.94443539151E+02  0.11201736406E+03 -0.21420829609E+03  0.27166696816E+03  0.80313607435E+02 0.  0.
          5    1    3    3  501    0  0.85118004928E+02  0.38932106432E+02  0.93183044548E+02  0.13215881910E+03  0.47000000000E+01 0. -1.
        -13    1    4    4    0    0  0.17559275450E+02 -0.39031471599E+02  0.92855339617E+02  0.10224430559E+03  0.00000000000E+00 0.  1.
         14    1    4    4    0    0  0.92280097705E+02 -0.96451819871E+02  0.78323617839E+02  0.15476808166E+03  0.00000000000E+00 0. -1.
         -5    1    5    5    0  502 -0.10051383893E+03 -0.15466179024E+02 -0.45788053244E+02  0.11162826851E+03  0.47000000000E+01 0.  1.
         13    1    6    6    0    0 -0.74971136473E+02  0.10487083665E+03 -0.12317102229E+03  0.17829656311E+03  0.00000000000E+00 0. -1.
        -14    1    6    6    0    0 -0.19472402678E+02  0.71465274129E+01 -0.91037273794E+02  0.93370405054E+02  0.00000000000E+00 0.  1.
</event>
<event>
12    1  0.1035051E+000  0.1756458E+03  0.7818608E-02  0.1172090E+00
         21   -1    0    0  503  502  0.00000000000E+00  0.00000000000E+00  0.98262141289E+02  0.98262141289E+02  0.00000000000E+00 0. -1.
         21   -1    0    0  501  503 -0.00000000000E+00 -0.00000000000E+00 -0.35812805952E+03  0.35812805952E+03  0.00000000000E+00 0. -1.
          6    2    1    2  501    0  0.26798604574E+02 -0.10898051406E+02 -0.49761099122E+02  0.18253714717E+03  0.17322445087E+03 0.  0.
         24    2    3    3    0    0  0.40186422664E+02 -0.36003447299E+02  0.25369670749E+02  0.10206207552E+03  0.82836286014E+02 0.  0.
         -6    2    1    2    0  502 -0.26798604574E+02  0.10898051406E+02 -0.21010481911E+03  0.27385305364E+03  0.17324701222E+03 0.  0.
        -24    2    5    5    0    0 -0.10949575920E+02 -0.10633620023E+02 -0.26974227543E+02  0.88721456794E+02  0.83131948471E+02 0.  0.
          5    1    3    3  501    0 -0.13387818090E+02  0.25105395893E+02 -0.75130769871E+02  0.80475071653E+02  0.47000000000E+01 0. -1.
        -11    1    4    4    0    0  0.28280763183E+02  0.92660980907E+01 -0.20804930916E+02  0.36311255700E+02  0.00000000000E+00 0.  1.
         12    1    4    4    0    0  0.11905659481E+02 -0.45269545389E+02  0.46174601666E+02  0.65750819815E+02  0.00000000000E+00 0. -1.
         -5    1    5    5    0  502 -0.15849028654E+02  0.21531671429E+02 -0.18313059156E+03  0.18513159684E+03  0.47000000000E+01 0.  1.
         13    1    6    6    0    0 -0.12793178745E+02  0.15554729273E+02 -0.49935437451E+02  0.53843875590E+02  0.00000000000E+00 0. -1.
        -14    1    6    6    0    0  0.18436028249E+01 -0.26188349296E+02  0.22961209908E+02  0.34877581204E+02  0.00000000000E+00 0.  1.
</event>
<event>
12    1  0.1035051E+000  0.1797257E+03  0.7818608E-02  0.1168149E+00
         21   -1    0    0  503  502  0.00000000000E+00  0.00000000000E+00  0.10818528473E+03  0.10818528473E+03  0.00000000000E+00 0.  1.
         21   -1    0    0  501  503 -0.00000000000E+00 -0.00000000000E+00 -0.30297587852E+03  0.30297587852E+03  0.00000000000E+00 0.  1.
          6    2    1    2  501    0 -0.50941070700E+02 -0.31441648828E+01 -0.71198289813E+02  0.19331452669E+03  0.17232652523E+03 0.  0.
         24    2    3    3    0    0 -0.24680362834E+02 -0.68523933422E+02 -0.27387449218E+02  0.11021447455E+03  0.78054521097E+02 0.  0.
         -6    2    1    2    0  502  0.50941070700E+02  0.31441648828E+01 -0.12359230397E+03  0.21784663657E+03  0.17198029249E+03 0.  0.
        -24    2    5    5    0    0  0.85769997796E+02 -0.39082218002E+02 -0.93041701469E+02  0.15498527413E+03  0.80496985651E+02 0.  0.
          5    1    3    3  501    0 -0.26260707866E+02  0.65379768540E+02 -0.43810840596E+02  0.83100052140E+02  0.47000000000E+01 0. -1.
        -13    1    4    4    0    0 -0.31350162143E+02  0.22082222136E+01 -0.23166049960E+02  0.39043242469E+02  0.00000000000E+00 0.  1.
         14    1    4    4    0    0  0.66697993089E+01 -0.70732155636E+02 -0.42213992579E+01  0.71171232078E+02  0.00000000000E+00 0. -1.
         -5    1    5    5    0  502 -0.34828927096E+02  0.42226382885E+02 -0.30550602503E+02  0.62861362438E+02  0.47000000000E+01 0.  1.
         11    1    6    6    0    0  0.74937681827E+02 -0.34890024539E+02 -0.10802731586E+03  0.13602525847E+03  0.00000000000E+00 0. -1.
        -12    1    6    6    0    0  0.10832315969E+02 -0.41921934632E+01  0.14985614388E+02  0.18960015662E+02  0.00000000000E+00 0.  1.
</event>
<event>
12    1  0.1035051E+000  0.2163928E+03  0.7818608E-02  0.1136827E+00
         21   -1    0    0  503  502  0.00000000000E+00  0.00000000000E+00  0.59610157293E+02  0.59610157293E+02  0.00000000000E+00 0. -1.
         21   -1    0    0  501  503 -0.00000000000E+00 -0.00000000000E+00 -0.78136272075E+03  0.78136272075E+03  0.00000000000E+00 0. -1.
          6    2    1    2  501    0 -0.59553826409E+01  0.13060361757E+03 -0.35475038936E+03  0.41492542591E+03  0.17094589439E+03 0.  0.
         24    2    3    3    0    0  0.86819193752E+01  0.15729673913E+03 -0.33552884572E+03  0.37861659656E+03  0.77157507834E+02 0.  0.
         -6    2    1    2    0  502  0.59553826409E+01 -0.13060361757E+03 -0.36700217410E+03  0.42604745214E+03  0.17243278161E+03 0.  0.
        -24    2    5    5    0    0  0.16574296340E+02 -0.16795757014E+02 -0.76598723684E+02  0.11392368748E+03  0.80959479650E+02 0.  0.
          5    1    3    3  501    0 -0.14637302016E+02 -0.26693121557E+02 -0.19221543635E+02  0.36308829346E+02  0.47000000000E+01 0. -1.
        -13    1    4    4    0    0  0.42549890524E+02  0.84972649630E+02 -0.19680183404E+03  0.21854474656E+03  0.00000000000E+00 0.  1.
         14    1    4    4    0    0 -0.33867971149E+02  0.72324089497E+02 -0.13872701168E+03  0.16007185000E+03  0.00000000000E+00 0. -1.
         -5    1    5    5    0  502 -0.10618913699E+02 -0.11380786056E+03 -0.29040345041E+03  0.31212376466E+03  0.47000000000E+01 0.  1.
         13    1    6    6    0    0  0.44202638944E+02 -0.21588181706E+01 -0.68624225247E+02  0.81656708704E+02  0.00000000000E+00 0. -1.
        -14    1    6    6    0    0 -0.27628342604E+02 -0.14636938844E+02 -0.79744984367E+01  0.32266978772E+02  0.00000000000E+00 0.  1.
</event>
<event>
12    1  0.1035051E+000  0.2865090E+03  0.7818608E-02  0.1092228E+00
         21   -1    0    0  503  502  0.00000000000E+00  0.00000000000E+00  0.28135608936E+03  0.28135608936E+03  0.00000000000E+00 0. -1.
         21   -1    0    0  501  503 -0.00000000000E+00 -0.00000000000E+00 -0.56087843307E+03  0.56087843307E+03  0.00000000000E+00 0. -1.
          6    2    1    2  501    0  0.15775093036E+03  0.16570919067E+03 -0.43159907777E+03  0.51786633123E+03  0.17193859716E+03 0.  0.
         24    2    3    3    0    0  0.15862607809E+03  0.70836836832E+02 -0.28104838626E+03  0.33985192136E+03  0.79567851130E+02 0.  0.
         -6    2    1    2    0  502 -0.15775093036E+03 -0.16570919067E+03  0.15207673405E+03  0.32436819120E+03  0.17246013603E+03 0.  0.
        -24    2    5    5    0    0 -0.50208419018E+02 -0.14731101430E+03  0.11607665471E+03  0.20938132085E+03  0.78392139144E+02 0.  0.
          5    1    3    3  501    0 -0.87514773482E+00  0.94872353838E+02 -0.15055069151E+03  0.17801440987E+03  0.47000000000E+01 0. -1.
        -13    1    4    4    0    0  0.38928053505E+02  0.33583635855E+02 -0.30728390452E+02  0.59895641968E+02  0.00000000000E+00 0.  1.
         14    1    4    4    0    0  0.11969802459E+03  0.37253200976E+02 -0.25031999581E+03  0.27995627940E+03  0.00000000000E+00 0. -1.
         -5    1    5    5    0  502 -0.10754251134E+03 -0.18398176370E+02  0.36000079344E+02  0.11498687034E+03  0.47000000000E+01 0.  1.
         13    1    6    6    0    0  0.16287651558E+02 -0.16872132723E+02  0.34683055671E+02  0.41867299968E+02  0.00000000000E+00 0. -1.
        -14    1    6    6    0    0 -0.66496070576E+02 -0.13043888158E+03  0.81393599037E+02  0.16751402088E+03  0.00000000000E+00 0.  1.
</event>
<event>
12    1  0.1035051E+000  0.1742287E+03  0.7818608E-02  0.1173865E+00
         21   -1    0    0  503  502  0.00000000000E+00  0.00000000000E+00  0.52657047219E+02  0.52657047219E+02  0.00000000000E+00 0.  1.
         21   -1    0    0  501  503 -0.00000000000E+00 -0.00000000000E+00 -0.86999628797E+03  0.86999628797E+03  0.00000000000E+00 0.  1.
          6    2    1    2  501    0 -0.80385999412E+01 -0.16246879927E+02 -0.13751113480E+03  0.22085430067E+03  0.17186835001E+03 0.  0.
         24    2    3    3    0    0  0.23503003094E+02 -0.66397098398E+02 -0.11651538961E+03  0.15782392347E+03  0.79822233575E+02 0.  0.
         -6    2    1    2    0  502  0.80385999412E+01  0.16246879927E+02 -0.67982810594E+03  0.70179903451E+03  0.17328315271E+03 0.  0.
        -24    2    5    5    0    0  0.16774230646E+02 -0.26881653856E+02 -0.62569562163E+03  0.63187909795E+03  0.82293288774E+02 0.  0.
          5    1    3    3  501    0 -0.31541603036E+02  0.50150218471E+02 -0.20995745196E+02  0.63030377209E+02  0.47000000000E+01 0. -1.
        -13    1    4    4    0    0  0.48163904124E+02 -0.65010902619E+02 -0.80340779783E+02  0.11402113846E+03  0.00000000000E+00 0.  1.
         14    1    4    4    0    0 -0.24660901029E+02 -0.13861957791E+01 -0.36174609823E+02  0.43802785005E+02  0.00000000000E+00 0. -1.
         -5    1    5    5    0  502 -0.87356307053E+01  0.43128533783E+02 -0.54132484315E+02  0.69919936557E+02  0.47000000000E+01 0.  1.
         13    1    6    6    0    0  0.13141873486E+02 -0.82864225519E+01 -0.59868145975E+03  0.59888301352E+03  0.00000000000E+00 0. -1.
        -14    1    6    6    0    0  0.36323571601E+01 -0.18595231304E+02 -0.27014161880E+02  0.32996084432E+02  0.00000000000E+00 0.  1.
</event>
<event>
12    1  0.1035051E+000  0.2021189E+03  0.7818608E-02  0.1148385E+00
         21   -1    0    0  501  502  0.00000000000E+00  0.00000000000E+00  0.20939990510E+03  0.20939990510E+03  0.00000000000E+00 0.  1.
         21   -1    0    0  502  503 -0.00000000000E+00 -0.00000000000E+00 -0.20542002074E+03  0.20542002074E+03  0.00000000000E+00 0.  1.
         -6    2    1    2    0  503 -0.10413644138E+03  0.14696891677E+02 -0.48706031579E+02  0.20594706683E+03  0.17023959520E+03 0.  0.
        -24    2    3    3    0    0 -0.46856282399E+01  0.39338904655E+02 -0.52192982855E+02  0.10332181717E+03  0.79886080845E+02 0.  0.
          6    2    1    2  501    0  0.10413644138E+03 -0.14696891677E+02  0.52685915938E+02  0.20887285902E+03  0.17260263164E+03 0.  0.
         24    2    5    5    0    0  0.62149534556E+02 -0.37476255148E+02  0.95348263234E+02  0.14465474926E+03  0.81034997595E+02 0.  0.
          5    1    5    5  501    0  0.41986906824E+02  0.22779363472E+02 -0.42662347296E+02  0.64218109764E+02  0.47000000000E+01 0. -1.
        -11    1    6    6    0    0  0.14206653704E+02  0.25511125980E+02  0.20191363745E+02  0.35501235586E+02  0.00000000000E+00 0.  1.
         12    1    6    6    0    0  0.47942880852E+02 -0.62987381128E+02  0.75156899489E+02  0.10915351367E+03  0.00000000000E+00 0. -1.
         -5    1    3    3    0  503 -0.99450813140E+02 -0.24642012978E+02  0.34869512753E+01  0.10262524966E+03  0.47000000000E+01 0.  1.
         11    1    4    4    0    0 -0.30994468260E+02  0.21685233686E+02  0.47837452265E+01  0.38128606598E+02  0.00000000000E+00 0. -1.
        -12    1    4    4    0    0  0.26308840021E+02  0.17653670969E+02 -0.56976728081E+02  0.65193210572E+02  0.00000000000E+00 0.  1.
</event>
<event>
12    1  0.1035051E+000  0.2567132E+03  0.7818608E-02  0.1109194E+00
         21   -1    0    0  501  502  0.00000000000E+00  0.00000000000E+00  0.10777503068E+03  0.10777503068E+03  0.00000000000E+00 0. -1.
         21   -1    0    0  502  503 -0.00000000000E+00 -0.00000000000E+00 -0.66699212044E+03  0.66699212044E+03  0.00000000000E+00 0. -1.
         -6    2    1    2    0  503  0.18517904534E+03 -0.41388375894E+02 -0.39250184179E+03  0.46899823259E+03  0.17290855928E+03 0.  0.
        -24    2    3    3    0    0  0.17584317255E+03 -0.81148565870E+02 -0.36032133914E+03  0.41678993843E+03  0.79852828801E+02 0.  0.
          6    2    1    2  501    0 -0.18517904534E+03  0.41388375894E+02 -0.16671524797E+03  0.30576891853E+03  0.17232637971E+03 0.  0.
         24    2    5    5    0    0 -0.29421048902E+02  0.28020568807E+02 -0.10381591687E+03  0.13719351234E+03  0.79959770119E+02 0.  0.
          5    1    5    5  501    0 -0.15575799644E+03  0.13367807087E+02 -0.62899331101E+02  0.16857540620E+03  0.47000000000E+01 0. -1.
        -13    1    6    6    0    0 -0.45988896307E+02 -0.10186193793E+02 -0.45135215350E+02  0.65237449308E+02  0.00000000000E+00 0.  1.
         14    1    6    6    0    0  0.16567847405E+02  0.38206762601E+02 -0.58680701517E+02  0.71956063028E+02  0.00000000000E+00 0. -1.
         -5    1    3    3    0  503  0.93358727921E+01  0.39760189976E+02 -0.32180502657E+02  0.52208294159E+02  0.47000000000E+01 0. -1.
         11    1    4    4    0    0  0.28153844593E+02 -0.30195102119E+02 -0.28911499558E+02  0.50400971856E+02  0.00000000000E+00 0. -1.
        -12    1    4    4    0    0  0.14768932796E+03 -0.50953463751E+02 -0.33140983958E+03  0.36638896658E+03  0.00000000000E+00 0.  1.
</event>
<event>
12    1  0.1035051E+000  0.1815798E+03  0.7818608E-02  0.1166414E+00
         21   -1    0    0  501  502  0.00000000000E+00  0.00000000000E+00  0.52915697421E+03  0.52915697421E+03  0.00000000000E+00 0.  1.
         21   -1    0    0  502  503 -0.00000000000E+00 -0.00000000000E+00 -0.12634103161E+03  0.12634103161E+03  0.00000000000E+00 0.  1.
         -6    2    1    2    0  503 -0.14889281596E+02 -0.57537475506E+02 -0.32112382427E+02  0.18439748436E+03  0.17157789875E+03 0.  0.
        -24    2    3    3    0    0  0.22354223251E+02 -0.77207583491E+02 -0.64266352212E+02  0.13120012001E+03  0.81379267737E+02 0.  0.
          6    2    1    2  501    0  0.14889281596E+02  0.57537475506E+02  0.43492832503E+03  0.47110052146E+03  0.17099941991E+03 0.  0.
         24    2    5    5    0    0 -0.20626212580E+01  0.52421617434E+02  0.44164235422E+03  0.45158880185E+03  0.78308342673E+02 0.  0.
          5    1    5    5  501    0  0.16951902854E+02  0.51158580723E+01 -0.67140291901E+01  0.19511719610E+02  0.47000000000E+01 0. -1.
        -11    1    6    6    0    0  0.33187593064E+02  0.22132451591E+02  0.11646826550E+03  0.12311018892E+03  0.00000000000E+00 0.  1.
         12    1    6    6    0    0 -0.35250214322E+02  0.30289165843E+02  0.32517408872E+03  0.32847861293E+03  0.00000000000E+00 0. -1.
         -5    1    3    3    0  503 -0.37243504847E+02  0.19670107985E+02  0.32153969785E+02  0.53197364356E+02  0.47000000000E+01 0.  1.
         13    1    4    4    0    0  0.46765777606E+02 -0.48582190793E+02 -0.14774885479E+02  0.69033067861E+02  0.00000000000E+00 0. -1.
        -14    1    4    4    0    0 -0.24411554355E+02 -0.28625392697E+02 -0.49491466733E+02  0.62167052145E+02  0.00000000000E+00 0.  1.
</event>
<event>
12    1  0.1035051E+000  0.3136139E+03  0.7818608E-02  0.1078634E+00
         21   -1    0    0  501  502  0.00000000000E+00  0.00000000000E+00  0.19107856593E+03  0.19107856593E+03  0.00000000000E+00 0. -1.
         21   -1    0    0  502  503 -0.00000000000E+00 -0.00000000000E+00 -0.51758863950E+03  0.51758863950E+03  0.00000000000E+00 0. -1.
         -6    2    1    2    0  503  0.24349957557E+03  0.97981589304E+02 -0.19007215562E+03  0.36665988652E+03  0.17152146481E+03 0.  0.
        -24    2    3    3    0    0  0.16190422361E+03  0.13041485827E+03 -0.12073278110E+03  0.25467882894E+03  0.84046942822E+02 0.  0.
          6    2    1    2  501    0 -0.24349957557E+03 -0.97981589304E+02 -0.13643791795E+03  0.34200731892E+03  0.17164284311E+03 0.  0.
         24    2    5    5    0    0 -0.20915904083E+03 -0.19759268848E+02 -0.12402023621E+03  0.25555332789E+03  0.76082529807E+02 0.  0.
          5    1    5    5  501    0 -0.34340534743E+02 -0.78222320456E+02 -0.12417681746E+02  0.86453991024E+02  0.47000000000E+01 0. -1.
        -13    1    6    6    0    0 -0.12935957266E+03 -0.49064528401E+02 -0.73483701389E+02  0.15665593304E+03  0.00000000000E+00 0.  1.
         14    1    6    6    0    0 -0.79799468166E+02  0.29305259554E+02 -0.50536534819E+02  0.98897394852E+02  0.00000000000E+00 0. -1.
         -5    1    3    3    0  503  0.81595351960E+02 -0.32433268963E+02 -0.69339374521E+02  0.11198105758E+03  0.47000000000E+01 0.  1.
         11    1    4    4    0    0  0.40918423877E+02  0.59835812342E+02 -0.81807770102E+02  0.10930303335E+03  0.00000000000E+00 0. -1.
        -12    1    4    4    0    0  0.12098579973E+03  0.70579045926E+02 -0.38925010998E+02  0.14537579559E+03  0.00000000000E+00 0.  1.
</event>
<event>
12    1  0.1035051E+000  0.5260257E+03  0.7818608E-02  0.1007269E+00
         21   -1    0    0  503  502  0.00000000000E+00  0.00000000000E+00  0.11392598796E+04  0.11392598796E+04  0.00000000000E+00 0. -1.
         21   -1    0    0  501  503 -0.00000000000E+00 -0.00000000000E+00 -0.24979175862E+03  0.24979175862E+03  0.00000000000E+00 0. -1.
          6    2    1    2  501    0  0.25960951459E+03  0.42163232095E+03  0.32542882993E+03  0.61855233347E+03  0.17757294772E+03 0.  0.
         24    2    3    3    0    0  0.13426132830E+03  0.32054892647E+03  0.27356021819E+03  0.44931148932E+03  0.79170088543E+02 0.  0.
         -6    2    1    2    0  502 -0.25960951459E+03 -0.42163232095E+03  0.56403929106E+03  0.77049930474E+03  0.17423530818E+03 0.  0.
        -24    2    5    5    0    0 -0.24688818738E+03 -0.43186028216E+03  0.55971955993E+03  0.75297237023E+03  0.78894386301E+02 0.  0.
          5    1    3    3  501    0  0.12534818629E+03  0.10108339449E+03  0.51868611737E+02  0.16924084416E+03  0.47000000000E+01 0. -1.
        -11    1    4    4    0    0  0.12542179280E+03  0.20346213637E+03  0.18396039201E+03  0.30161049861E+03  0.00000000000E+00 0.  1.
         12    1    4    4    0    0  0.88395354958E+01  0.11708679009E+03  0.89599826185E+02  0.14770099070E+03  0.00000000000E+00 0. -1.
         -5    1    5    5    0  502 -0.12721327206E+02  0.10227961209E+02  0.43197311305E+01  0.17526934513E+02  0.47000000000E+01 0.  1.
         11    1    6    6    0    0  0.76219552281E+00 -0.28444158546E+02  0.48656214181E+02  0.56365577047E+02  0.00000000000E+00 0. -1.
        -12    1    6    6    0    0 -0.24765038291E+03 -0.40341612361E+03  0.51106334574E+03  0.69660679318E+03  0.00000000000E+00 0.  1.
</event>
<event>
12    1  0.1035051E+000  0.2287776E+03  0.7818608E-02  0.1127914E+00
         21   -1    0    0  501  502  0.00000000000E+00  0.00000000000E+00  0.28202683508E+02  0.28202683508E+02  0.00000000000E+00 0.  1.
         21   -1    0    0  502  503 -0.00000000000E+00 -0.00000000000E+00 -0.19836546173E+04  0.19836546173E+04  0.00000000000E+00 0.  1.
         -6    2    1    2    0  503  0.13929929031E+03 -0.49925662764E+02 -0.70893562777E+03  0.74493552325E+03  0.17447734924E+03 0.  0.
        -24    2    3    3    0    0  0.91973410157E+02 -0.87358583295E+02 -0.61675309001E+03  0.63466008293E+03  0.79488468153E+02 0.  0.
          6    2    1    2  501    0 -0.13929929031E+03  0.49925662764E+02 -0.12465163060E+04  0.12669217775E+04  0.17143810889E+03 0.  0.
         24    2    5    5    0    0 -0.15613162956E+03  0.70728535782E+02 -0.91896160537E+03  0.93824220854E+03  0.80177292374E+02 0.  0.
          5    1    5    5  501    0  0.16832339251E+02 -0.20802873018E+02 -0.32755470064E+03  0.32867956900E+03  0.47000000000E+01 0. -1.
        -11    1    6    6    0    0 -0.74615930879E+02  0.72067979000E+02 -0.60716761784E+03  0.61596578387E+03  0.00000000000E+00 0.  1.
         12    1    6    6    0    0 -0.81515698682E+02 -0.13394432179E+01 -0.31179398753E+03  0.32227642467E+03  0.00000000000E+00 0. -1.
         -5    1    3    3    0  503  0.47325880154E+02  0.37432920530E+02 -0.92182537755E+02  0.11027544032E+03  0.47000000000E+01 0.  1.
         13    1    4    4    0    0  0.36904068664E+02 -0.71120537920E+02 -0.22754312698E+03  0.24123829678E+03  0.00000000000E+00 0. -1.
        -14    1    4    4    0    0  0.55069341493E+02 -0.16238045374E+02 -0.38920996304E+03  0.39342178615E+03  0.00000000000E+00 0.  1.
</event>
<event>
12    1  0.1035051E+000  0.1783221E+03  0.7818608E-02  0.1170875E+00
         21   -1    0    0  501  502  0.00000000000E+00  0.00000000000E+00  0.13372244367E+03  0.13372244367E+03  0.00000000000E+00 0. -1.
         21   -1    0    0  502  503 -0.00000000000E+00 -0.00000000000E+00 -0.27906066758E+03  0.27906066758E+03  0.00000000000E+00 0. -1.
         -6    2    1    2    0  503  0.23756777688E+02  0.90753007634E+01  0.12726955831E+02  0.17877569427E+03  0.17649937078E+03 0.  0.
        -24    2    3    3    0    0  0.70093322777E+02  0.28783242575E+02 -0.25872755547E+02  0.11515568091E+03  0.82764016430E+02 0.  0.
          6    2    1    2  501    0 -0.23756777688E+02 -0.90753007634E+01 -0.15806517973E+03  0.23400741698E+03  0.17066963580E+03 0.  0.
         24    2    5    5    0    0 -0.43629429138E+02 -0.15271269335E+02 -0.18272767491E+03  0.20139390796E+03  0.70946206588E+02 0.  0.
          5    1    5    5  501    0  0.19872651450E+02  0.61959685720E+01  0.24662495178E+02  0.32613509020E+02  0.47000000000E+01 0. -1.
        -13    1    6    6    0    0  0.33823714698E+01  0.17902975492E+02 -0.13568673238E+02  0.22717083036E+02  0.00000000000E+00 0.  1.
         14    1    6    6    0    0 -0.47011800608E+02 -0.33174244827E+02 -0.16915900168E+03  0.17867682492E+03  0.00000000000E+00 0. -1.
         -5    1    3    3    0  503 -0.46336545089E+02 -0.19707941812E+02  0.38599711378E+02  0.63620013358E+02  0.47000000000E+01 0.  1.
         11    1    4    4    0    0  0.59100594068E+02  0.54323988188E+02 -0.50794566492E+01  0.80434922712E+02  0.00000000000E+00 0. -1.
        -12    1    4    4    0    0  0.10992728709E+02 -0.25540745613E+02 -0.20793298898E+02  0.34720758200E+02  0.00000000000E+00 0.  1.
</event>
<event>
12    1  0.1035051E+000  0.2072998E+03  0.7818608E-02  0.1143917E+00
         21   -1    0    0  503  502  0.00000000000E+00  0.00000000000E+00  0.11001398197E+03  0.11001398197E+03  0.00000000000E+00 0. -1.
         21   -1    0    0  501  503 -0.00000000000E+00 -0.00000000000E+00 -0.20416168319E+04  0.20416168319E+04  0.00000000000E+00 0. -1.
          6    2    1    2  501    0 -0.75035338881E+01 -0.11624759926E+03  0.25994327172E+01  0.20635148520E+03  0.17030669699E+03 0.  0.
         24    2    3    3    0    0 -0.36927260612E+02 -0.11716545928E+03  0.47742901035E+02  0.15225323298E+03  0.76225290610E+02 0.  0.
         -6    2    1    2    0  502  0.75035338881E+01  0.11624759926E+03 -0.19342022827E+04  0.19452793287E+04  0.17147416428E+03 0.  0.
        -24    2    5    5    0    0 -0.19762524644E+02  0.87480546623E+00 -0.56854737603E+03  0.57448038883E+03  0.79939200028E+02 0.  0.
          5    1    3    3  501    0  0.29423726724E+02  0.91786002585E+00 -0.45143468318E+02  0.54098252219E+02  0.47000000000E+01 0. -1.
        -13    1    4    4    0    0 -0.28779283818E+02 -0.98604505839E+02  0.25812231761E+01  0.10275095358E+03  0.00000000000E+00 0.  1.
         14    1    4    4    0    0 -0.81479767941E+01 -0.18560953442E+02  0.45161677859E+02  0.49502279397E+02  0.00000000000E+00 0. -1.
         -5    1    5    5    0  502  0.27266058532E+02  0.11537279379E+03 -0.13656549067E+04  0.13707989399E+04  0.47000000000E+01 0.  1.
         13    1    6    6    0    0 -0.96695687374E+01  0.21452851864E+02 -0.52263994388E+03  0.52316941458E+03  0.00000000000E+00 0. -1.
        -14    1    6    6    0    0 -0.10092955907E+02 -0.20578046398E+02 -0.45907432151E+02  0.51310974257E+02  0.00000000000E+00 0.  1.
</event>
<event>
12    1  0.1035051E+000  0.2181569E+03  0.7818608E-02  0.1135529E+00
         21   -1    0    0  503  502  0.00000000000E+00  0.00000000000E+00  0.54683542520E+02  0.54683542520E+02  0.00000000000E+00 0. -1.
         21   -1    0    0  501  503 -0.00000000000E+00 -0.00000000000E+00 -0.11358785575E+04  0.11358785575E+04  0.00000000000E+00 0. -1.
          6    2    1    2  501    0 -0.10944778373E+03 -0.71601046567E+02 -0.83275271644E+03  0.86085396044E+03  0.17460506076E+03 0.  0.
         24    2    3    3    0    0 -0.59399010272E+02 -0.49952778112E+02 -0.76833047671E+03  0.77632087684E+03  0.79491256859E+02 0.  0.
         -6    2    1    2    0  502  0.10944778373E+03  0.71601046567E+02 -0.24844229853E+03  0.32970813957E+03  0.17285356336E+03 0.  0.
        -24    2    5    5    0    0  0.91823498720E+02  0.12541984687E+02 -0.70841892184E+02  0.14165872439E+03  0.80372658357E+02 0.  0.
          5    1    3    3  501    0 -0.50048773453E+02 -0.21648268455E+02 -0.64422239724E+02  0.84533083597E+02  0.47000000000E+01 0. -1.
        -11    1    4    4    0    0 -0.34656544214E+02 -0.43549873893E+02 -0.20529605503E+03  0.21270669427E+03  0.00000000000E+00 0.  1.
         12    1    4    4    0    0 -0.24742466058E+02 -0.64029042190E+01 -0.56303442168E+03  0.56361418258E+03  0.00000000000E+00 0. -1.
         -5    1    5    5    0  502  0.17624285005E+02  0.59059061880E+02 -0.17760040635E+03  0.18804941517E+03  0.47000000000E+01 0.  1.
         13    1    6    6    0    0  0.30455398240E+02  0.12779521131E+02  0.14887341056E+02  0.36228170890E+02  0.00000000000E+00 0. -1.
        -14    1    6    6    0    0  0.61368100480E+02 -0.23753644391E+00 -0.85729233240E+02  0.10543055350E+03  0.00000000000E+00 0.  1.
</event>
<event>
12    1  0.1035051E+000  0.2026154E+03  0.7818608E-02  0.1147656E+00
         21   -1    0    0  503  502  0.00000000000E+00  0.00000000000E+00  0.11789782192E+03  0.11789782192E+03  0.00000000000E+00 0. -1.
         21   -1    0    0  501  503 -0.00000000000E+00 -0.00000000000E+00 -0.35856104667E+03  0.35856104667E+03  0.00000000000E+00 0. -1.
          6    2    1    2  501    0  0.10457132998E+03 -0.24941912715E+02 -0.78333186699E+02  0.21723053557E+03  0.17174328337E+03 0.  0.
         24    2    3    3    0    0  0.76707127473E+02 -0.38666645200E+02  0.16339855813E+02  0.11748156545E+03  0.78459126146E+02 0.  0.
         -6    2    1    2    0  502 -0.10457132998E+03  0.24941912715E+02 -0.16233003805E+03  0.25922833301E+03  0.17114621035E+03 0.  0.
        -24    2    5    5    0    0 -0.51934774512E+02  0.74690659146E+01 -0.17681376855E+03  0.20171506675E+03  0.81687524483E+02 0.  0.
          5    1    3    3  501    0  0.27864202508E+02  0.13724732484E+02 -0.94673042512E+02  0.99748970128E+02  0.47000000000E+01 0. -1.
        -11    1    4    4    0    0  0.27637412490E+02 -0.49378380013E+02 -0.14666405028E+02  0.58456431795E+02  0.00000000000E+00 0.  1.
         12    1    4    4    0    0  0.49069714983E+02  0.10711734813E+02  0.31006260840E+02  0.59025133651E+02  0.00000000000E+00 0. -1.
         -5    1    5    5    0  502 -0.52636555469E+02  0.17472846801E+02  0.14483730495E+02  0.57513266261E+02  0.47000000000E+01 0.  1.
         11    1    6    6    0    0 -0.24903854773E+02 -0.23198312303E+02 -0.14759099423E+03  0.15146440260E+03  0.00000000000E+00 0. -1.
        -12    1    6    6    0    0 -0.27030919739E+02  0.30667378218E+02 -0.29222774313E+02  0.50250664147E+02  0.00000000000E+00 0.  1.
</event>
<event>
12    1  0.1035051E+000  0.1975831E+03  0.7818608E-02  0.1152229E+00
         21   -1    0    0  501  502  0.00000000000E+00  0.00000000000E+00  0.17504010400E+04  0.17504010400E+04  0.00000000000E+00 0.  1.
         21   -1    0    0  502  503 -0.00000000000E+00 -0.00000000000E+00 -0.23109611489E+02  0.23109611489E+02  0.00000000000E+00 0.  1.
         -6    2    1    2    0  503  0.53087575632E+02  0.75437728589E+02  0.10554492332E+04  0.10737840373E+04  0.17472816987E+03 0.  0.
        -24    2    3    3    0    0  0.20524036741E+02  0.89515336643E+02  0.41431658846E+03  0.43165342656E+03  0.78944370356E+02 0.  0.
          6    2    1    2  501    0 -0.53087575632E+02 -0.75437728589E+02  0.67184219528E+03  0.69972661414E+03  0.17244204129E+03 0.  0.
         24    2    5    5    0    0 -0.59762243458E+02 -0.11006864201E+03  0.41133003510E+03  0.43679596368E+03  0.76887478891E+02 0.  0.
          5    1    5    5  501    0  0.66746678262E+01  0.34630913421E+02  0.26051216017E+03  0.26293065047E+03  0.47000000000E+01 0. -1.
        -13    1    6    6    0    0 -0.17911221639E+02  0.59083914333E+01  0.10326700447E+03  0.10497521213E+03  0.00000000000E+00 0.  1.
         14    1    6    6    0    0 -0.41851021819E+02 -0.11597703344E+03  0.30806303063E+03  0.33182075155E+03  0.00000000000E+00 0. -1.
         -5    1    3    3    0  503  0.32563538891E+02 -0.14077608054E+02  0.64113264474E+03  0.64213061075E+03  0.47000000000E+01 0.  1.
         13    1    4    4    0    0  0.11326693876E+02  0.10360317357E+03  0.36129381537E+03  0.37602544142E+03  0.00000000000E+00 0. -1.
        -14    1    4    4    0    0  0.91973428652E+01 -0.14087836928E+02  0.53022773089E+02  0.55627985144E+02  0.00000000000E+00 0.  1.
</event>
<event>
12    1  0.1035051E+000  0.1858804E+03  0.7818608E-02  0.1162423E+00
         21   -1    0    0  501  502  0.00000000000E+00  0.00000000000E+00  0.10204151730E+03  0.10204151730E+03  0.00000000000E+00 0. -1.
         21   -1    0    0  502  503 -0.00000000000E+00 -0.00000000000E+00 -0.35654033609E+03  0.35654033609E+03  0.00000000000E+00 0. -1.
         -6    2    1    2    0  503 -0.84914689093E+01  0.71586017574E+02 -0.73966386520E+02  0.20005632596E+03  0.17133255460E+03 0.  0.
        -24    2    3    3    0    0 -0.53483566737E+02  0.37413907033E+01 -0.74867551948E+02  0.11850827656E+03  0.74596054609E+02 0.  0.
          6    2    1    2  501    0  0.84914689093E+01 -0.71586017574E+02 -0.18053243227E+03  0.25852552742E+03  0.17043129487E+03 0.  0.
         24    2    5    5    0    0 -0.46114431796E+02 -0.50279818243E+01 -0.56576999995E+02  0.10753276036E+03  0.78806828391E+02 0.  0.
          5    1    5    5  501    0  0.54605900705E+02 -0.66558035750E+02 -0.12395543228E+03  0.15099276706E+03  0.47000000000E+01 0. -1.
        -11    1    6    6    0    0  0.15292635764E+02 -0.13920130945E+02  0.37222686247E+01  0.21011664328E+02  0.00000000000E+00 0.  1.
         12    1    6    6    0    0 -0.61407067560E+02  0.88921491203E+01 -0.60299268620E+02  0.86521096031E+02  0.00000000000E+00 0. -1.
         -5    1    3    3    0  503  0.44992097827E+02  0.67844626871E+02  0.90116542765E+00  0.81548049402E+02  0.47000000000E+01 0.  1.
         11    1    4    4    0    0 -0.52773567211E+02  0.28337046082E+02 -0.29210739097E+02  0.66643115589E+02  0.00000000000E+00 0. -1.
        -12    1    4    4    0    0 -0.70999952534E+00 -0.24595655379E+02 -0.45656812851E+02  0.51865160971E+02  0.00000000000E+00 0.  1.
</event>
<event>
12    1  0.1035051E+000  0.1763310E+03  0.7818608E-02  0.1172148E+00
         21   -1    0    0  503  502  0.00000000000E+00  0.00000000000E+00  0.49387666761E+03  0.49387666761E+03  0.00000000000E+00 0.  1.
         21   -1    0    0  501  503 -0.00000000000E+00 -0.00000000000E+00 -0.62341013907E+02  0.62341013907E+02  0.00000000000E+00 0.  1.
          6    2    1    2  501    0  0.29535127591E+02  0.23457299017E+01  0.23736306419E+03  0.29392851679E+03  0.17080668175E+03 0.  0.
         24    2    3    3    0    0  0.60192143735E+02 -0.49616200588E+02  0.17358837049E+03  0.20601266830E+03  0.78888754603E+02 0.  0.
         -6    2    1    2    0  502 -0.29535127591E+02 -0.23457299017E+01  0.19417258951E+03  0.26228916472E+03  0.17382400641E+03 0.  0.
        -24    2    5    5    0    0 -0.83900973823E+02 -0.23632811695E+01  0.16044123254E+03  0.19813669020E+03  0.80447500880E+02 0.  0.
          5    1    3    3  501    0 -0.30657016144E+02  0.51961930489E+02  0.63774693696E+02  0.87915848486E+02  0.47000000000E+01 0. -1.
        -13    1    4    4    0    0  0.39671198648E+02  0.11825004075E+02  0.40082837384E+02  0.57621771721E+02  0.00000000000E+00 0.  1.
         14    1    4    4    0    0  0.20520945087E+02 -0.61441204663E+02  0.13350553311E+03  0.14839089658E+03  0.00000000000E+00 0. -1.
         -5    1    5    5    0  502  0.54365846233E+02  0.17551267713E-01  0.33731356972E+02  0.64152474526E+02  0.47000000000E+01 0.  1.
         11    1    6    6    0    0  0.15503524235E+02 -0.57404002809E+01  0.27839063901E+02  0.32377846407E+02  0.00000000000E+00 0. -1.
        -12    1    6    6    0    0 -0.99404498058E+02  0.33771191115E+01  0.13260216864E+03  0.16575884379E+03  0.00000000000E+00 0.  1.
</event>
<event>
12    1  0.1035051E+000  0.7500093E+03  0.7818608E-02  0.9635408E-01
         21   -1    0    0  503  502  0.00000000000E+00  0.00000000000E+00  0.93710593376E+03  0.93710593376E+03  0.00000000000E+00 0. -1.
         21   -1    0    0  501  503 -0.00000000000E+00 -0.00000000000E+00 -0.13017982630E+04  0.13017982630E+04  0.00000000000E+00 0. -1.
          6    2    1    2  501    0  0.42171452362E+03  0.59595728620E+03 -0.10042054386E+04  0.12532617550E+04  0.17096267724E+03 0.  0.
         24    2    3    3    0    0  0.33063564717E+03  0.53988845259E+03 -0.80540565211E+03  0.10274686617E+04  0.78829651058E+02 0.  0.
         -6    2    1    2    0  502 -0.42171452362E+03 -0.59595728620E+03  0.63951310939E+03  0.98564244182E+03  0.17177246467E+03 0.  0.
        -24    2    5    5    0    0 -0.23509873079E+03 -0.23538698458E+03  0.25955415435E+03  0.42956034890E+03  0.80469177824E+02 0.  0.
          5    1    3    3  501    0  0.91078876455E+02  0.56068833616E+02 -0.19879978653E+03  0.22579309326E+03  0.47000000000E+01 0. -1.
        -11    1    4    4    0    0  0.25142511203E+03  0.45655289398E+03 -0.68810627379E+03  0.86321803503E+03  0.00000000000E+00 0.  1.
         12    1    4    4    0    0  0.79210535143E+02  0.83335558605E+02 -0.11729937832E+03  0.16425062667E+03  0.00000000000E+00 0. -1.
         -5    1    5    5    0  502 -0.18661579283E+03 -0.36057030162E+03  0.37995895504E+03  0.55608209292E+03  0.47000000000E+01 0.  1.
         13    1    6    6    0    0 -0.97938617211E+02 -0.14536747599E+03  0.10595076118E+03  0.20481513521E+03  0.00000000000E+00 0. -1.
        -14    1    6    6    0    0 -0.13716011358E+03 -0.90019508594E+02  0.15360339317E+03  0.22474521369E+03  0.00000000000E+00 0.  1.
</event>
<event>
12    1  0.1035051E+000  0.1829514E+03  0.7818608E-02  0.1165126E+00
         21   -1    0    0  503  502  0.00000000000E+00  0.00000000000E+00  0.14880991067E+03  0.14880991067E+03  0.00000000000E+00 0. -1.
         21   -1    0    0  501  503 -0.00000000000E+00 -0.00000000000E+00 -0.22591839204E+03  0.22591839204E+03  0.00000000000E+00 0. -1.
          6    2    1    2  501    0 -0.55604196098E+02  0.25830013451E+02 -0.22072848762E+02  0.18427812549E+03  0.17237227347E+03 0.  0.
         24    2    3    3    0    0 -0.97192222794E+02  0.32141102724E+02  0.93403143874E+01  0.13156882241E+03  0.82120246592E+02 0.  0.
         -6    2    1    2    0  502  0.55604196098E+02 -0.25830013451E+02 -0.55035632604E+02  0.19045017722E+03  0.17170711380E+03 0.  0.
        -24    2    5    5    0    0  0.90448333440E+01 -0.53247521571E+02  0.15615797144E+02  0.10138161634E+03  0.84363922669E+02 0.  0.
          5    1    3    3  501    0  0.41588026697E+02 -0.63110892722E+01 -0.31413163150E+02  0.52709303082E+02  0.47000000000E+01 0. -1.
        -13    1    4    4    0    0 -0.23605340545E+02  0.40398097640E+01  0.40344253648E+02  0.46916851638E+02  0.00000000000E+00 0.  1.
         14    1    4    4    0    0 -0.73586882249E+02  0.28101292960E+02 -0.31003939261E+02  0.84651970768E+02  0.00000000000E+00 0. -1.
         -5    1    5    5    0  502  0.46559362754E+02  0.27417508119E+02 -0.70651429748E+02  0.89068560878E+02  0.47000000000E+01 0.  1.
         11    1    6    6    0    0  0.46841023213E+02 -0.30033870165E+02  0.57243848942E+01  0.55936422796E+02  0.00000000000E+00 0. -1.
        -12    1    6    6    0    0 -0.37796189869E+02 -0.23213651406E+02  0.98914122501E+01  0.45445193547E+02  0.00000000000E+00 0.  1.
</event>
<event>
12    1  0.1035051E+000  0.1801441E+03  0.7818608E-02  0.1167787E+00
         21   -1    0    0  501  502  0.00000000000E+00  0.00000000000E+00  0.73315761503E+02  0.73315761503E+02  0.00000000000E+00 0.  1.
         21   -1    0    0  502  503 -0.00000000000E+00 -0.00000000000E+00 -0.45816021572E+03  0.45816021572E+03  0.00000000000E+00 0.  1.
         -6    2    1    2    0  503 -0.42725065047E+02 -0.12181666415E+02 -0.24301499307E+03  0.30219991978E+03  0.17405367125E+03 0.  0.
        -24    2    3    3    0    0 -0.41343419495E+02 -0.74953930746E+02 -0.15006595920E+03  0.18993292101E+03  0.78913574898E+02 0.  0.
          6    2    1    2  501    0  0.42725065047E+02  0.12181666415E+02 -0.14182946114E+03  0.22927605744E+03  0.17457975338E+03 0.  0.
         24    2    5    5    0    0  0.72068353158E+02  0.64215378290E+02 -0.66041097524E+02  0.13266083200E+03  0.62609962850E+02 0.  0.
          5    1    5    5  501    0 -0.29343288111E+02 -0.52033711875E+02 -0.75788363617E+02  0.96615225448E+02  0.47000000000E+01 0. -1.
        -11    1    6    6    0    0 -0.86022932878E+01 -0.28106139093E+01 -0.10899555942E+02  0.14166838747E+02  0.00000000000E+00 0.  1.
         12    1    6    6    0    0  0.80670646446E+02  0.67025992199E+02 -0.55141541582E+02  0.11849399325E+03  0.00000000000E+00 0. -1.
         -5    1    3    3    0  503 -0.13816455523E+01  0.62772264331E+02 -0.92949033870E+02  0.11226699876E+03  0.47000000000E+01 0.  1.
         11    1    4    4    0    0 -0.52089573473E+02 -0.13648307002E+02 -0.76836015281E+02  0.93826292653E+02  0.00000000000E+00 0. -1.
        -12    1    4    4    0    0  0.10746153978E+02 -0.61305623745E+02 -0.73229943924E+02  0.96106628362E+02  0.00000000000E+00 0.  1.
</event>
<event>
12    1  0.1035051E+000  0.2687281E+03  0.7818608E-02  0.1102173E+00
         21   -1    0    0  501  502  0.00000000000E+00  0.00000000000E+00  0.12562356243E+03  0.12562356243E+03  0.00000000000E+00 0. -1.
         21   -1    0    0  502  503 -0.00000000000E+00 -0.00000000000E+00 -0.58790225292E+03  0.58790225292E+03  0.00000000000E+00 0. -1.
         -6    2    1    2    0  503 -0.16382982173E+03 -0.12694401189E+03 -0.17375312395E+03  0.32000771300E+03  0.17105494924E+03 0.  0.
        -24    2    3    3    0    0 -0.70248189597E+02 -0.13435023565E+03 -0.11945511637E+03  0.21145939358E+03  0.86375669871E+02 0.  0.
          6    2    1    2  501    0  0.16382982173E+03  0.12694401189E+03 -0.28852556654E+03  0.39351810234E+03  0.16927640615E+03 0.  0.
         24    2    5    5    0    0  0.14896757109E+03  0.14867980635E+03 -0.28946283470E+03  0.36675432595E+03  0.80143501785E+02 0.  0.
          5    1    5    5  501    0  0.14862250641E+02 -0.21735794461E+02  0.93726815992E+00  0.26763776388E+02  0.47000000000E+01 0. -1.
        -11    1    6    6    0    0  0.71468619545E+02  0.11618926100E+03 -0.21417877392E+03  0.25392962637E+03  0.00000000000E+00 0.  1.
         12    1    6    6    0    0  0.77498951541E+02  0.32490545344E+02 -0.75284060782E+02  0.11282469958E+03  0.00000000000E+00 0. -1.
         -5    1    3    3    0  503 -0.93581632130E+02  0.74062237627E+01 -0.54298007575E+02  0.10854831942E+03  0.47000000000E+01 0.  1.
         13    1    4    4    0    0 -0.13902757740E+02 -0.39893301055E+02  0.81187206193E+01  0.43019481242E+02  0.00000000000E+00 0. -1.
        -14    1    4    4    0    0 -0.56345431857E+02 -0.94456934595E+02 -0.12757383699E+03  0.16843991234E+03  0.00000000000E+00 0.  1.
</event>
<event>
12    1  0.1035051E+000  0.2126240E+03  0.7818608E-02  0.1139598E+00
         21   -1    0    0  501  502  0.00000000000E+00  0.00000000000E+00  0.57076032240E+03  0.57076032240E+03  0.00000000000E+00 0.  1.
         21   -1    0    0  502  503 -0.00000000000E+00 -0.00000000000E+00 -0.16135122000E+03  0.16135122000E+03  0.00000000000E+00 0.  1.
         -6    2    1    2    0  503  0.94725651130E+02  0.81162525229E+02 -0.56876725126E+02  0.21963576405E+03  0.17159429625E+03 0.  0.
        -24    2    3    3    0    0  0.95447385318E+02  0.88713735390E+02 -0.95195575926E+02  0.18029156496E+03  0.80389803521E+02 0.  0.
          6    2    1    2  501    0 -0.94725651130E+02 -0.81162525229E+02  0.46628582753E+03  0.51247577835E+03  0.17218782173E+03 0.  0.
         24    2    5    5    0    0 -0.66401184660E+02 -0.10905509325E+03  0.24509559357E+03  0.28769259314E+03  0.79956534901E+02 0.  0.
          5    1    5    5  501    0 -0.28324466470E+02  0.27892568017E+02  0.22119023397E+03  0.22478318521E+03  0.47000000000E+01 0. -1.
        -13    1    6    6    0    0 -0.27712523376E+02  0.46557821075E+01  0.69309665620E+02  0.74789638368E+02  0.00000000000E+00 0.  1.
         14    1    6    6    0    0 -0.38688661284E+02 -0.11371087535E+03  0.17578592795E+03  0.21290295477E+03  0.00000000000E+00 0. -1.
         -5    1    3    3    0  503 -0.72173418736E+00 -0.75512101615E+01  0.38318850799E+02  0.39344199086E+02  0.47000000000E+01 0.  1.
         11    1    4    4    0    0  0.46426328781E+01  0.15615839104E+02 -0.54401818607E+02  0.56788787086E+02  0.00000000000E+00 0. -1.
        -12    1    4    4    0    0  0.90804752439E+02  0.73097896287E+02 -0.40793757318E+02  0.12350277788E+03  0.00000000000E+00 0.  1.
</event>
<event>
12    1  0.1035051E+000  0.3284734E+03  0.7818608E-02  0.1071893E+00
         21   -1    0    0  501  502  0.00000000000E+00  0.00000000000E+00  0.58299367667E+02  0.58299367667E+02  0.00000000000E+00 0. -1.
         21   -1    0    0  502  503 -0.00000000000E+00 -0.00000000000E+00 -0.18556451767E+04  0.18556451767E+04  0.00000000000E+00 0. -1.
         -6    2    1    2    0  503 -0.15304193329E+03 -0.23321249966E+03 -0.96598839060E+03  0.10203079742E+04  0.17344995856E+03 0.  0.
        -24    2    3    3    0    0 -0.13823294595E+03 -0.22825845545E+03 -0.69206799042E+03  0.74590257285E+03  0.78754523664E+02 0.  0.
          6    2    1    2  501    0  0.15304193329E+03  0.23321249966E+03 -0.83135741848E+03  0.89363657020E+03  0.17210827696E+03 0.  0.
         24    2    5    5    0    0  0.21096062667E+02  0.47187507433E+02 -0.30720657692E+03  0.32199751869E+03  0.81454382450E+02 0.  0.
          5    1    5    5  501    0  0.13194587062E+03  0.18602499223E+03 -0.52415084156E+03  0.57163905151E+03  0.47000000000E+01 0. -1.
        -13    1    6    6    0    0  0.21044826238E+00  0.59569292460E+02 -0.12834539227E+03  0.14149588196E+03  0.00000000000E+00 0.  1.
         14    1    6    6    0    0  0.20885614404E+02 -0.12381785027E+02 -0.17886118465E+03  0.18050163674E+03  0.00000000000E+00 0. -1.
         -5    1    3    3    0  503 -0.14808987342E+02 -0.49540442167E+01 -0.27392040018E+03  0.27440540136E+03  0.47000000000E+01 0.  1.
         11    1    4    4    0    0 -0.92408130577E+02 -0.18833246971E+03 -0.45279065310E+03  0.49902681018E+03  0.00000000000E+00 0. -1.
        -12    1    4    4    0    0 -0.45824815372E+02 -0.39925985738E+02 -0.23927733732E+03  0.24687576268E+03  0.00000000000E+00 0.  1.
</event>
<event>
12    1  0.1035051E+000  0.2214816E+03  0.7818608E-02  0.1133078E+00
         21   -1    0    0  503  502  0.00000000000E+00  0.00000000000E+00  0.60257050910E+03  0.60257050910E+03  0.00000000000E+00 0.  1.
         21   -1    0    0  501  503 -0.00000000000E+00 -0.00000000000E+00 -0.93034390696E+02  0.93034390696E+02  0.00000000000E+00 0.  1.
          6    2    1    2  501    0  0.13673903105E+03 -0.10799275611E+02  0.12957042271E+03  0.25659807420E+03  0.17389620546E+03 0.  0.
         24    2    3    3    0    0  0.11324727652E+03  0.10071196270E+02  0.15911070443E+03  0.21321423653E+03  0.84957164275E+02 0.  0.
         -6    2    1    2    0  502 -0.13673903105E+03  0.10799275611E+02  0.37996569569E+03  0.43900682560E+03  0.17186877569E+03 0.  0.
        -24    2    5    5    0    0 -0.63089607606E+02 -0.53157821290E+02  0.25741596499E+03  0.28230559934E+03  0.81408966548E+02 0.  0.
          5    1    3    3  501    0  0.23491754529E+02 -0.20870471881E+02 -0.29540281711E+02  0.43383837670E+02  0.47000000000E+01 0. -1.
        -13    1    4    4    0    0  0.11211981104E+02 -0.18188767118E+02 -0.85508300537E+00  0.21383894324E+02  0.00000000000E+00 0.  1.
         14    1    4    4    0    0  0.10203529541E+03  0.28259963388E+02  0.15996578743E+03  0.19183034220E+03  0.00000000000E+00 0. -1.
         -5    1    5    5    0  502 -0.73649423439E+02  0.63957096901E+02  0.12254973070E+03  0.15670122626E+03  0.47000000000E+01 0.  1.
         13    1    6    6    0    0 -0.72036953179E+01 -0.33613608549E+02  0.25101960813E+02  0.42566140800E+02  0.00000000000E+00 0. -1.
        -14    1    6    6    0    0 -0.55885912289E+02 -0.19544212740E+02  0.23231400418E+03  0.23973945854E+03  0.00000000000E+00 0.  1.
</event>
<event>
12    1  0.1035051E+000  0.1875762E+03  0.7818608E-02  0.1160727E+00
         21   -1    0    0  503  502  0.00000000000E+00  0.00000000000E+00  0.22691830151E+03  0.22691830151E+03  0.00000000000E+00 0. -1.
         21   -1    0    0  501  503 -0.00000000000E+00 -0.00000000000E+00 -0.15490499407E+03  0.15490499407E+03  0.00000000000E+00 0. -1.
          6    2    1    2  501    0  0.73621076274E+02 -0.12558833337E+02  0.31925260515E+02  0.19001123993E+03  0.17177677920E+03 0.  0.
         24    2    3    3    0    0  0.27022034858E+01  0.18288232181E+02  0.65612986526E+02  0.10552466790E+03  0.80552034082E+02 0.  0.
         -6    2    1    2    0  502 -0.73621076274E+02  0.12558833337E+02  0.40088046921E+02  0.19181205566E+03  0.17206692309E+03 0.  0.
        -24    2    5    5    0    0 -0.32453838175E+02  0.84885802777E+02  0.28071940122E+02  0.10759561532E+03  0.50298424309E+02 0.  0.
          5    1    3    3  501    0  0.70918872788E+02 -0.30847065518E+02 -0.33687726011E+02  0.84486572024E+02  0.47000000000E+01 0. -1.
        -11    1    4    4    0    0  0.19666985791E+02  0.43060202946E+02  0.57389935041E+02  0.74394731345E+02  0.00000000000E+00 0.  1.
         12    1    4    4    0    0 -0.16964782305E+02 -0.24771970766E+02  0.82230514857E+01  0.31129936557E+02  0.00000000000E+00 0. -1.
         -5    1    5    5    0  502 -0.41167238099E+02 -0.72326969439E+02  0.12016106800E+02  0.84216440340E+02  0.47000000000E+01 0.  1.
         11    1    6    6    0    0  0.11466881635E+01 -0.58090934181E+01  0.59185682560E+01  0.83719717084E+01  0.00000000000E+00 0. -1.
        -12    1    6    6    0    0 -0.33600526338E+02  0.90694896195E+02  0.22153371866E+02  0.99223643609E+02  0.00000000000E+00 0.  1.
</event>
<event>
12    1  0.1035051E+000  0.1732735E+03  0.7818608E-02  0.1174904E+00
         21   -1    0    0  501  502  0.00000000000E+00  0.00000000000E+00  0.10399798415E+03  0.10399798415E+03  0.00000000000E+00 0. -1.
         21   -1    0    0  502  503 -0.00000000000E+00 -0.00000000000E+00 -0.28712104082E+03  0.28712104082E+03  0.00000000000E+00 0. -1.
         -6    2    1    2    0  503 -0.19139669322E+02 -0.10422605250E+01 -0.79327365726E+02  0.19056901949E+03  0.17221006645E+03 0.  0.
        -24    2    3    3    0    0 -0.10706590815E+02 -0.65083181494E+02 -0.44893406568E+02  0.11721955518E+03  0.85875226708E+02 0.  0.
          6    2    1    2  501    0  0.19139669322E+02  0.10422605250E+01 -0.10379569094E+03  0.20055000548E+03  0.17052667237E+03 0.  0.
         24    2    5    5    0    0 -0.17326286210E+02 -0.59722737073E+01 -0.13094226088E+03  0.15431153813E+03  0.79563225601E+02 0.  0.
          5    1    5    5  501    0  0.36465955531E+02  0.70145342324E+01  0.27146569940E+02  0.46238467349E+02  0.47000000000E+01 0. -1.
        -11    1    6    6    0    0  0.23618756543E+02  0.21436847596E+02 -0.43474310548E+02  0.53920309468E+02  0.00000000000E+00 0.  1.
         12    1    6    6    0    0 -0.40945042753E+02 -0.27409121303E+02 -0.87467950332E+02  0.10039122866E+03  0.00000000000E+00 0. -1.
         -5    1    3    3    0  503 -0.84330785072E+01  0.64040920968E+02 -0.34433959158E+02  0.73349464312E+02  0.47000000000E+01 0.  1.
         11    1    4    4    0    0 -0.30608508856E+02 -0.26686481720E+02 -0.59092212512E+02  0.71700339613E+02  0.00000000000E+00 0. -1.
        -12    1    4    4    0    0  0.19901918042E+02 -0.38396699774E+02  0.14198805944E+02  0.45519215563E+02  0.00000000000E+00 0.  1.
</event>
<event>
12    1  0.1035051E+000  0.1857262E+03  0.7818608E-02  0.1164513E+00
         21   -1    0    0  503  502  0.00000000000E+00  0.00000000000E+00  0.42467227028E+02  0.42467227028E+02  0.00000000000E+00 0. -1.
         21   -1    0    0  501  503 -0.00000000000E+00 -0.00000000000E+00 -0.79092124595E+03  0.79092124595E+03  0.00000000000E+00 0. -1.
          6    2    1    2  501    0  0.14785522145E+02 -0.67948220005E+02 -0.42701042353E+03  0.46214705084E+03  0.16250053086E+03 0.  0.
         24    2    3    3    0    0 -0.50064592709E+02 -0.57667185488E+02 -0.28161966966E+03  0.30254818374E+03  0.79961224488E+02 0.  0.
         -6    2    1    2    0  502 -0.14785522145E+02  0.67948220005E+02 -0.32144359539E+03  0.37124142214E+03  0.17221682910E+03 0.  0.
        -24    2    5    5    0    0  0.18743250202E+02  0.21330006445E+02 -0.29722361833E+03  0.30874235255E+03  0.78572783835E+02 0.  0.
          5    1    3    3  501    0  0.64850114855E+02 -0.10281034517E+02 -0.14539075387E+03  0.15959886709E+03  0.47000000000E+01 0. -1.
        -13    1    4    4    0    0  0.52365519693E+01 -0.13570365990E+02 -0.16856305265E+03  0.16918947671E+03  0.00000000000E+00 0.  1.
         14    1    4    4    0    0 -0.55301144679E+02 -0.44096819498E+02 -0.11305661701E+03  0.13335870704E+03  0.00000000000E+00 0. -1.
         -5    1    5    5    0  502 -0.33528772347E+02  0.46618213561E+02 -0.24219977058E+02  0.62499069588E+02  0.47000000000E+01 0.  1.
         13    1    6    6    0    0  0.28773972692E+02 -0.19492104710E+00 -0.34399517689E+02  0.44847589857E+02  0.00000000000E+00 0. -1.
        -14    1    6    6    0    0 -0.10030722491E+02  0.21524927492E+02 -0.26282410064E+03  0.26389476269E+03  0.00000000000E+00 0.  1.
</event>
<event>
12    1  0.1035051E+000  0.2629681E+03  0.7818608E-02  0.1106025E+00
         21   -1    0    0  501  502  0.00000000000E+00  0.00000000000E+00  0.10603296133E+03  0.10603296133E+03  0.00000000000E+00 0. -1.
         21   -1    0    0  502  503 -0.00000000000E+00 -0.00000000000E+00 -0.79587318441E+03  0.79587318441E+03  0.00000000000E+00 0. -1.
         -6    2    1    2    0  503 -0.14684401524E+03  0.12746116244E+03 -0.14858008443E+03  0.30204020219E+03  0.17703877967E+03 0.  0.
        -24    2    3    3    0    0 -0.13700682541E+03  0.16197707731E+03 -0.13456919344E+03  0.26322636767E+03  0.78560861960E+02 0.  0.
          6    2    1    2  501    0  0.14684401524E+03 -0.12746116244E+03 -0.54126013865E+03  0.59986594356E+03  0.17049076165E+03 0.  0.
         24    2    5    5    0    0  0.16784194055E+03 -0.73561179458E+02 -0.41797118021E+03  0.46360010666E+03  0.81504523048E+02 0.  0.
          5    1    5    5  501    0 -0.20997925310E+02 -0.53899982980E+02 -0.12328895844E+03  0.13626583690E+03  0.47000000000E+01 0. -1.
        -11    1    6    6    0    0  0.12101177124E+03 -0.78451704316E+02 -0.24461169763E+03  0.28396021078E+03  0.00000000000E+00 0.  1.
         12    1    6    6    0    0  0.46830169304E+02  0.48905248581E+01 -0.17335948257E+03  0.17963989587E+03  0.00000000000E+00 0. -1.
         -5    1    3    3    0  503 -0.98371898277E+01 -0.34515914876E+02 -0.14010890992E+02  0.38813834516E+02  0.47000000000E+01 0.  1.
         11    1    4    4    0    0 -0.28718647055E+02  0.64012893755E+02 -0.82256900805E+02  0.10811387046E+03  0.00000000000E+00 0. -1.
        -12    1    4    4    0    0 -0.10828817835E+03  0.97964183559E+02 -0.52312292634E+02  0.15511249721E+03  0.00000000000E+00 0.  1.
</event>
<event>
12    1  0.1035051E+000  0.2945890E+03  0.7818608E-02  0.1088051E+00
         21   -1    0    0  501  502  0.00000000000E+00  0.00000000000E+00  0.33331647205E+03  0.33331647205E+03  0.00000000000E+00 0. -1.
         21   -1    0    0  502  503 -0.00000000000E+00 -0.00000000000E+00 -0.62037703573E+03  0.62037703573E+03  0.00000000000E+00 0. -1.
         -6    2    1    2    0  503  0.23462052730E+03 -0.44414577140E+02  0.22003896822E+03  0.36723582520E+03  0.17153879235E+03 0.  0.
        -24    2    3    3    0    0  0.50103159047E+02 -0.10864445066E+02  0.27168088419E+02  0.98175354627E+02  0.79195533428E+02 0.  0.
          6    2    1    2  501    0 -0.23462052730E+03  0.44414577140E+02 -0.50709953189E+03  0.58645768258E+03  0.17252023570E+03 0.  0.
         24    2    5    5    0    0 -0.16016781007E+03 -0.35654211431E+02 -0.35428074291E+03  0.39849521221E+03  0.79741075850E+02 0.  0.
          5    1    5    5  501    0 -0.74452717229E+02  0.80068788570E+02 -0.15281878898E+03  0.18796247038E+03  0.47000000000E+01 0. -1.
        -13    1    6    6    0    0 -0.61218576632E+02  0.25222318463E+02 -0.12411474495E+03  0.14067106805E+03  0.00000000000E+00 0.  1.
         14    1    6    6    0    0 -0.98949233439E+02 -0.60876529894E+02 -0.23016599797E+03  0.25782414416E+03  0.00000000000E+00 0. -1.
         -5    1    3    3    0  503  0.18451736825E+03 -0.33550132074E+02  0.19287087980E+03  0.26906047057E+03  0.47000000000E+01 0.  1.
         13    1    4    4    0    0  0.10857489184E+02 -0.52218347033E+01  0.50671000193E+02  0.52083614406E+02  0.00000000000E+00 0. -1.
        -14    1    4    4    0    0  0.39245669863E+02 -0.56426103623E+01 -0.23502911775E+02  0.46091740221E+02  0.00000000000E+00 0.  1.
</event>
<event>
12    1  0.1035051E+000  0.3429763E+03  0.7818608E-02  0.1065561E+00
         21   -1    0    0  503  502  0.00000000000E+00  0.00000000000E+00  0.27555280324E+03  0.27555280324E+03  0.00000000000E+00 0. -1.
         21   -1    0    0  501  503 -0.00000000000E+00 -0.00000000000E+00 -0.43672221245E+03  0.43672221245E+03  0.00000000000E+00 0.  1.
          6    2    1    2  501    0 -0.25724388400E+03 -0.14785172303E+03 -0.13479697845E+03  0.36828627535E+03  0.17155176289E+03 0.  0.
         24    2    3    3    0    0 -0.93095053154E+02 -0.77550150227E+02 -0.12107601516E+03  0.18912851068E+03  0.80184021992E+02 0.  0.
         -6    2    1    2    0  502  0.25724388400E+03  0.14785172303E+03 -0.26372430759E+02  0.34398874034E+03  0.17204127561E+03 0.  0.
        -24    2    5    5    0    0  0.12334690968E+03  0.43998745648E+02  0.46945310376E+02  0.15929596352E+03  0.77595051906E+02 0.  0.
          5    1    3    3  501    0 -0.16414883085E+03 -0.70301572807E+02 -0.13720963294E+02  0.17915776467E+03  0.47000000000E+01 0. -1.
        -11    1    4    4    0    0 -0.46027210135E+02 -0.50068663784E+02 -0.14667821238E+02  0.69573846708E+02  0.00000000000E+00 0.  1.
         12    1    4    4    0    0 -0.47067843019E+02 -0.27481486444E+02 -0.10640819392E+03  0.11955466397E+03  0.00000000000E+00 0. -1.
         -5    1    5    5    0  502  0.13389697433E+03  0.10385297739E+03 -0.73317741135E+02  0.18469277682E+03  0.47000000000E+01 0.  1.
         11    1    6    6    0    0  0.59211019450E+02  0.61631018319E+02  0.21949308407E+02  0.88238876822E+02  0.00000000000E+00 0. -1.
        -12    1    6    6    0    0  0.64135890229E+02 -0.17632272670E+02  0.24996001969E+02  0.71057086694E+02  0.00000000000E+00 0.  1.
</event>
<event>
12    1  0.1035051E+000  0.2087027E+03  0.7818608E-02  0.1142984E+00
         21   -1    0    0  503  502  0.00000000000E+00  0.00000000000E+00  0.31917280956E+02  0.31917280956E+02  0.00000000000E+00 0.  1.
         21   -1    0    0  501  503 -0.00000000000E+00 -0.00000000000E+00 -0.13535969935E+04  0.13535969935E+04  0.00000000000E+00 0.  1.
          6    2    1    2  501    0 -0.11756773083E+03  0.12003804844E+02 -0.68076502842E+03  0.71147536973E+03  0.16967591209E+03 0.  0.
         24    2    3    3    0    0 -0.12563054447E+03 -0.34037321247E+02 -0.43214044554E+03  0.45845152210E+03  0.80565876800E+02 0.  0.
         -6    2    1    2    0  502  0.11756773083E+03 -0.12003804844E+02 -0.64091468409E+03  0.67403890470E+03  0.17201903992E+03 0.  0.
        -24    2    5    5    0    0  0.13379914709E+03  0.30696140717E+02 -0.42600151997E+03  0.45427425254E+03  0.77738900735E+02 0.  0.
          5    1    3    3  501    0  0.80628136331E+01  0.46041126091E+02 -0.24862458287E+03  0.25302384762E+03  0.47000000000E+01 0. -1.
        -11    1    4    4    0    0 -0.35172745962E+02  0.13672959771E+02 -0.48714851274E+02  0.61621494806E+02  0.00000000000E+00 0.  1.
         12    1    4    4    0    0 -0.90457798504E+02 -0.47710281018E+02 -0.38342559427E+03  0.39683002730E+03  0.00000000000E+00 0. -1.
         -5    1    5    5    0  502 -0.16231416256E+02 -0.42699945562E+02 -0.21491316412E+03  0.21976465216E+03  0.47000000000E+01 0.  1.
         11    1    6    6    0    0  0.85031418280E+02 -0.87747574853E+01 -0.16489126329E+03  0.18573224592E+03  0.00000000000E+00 0. -1.
        -12    1    6    6    0    0  0.48767728808E+02  0.39470898203E+02 -0.26111025668E+03  0.26854200663E+03  0.00000000000E+00 0.  1.
</event>
<event>
12    1  0.1035051E+000  0.2532569E+03  0.7818608E-02  0.1111496E+00
         21   -1    0    0  501  502  0.00000000000E+00  0.00000000000E+00  0.10678372829E+03  0.10678372829E+03  0.00000000000E+00 0. -1.
         21   -1    0    0  502  503 -0.00000000000E+00 -0.00000000000E+00 -0.59898697506E+03  0.59898697506E+03  0.00000000000E+00 0.  1.
         -6    2    1    2    0  503  0.16439892880E+03  0.81447280736E+02 -0.26513583371E+03  0.36562564308E+03  0.17240775282E+03 0.  0.
        -24    2    3    3    0    0  0.13417256356E+03  0.37636834951E+02 -0.26800749710E+03  0.31211559948E+03  0.78545023910E+02 0.  0.
          6    2    1    2  501    0 -0.16439892880E+03 -0.81447280736E+02 -0.22706741306E+03  0.34014506027E+03  0.17458059636E+03 0.  0.
         24    2    5    5    0    0 -0.16467051592E+03 -0.11752682493E+03 -0.19577109204E+03  0.29215175889E+03  0.78085826839E+02 0.  0.
          5    1    5    5  501    0  0.27158712006E+00  0.36079544192E+02 -0.31296321023E+02  0.47993301389E+02  0.47000000000E+01 0. -1.
        -11    1    6    6    0    0 -0.14214337725E+03 -0.58885210162E+02 -0.14431772467E+03  0.21094978864E+03  0.00000000000E+00 0.  1.
         12    1    6    6    0    0 -0.22527138663E+02 -0.58641614766E+02 -0.51453367370E+02  0.81201970249E+02  0.00000000000E+00 0. -1.
         -5    1    3    3    0  503  0.30226365234E+02  0.43810445785E+02  0.28716633919E+01  0.53510043597E+02  0.47000000000E+01 0.  1.
         11    1    4    4    0    0  0.68185890030E+02 -0.21223398250E+02 -0.12593622703E+03  0.14477458862E+03  0.00000000000E+00 0. -1.
        -12    1    4    4    0    0  0.65986673532E+02  0.58860233201E+02 -0.14207127008E+03  0.16734101086E+03  0.00000000000E+00 0.  1.
</event>
<event>
12    1  0.1035051E+000  0.1925208E+03  0.7818608E-02  0.1156250E+00
         21   -1    0    0  501  502  0.00000000000E+00  0.00000000000E+00  0.87583740031E+02  0.87583740031E+02  0.00000000000E+00 0.  1.
         21   -1    0    0  502  503 -0.00000000000E+00 -0.00000000000E+00 -0.42755734543E+03  0.42755734543E+03  0.00000000000E+00 0.  1.
         -6    2    1    2    0  503 -0.61569813464E+02  0.60304701507E+02 -0.14278851226E+03  0.23969317271E+03  0.17215330045E+03 0.  0.
        -24    2    3    3    0    0 -0.10875189875E+03  0.50148115495E+02 -0.10906569070E+03  0.18062859699E+03  0.79934699542E+02 0.  0.
          6    2    1    2  501    0  0.61569813464E+02 -0.60304701507E+02 -0.19718509314E+03  0.27544791275E+03  0.17193630428E+03 0.  0.
         24    2    5    5    0    0  0.64791851829E+02 -0.11029350435E+02 -0.40769938598E+02  0.11135576692E+03  0.80114220323E+02 0.  0.
          5    1    5    5  501    0 -0.32220383650E+01 -0.49275351073E+02 -0.15641515454E+03  0.16409214583E+03  0.47000000000E+01 0. -1.
        -13    1    6    6    0    0  0.37520545437E+02  0.42951248804E+01 -0.62670169017E+02  0.73169594178E+02  0.00000000000E+00 0.  1.
         14    1    6    6    0    0  0.27271306392E+02 -0.15324475315E+02  0.21900230419E+02  0.38186172738E+02  0.00000000000E+00 0. -1.
         -5    1    3    3    0  503  0.47182085288E+02  0.10156586013E+02 -0.33722821555E+02  0.59064575721E+02  0.47000000000E+01 0.  1.
         11    1    4    4    0    0 -0.41197380923E+02 -0.13530995141E+02 -0.64318740778E+02  0.77570693175E+02  0.00000000000E+00 0. -1.
        -12    1    4    4    0    0 -0.67554517829E+02  0.63679110635E+02 -0.44746949926E+02  0.10305790381E+03  0.00000000000E+00 0.  1.
</event>
<event>
12    1  0.1035051E+000  0.2302343E+03  0.7818608E-02  0.1126950E+00
         21   -1    0    0  501  502  0.00000000000E+00  0.00000000000E+00  0.10774171509E+03  0.10774171509E+03  0.00000000000E+00 0. -1.
         21   -1    0    0  502  503 -0.00000000000E+00 -0.00000000000E+00 -0.49334015370E+03  0.49334015370E+03  0.00000000000E+00 0. -1.
         -6    2    1    2    0  503 -0.77108211499E+02  0.12715348106E+03 -0.15793937264E+03  0.27920009726E+03  0.17576736003E+03 0.  0.
        -24    2    3    3    0    0 -0.84515185223E+02  0.56203971704E+02 -0.16135454815E+03  0.20762880719E+03  0.82296588013E+02 0.  0.
          6    2    1    2  501    0  0.77108211499E+02 -0.12715348106E+03 -0.22765906597E+03  0.32188177154E+03  0.17223687323E+03 0.  0.
         24    2    5    5    0    0  0.15410483785E+02 -0.11909091182E+03 -0.21292250224E+03  0.25776569759E+03  0.81774290613E+02 0.  0.
          5    1    5    5  501    0  0.61697727714E+02 -0.80625692474E+01 -0.14736563731E+02  0.64116073948E+02  0.47000000000E+01 0. -1.
        -13    1    6    6    0    0 -0.26705531329E+02 -0.71585127291E+02 -0.80926857941E+02  0.11129587678E+03  0.00000000000E+00 0.  1.
         14    1    6    6    0    0  0.42116015115E+02 -0.47505784526E+02 -0.13199564430E+03  0.14646982081E+03  0.00000000000E+00 0. -1.
         -5    1    3    3    0  503  0.74069737240E+01  0.70949509361E+02  0.34151755117E+01  0.71571290068E+02  0.47000000000E+01 0.  1.
         11    1    4    4    0    0 -0.18988201508E+02  0.53196215386E+01 -0.10617472962E+03  0.10799038559E+03  0.00000000000E+00 0. -1.
        -12    1    4    4    0    0 -0.65526983715E+02  0.50884350165E+02 -0.55179818529E+02  0.99638421602E+02  0.00000000000E+00 0.  1.
</event>
<event>
12    1  0.1035051E+000  0.3428863E+03  0.7818608E-02  0.1065704E+00
         21   -1    0    0  503  502  0.00000000000E+00  0.00000000000E+00  0.13320715407E+03  0.13320715407E+03  0.00000000000E+00 0.  1.
         21   -1    0    0  501  503 -0.00000000000E+00 -0.00000000000E+00 -0.13002563640E+04  0.13002563640E+04  0.00000000000E+00 0. -1.
          6    2    1    2  501    0  0.89601039062E+02  0.28276129224E+03 -0.99198562886E+03  0.10495744398E+04  0.17201372670E+03 0.  0.
         24    2    3    3    0    0 -0.13745995234E+02  0.17709342606E+03 -0.54909551174E+03  0.58264826437E+03  0.80137912472E+02 0.  0.
         -6    2    1    2    0  502 -0.89601039062E+02 -0.28276129224E+03 -0.17506358109E+03  0.38388907831E+03  0.16953251143E+03 0.  0.
        -24    2    5    5    0    0 -0.66611736387E+02 -0.21563501918E+03 -0.55061930445E+02  0.24440097584E+03  0.75923882187E+02 0.  0.
          5    1    3    3  501    0  0.10334703430E+03  0.10566786618E+03 -0.44289011711E+03  0.46692617540E+03  0.47000000000E+01 0. -1.
        -11    1    4    4    0    0 -0.31336540928E+02  0.43467426865E+02 -0.96128196899E+02  0.11005465113E+03  0.00000000000E+00 0.  1.
         12    1    4    4    0    0  0.17590545694E+02  0.13362599919E+03 -0.45296731485E+03  0.47259361324E+03  0.00000000000E+00 0. -1.
         -5    1    5    5    0  502 -0.22989302675E+02 -0.67126273055E+02 -0.12000165064E+03  0.13948810246E+03  0.47000000000E+01 0.  1.
         13    1    6    6    0    0  0.13640996283E+02 -0.87618769887E+01 -0.31599829900E+01  0.16517649968E+02  0.00000000000E+00 0. -1.
        -14    1    6    6    0    0 -0.80252732670E+02 -0.20687314220E+03 -0.51901947455E+02  0.22788332588E+03  0.00000000000E+00 0.  1.
</event>
<event>
12    1  0.1035051E+000  0.3550099E+03  0.7818608E-02  0.1060781E+00
         21   -1    0    0  503  502  0.00000000000E+00  0.00000000000E+00  0.28305034289E+03  0.28305034289E+03  0.00000000000E+00 0.  1.
         21   -1    0    0  501  503 -0.00000000000E+00 -0.00000000000E+00 -0.52495453499E+03  0.52495453499E+03  0.00000000000E+00 0. -1.
          6    2    1    2  501    0 -0.27775055721E+02 -0.30960918630E+03  0.39212148052E+02  0.35517109440E+03  0.16727107277E+03 0.  0.
         24    2    3    3    0    0  0.38116949635E+02 -0.88339771930E+02  0.16407034047E+02  0.12312783695E+03  0.75063015605E+02 0.  0.
         -6    2    1    2    0  502  0.27775055721E+02  0.30960918630E+03 -0.28111634015E+03  0.45283378347E+03  0.17147226246E+03 0.  0.
        -24    2    5    5    0    0  0.63442916908E+01  0.24986877160E+03 -0.28575199759E+03  0.38902332888E+03  0.84913445538E+02 0.  0.
          5    1    3    3  501    0 -0.65892005356E+02 -0.22126941437E+03  0.22805114004E+02  0.23204325745E+03  0.47000000000E+01 0. -1.
        -13    1    4    4    0    0  0.41391956628E+02 -0.10893101114E+02  0.15755852802E+02  0.45609216424E+02  0.00000000000E+00 0.  1.
         14    1    4    4    0    0 -0.32750069921E+01 -0.77446670816E+02  0.65118124568E+00  0.77518620526E+02  0.00000000000E+00 0. -1.
         -5    1    5    5    0  502  0.21430764030E+02  0.59740414694E+02  0.46356574338E+01  0.63810454587E+02  0.47000000000E+01 0.  1.
         11    1    6    6    0    0  0.87811493623E+01  0.14738613315E+03 -0.22722291029E+03  0.27097976269E+03  0.00000000000E+00 0. -1.
        -12    1    6    6    0    0 -0.24368576715E+01  0.10248263845E+03 -0.58529087297E+02  0.11804356619E+03  0.00000000000E+00 0.  1.
</event>
<event>
12    1  0.1035051E+000  0.3180266E+03  0.7818608E-02  0.1076617E+00
         21   -1    0    0  501  502  0.00000000000E+00  0.00000000000E+00  0.25442425816E+03  0.25442425816E+03  0.00000000000E+00 0.  1.
         21   -1    0    0  502  503 -0.00000000000E+00 -0.00000000000E+00 -0.41637464608E+03  0.41637464608E+03  0.00000000000E+00 0. -1.
         -6    2    1    2    0  503 -0.25837292561E+03  0.66934895521E+02 -0.84359348185E+01  0.31765929949E+03  0.17204480995E+03 0.  0.
        -24    2    3    3    0    0 -0.26142058719E+03  0.25237179831E+02 -0.15004796368E+02  0.27507728830E+03  0.80403556954E+02 0.  0.
          6    2    1    2  501    0  0.25837292561E+03 -0.66934895521E+02 -0.15351445311E+03  0.35313960475E+03  0.17292785838E+03 0.  0.
         24    2    5    5    0    0  0.14791397845E+03  0.46313029286E+01 -0.26332659743E+02  0.17005438325E+03  0.79530436353E+02 0.  0.
          5    1    5    5  501    0  0.11045894716E+03 -0.71566198449E+02 -0.12718179336E+03  0.18308522150E+03  0.47000000000E+01 0. -1.
        -13    1    6    6    0    0  0.46816686994E+02  0.36007779973E+02 -0.25148153800E+02  0.64193395604E+02  0.00000000000E+00 0.  1.
         14    1    6    6    0    0  0.10109729145E+03 -0.31376477045E+02 -0.11845059434E+01  0.10586098765E+03  0.00000000000E+00 0. -1.
         -5    1    3    3    0  503  0.30476615870E+01  0.41697715690E+02  0.65688615498E+01  0.42582011190E+02  0.47000000000E+01 0.  1.
         13    1    4    4    0    0 -0.26041523610E+03  0.35961993025E+02 -0.19038253571E+02  0.26357506565E+03  0.00000000000E+00 0. -1.
        -14    1    4    4    0    0 -0.10053510951E+01 -0.10724813194E+02  0.40334572028E+01  0.11502222649E+02  0.00000000000E+00 0.  1.
</event>
<event>
12    1  0.1035051E+000  0.1895878E+03  0.7818608E-02  0.1158946E+00
         21   -1    0    0  501  502  0.00000000000E+00  0.00000000000E+00  0.59305157810E+02  0.59305157810E+02  0.00000000000E+00 0.  1.
         21   -1    0    0  502  503 -0.00000000000E+00 -0.00000000000E+00 -0.62971690443E+03  0.62971690443E+03  0.00000000000E+00 0.  1.
         -6    2    1    2    0  503  0.64358901618E+02 -0.41722769401E+02 -0.35451087727E+03  0.40202176696E+03  0.17338016411E+03 0.  0.
        -24    2    3    3    0    0  0.10150973198E+03 -0.34754369404E+01 -0.19695849685E+03  0.23562499652E+03  0.80063631927E+02 0.  0.
          6    2    1    2  501    0 -0.64358901618E+02  0.41722769401E+02 -0.21590086935E+03  0.28700029528E+03  0.17283844017E+03 0.  0.
         24    2    5    5    0    0 -0.58797244485E+01 -0.29289196600E+02 -0.15275272729E+03  0.17532088212E+03  0.80694410064E+02 0.  0.
          5    1    5    5  501    0 -0.58479177170E+02  0.71011966001E+02 -0.63148142065E+02  0.11167941316E+03  0.47000000000E+01 0. -1.
        -13    1    6    6    0    0 -0.37433285828E+02  0.26232224878E+01 -0.44979760014E+02  0.58577393208E+02  0.00000000000E+00 0.  1.
         14    1    6    6    0    0  0.31553561380E+02 -0.31912419088E+02 -0.10777296727E+03  0.11674348891E+03  0.00000000000E+00 0. -1.
         -5    1    3    3    0  503 -0.37150830360E+02 -0.38247332461E+02 -0.15755238042E+03  0.16639677044E+03  0.47000000000E+01 0.  1.
         13    1    4    4    0    0 -0.11411108776E+02 -0.24035186796E+01 -0.43864800753E+02  0.45388446224E+02  0.00000000000E+00 0. -1.
        -14    1    4    4    0    0  0.11292084075E+03 -0.10719182609E+01 -0.15309369610E+03  0.19023655030E+03  0.00000000000E+00 0.  1.
</event>
<event>
12    1  0.1035051E+000  0.2625014E+03  0.7818608E-02  0.1105764E+00
         21   -1    0    0  503  502  0.00000000000E+00  0.00000000000E+00  0.23861256717E+03  0.23861256717E+03  0.00000000000E+00 0.  1.
         21   -1    0    0  501  503 -0.00000000000E+00 -0.00000000000E+00 -0.33246871521E+03  0.33246871521E+03  0.00000000000E+00 0.  1.
          6    2    1    2  501    0 -0.19176382915E+03 -0.46470050138E+02 -0.15149226117E+03  0.30307899953E+03  0.17313042203E+03 0.  0.
         24    2    3    3    0    0 -0.10045629450E+03 -0.67429388553E+02 -0.26455828221E+02  0.14676982093E+03  0.78760903649E+02 0.  0.
         -6    2    1    2    0  502  0.19176382915E+03  0.46470050138E+02  0.57636113132E+02  0.26800228284E+03  0.17196066509E+03 0.  0.
        -24    2    5    5    0    0  0.13228356531E+03  0.38392668214E+02 -0.28427655264E+02  0.16296796408E+03  0.82325494899E+02 0.  0.
          5    1    3    3  501    0 -0.91307534655E+02  0.20959338414E+02 -0.12503643295E+03  0.15630917860E+03  0.47000000000E+01 0. -1.
        -13    1    4    4    0    0  0.91219689805E+01  0.71806452074E+01 -0.10770952093E+00  0.11609633285E+02  0.00000000000E+00 0.  1.
         14    1    4    4    0    0 -0.10957826348E+03 -0.74610033760E+02 -0.26348118701E+02  0.13516018764E+03  0.00000000000E+00 0. -1.
         -5    1    5    5    0  502  0.59480263847E+02  0.80773819247E+01  0.86063768396E+02  0.10503431876E+03  0.47000000000E+01 0.  1.
         11    1    6    6    0    0  0.88888933883E+02  0.33902975139E+01  0.17591975738E+02  0.90676426344E+02  0.00000000000E+00 0. -1.
        -12    1    6    6    0    0  0.43394631424E+02  0.35002370700E+02 -0.46019631002E+02  0.72291537739E+02  0.00000000000E+00 0.  1.
</event>
<event>
12    1  0.1035051E+000  0.1905591E+03  0.7818608E-02  0.1161509E+00
         21   -1    0    0  501  502  0.00000000000E+00  0.00000000000E+00  0.46949528728E+02  0.46949528728E+02  0.00000000000E+00 0.  1.
         21   -1    0    0  502  503 -0.00000000000E+00 -0.00000000000E+00 -0.72576280635E+03  0.72576280635E+03  0.00000000000E+00 0.  1.
         -6    2    1    2    0  503 -0.28567402638E+02 -0.19825915689E+02 -0.27498324342E+03  0.32617963652E+03  0.17195408600E+03 0.  0.
        -24    2    3    3    0    0 -0.16338571694E+02  0.17065391599E+02 -0.27525435822E+03  0.28703022576E+03  0.77866631278E+02 0.  0.
          6    2    1    2  501    0  0.28567402638E+02  0.19825915689E+02 -0.40383003420E+03  0.44653269856E+03  0.18735952319E+03 0.  0.
         24    2    5    5    0    0 -0.45538508093E+02  0.51812967062E+02 -0.27683107711E+03  0.29598143631E+03  0.78811332391E+02 0.  0.
          5    1    5    5  501    0  0.74105910732E+02 -0.31987051373E+02 -0.12699895709E+03  0.15055126225E+03  0.47000000000E+01 0. -1.
        -11    1    6    6    0    0 -0.50910424934E+01 -0.14330318691E+02 -0.12076263604E+03  0.12171643690E+03  0.00000000000E+00 0.  1.
         12    1    6    6    0    0 -0.40447465600E+02  0.66143285754E+02 -0.15606844107E+03  0.17426499941E+03  0.00000000000E+00 0. -1.
         -5    1    3    3    0  503 -0.12228830944E+02 -0.36891307289E+02  0.27111479580E+00  0.39149410761E+02  0.47000000000E+01 0.  1.
         13    1    4    4    0    0 -0.64963165082E+01 -0.15235824944E+02 -0.22984915016E+03  0.23044514383E+03  0.00000000000E+00 0. -1.
        -14    1    4    4    0    0 -0.98422551861E+01  0.32301216543E+02 -0.45405208063E+02  0.56585081926E+02  0.00000000000E+00 0.  1.
</event>
<event>
12    1  0.1035051E+000  0.2216818E+03  0.7818608E-02  0.1133384E+00
         21   -1    0    0  501  502  0.00000000000E+00  0.00000000000E+00  0.29546977237E+03  0.29546977237E+03  0.00000000000E+00 0. -1.
         21   -1    0    0  502  503 -0.00000000000E+00 -0.00000000000E+00 -0.16751047162E+03  0.16751047162E+03  0.00000000000E+00 0. -1.
         -6    2    1    2    0  503 -0.13286246136E+03 -0.55080990393E+01  0.10001789976E+03  0.23954448396E+03  0.17232297215E+03 0.  0.
        -24    2    3    3    0    0 -0.70971326430E+02 -0.70041508841E+02  0.45189353152E+02  0.13455242194E+03  0.78227453472E+02 0.  0.
          6    2    1    2  501    0  0.13286246136E+03  0.55080990393E+01  0.27941400988E+02  0.22343576003E+03  0.17736979500E+03 0.  0.
         24    2    5    5    0    0  0.12387521868E+03  0.67206693978E+02  0.15468619231E+02  0.15967725132E+03  0.73455679759E+02 0.  0.
          5    1    5    5  501    0  0.89872426798E+01 -0.61698594939E+02  0.12472781756E+02  0.63758508712E+02  0.47000000000E+01 0. -1.
        -11    1    6    6    0    0  0.20611996483E+02  0.37861187252E+02 -0.18741613469E+02  0.47006084442E+02  0.00000000000E+00 0.  1.
         12    1    6    6    0    0  0.10326322220E+03  0.29345506726E+02  0.34210232700E+02  0.11267116688E+03  0.00000000000E+00 0. -1.
         -5    1    3    3    0  503 -0.61891134933E+02  0.64533409802E+02  0.54828546605E+02  0.10499206202E+03  0.47000000000E+01 0.  1.
         11    1    4    4    0    0  0.10282007175E+02  0.87380450283E+01  0.62114934617E+01  0.14854485972E+02  0.00000000000E+00 0. -1.
        -12    1    4    4    0    0 -0.81253333605E+02 -0.78779553870E+02  0.38977859690E+02  0.11969793597E+03  0.00000000000E+00 0.  1.
</event>
<event>
12    1  0.1035051E+000  0.1787295E+03  0.7818608E-02  0.1169946E+00
         21   -1    0    0  501  502  0.00000000000E+00  0.00000000000E+00  0.14626518865E+04  0.14626518865E+04  0.00000000000E+00 0.  1.
         21   -1    0    0  502  503 -0.00000000000E+00 -0.00000000000E+00 -0.21984573364E+02  0.21984573364E+02  0.00000000000E+00 0.  1.
         -6    2    1    2    0  503 -0.34965413797E+02  0.37640066650E+01  0.83481777947E+03  0.85297367357E+03  0.17148357056E+03 0.  0.
        -24    2    3    3    0    0 -0.88575900560E+02  0.69470884368E+01  0.50852030330E+03  0.52225271981E+03  0.79126811391E+02 0.  0.
          6    2    1    2  501    0  0.34965413797E+02 -0.37640066650E+01  0.60584953370E+03  0.63166278633E+03  0.17523547085E+03 0.  0.
         24    2    5    5    0    0 -0.23723781378E+02 -0.49985451349E+02  0.26665721736E+03  0.28430942009E+03  0.81635847696E+02 0.  0.
          5    1    5    5  501    0  0.58689195174E+02  0.46221444684E+02  0.33919231633E+03  0.34735336624E+03  0.47000000000E+01 0. -1.
        -13    1    6    6    0    0  0.28389888954E+02 -0.23277320871E+02  0.68984456165E+02  0.78145215171E+02  0.00000000000E+00 0.  1.
         14    1    6    6    0    0 -0.52113670332E+02 -0.26708130478E+02  0.19767276120E+03  0.20616420492E+03  0.00000000000E+00 0. -1.
         -5    1    3    3    0  503  0.53610486763E+02 -0.31830817719E+01  0.32629747617E+03  0.33072095376E+03  0.47000000000E+01 0.  1.
         13    1    4    4    0    0 -0.24537579476E+02  0.48571944577E+01  0.28271597534E+02  0.37748753246E+02  0.00000000000E+00 0. -1.
        -14    1    4    4    0    0 -0.64038321084E+02  0.20898939792E+01  0.48024870577E+03  0.48450396656E+03  0.00000000000E+00 0.  1.
</event>
<event>
12    1  0.1035051E+000  0.3081939E+03  0.7818608E-02  0.1081234E+00
         21   -1    0    0  503  502  0.00000000000E+00  0.00000000000E+00  0.71299341395E+03  0.71299341395E+03  0.00000000000E+00 0.  1.
         21   -1    0    0  501  503 -0.00000000000E+00 -0.00000000000E+00 -0.13340767497E+03  0.13340767497E+03  0.00000000000E+00 0.  1.
          6    2    1    2  501    0 -0.14042942857E+01  0.25657961175E+03  0.30831185486E+03  0.43582462747E+03  0.17044599394E+03 0.  0.
         24    2    3    3    0    0  0.51851399895E+02  0.87309256683E+02  0.10705409490E+03  0.16746777920E+03  0.79204822209E+02 0.  0.
         -6    2    1    2    0  502  0.14042942857E+01 -0.25657961175E+03  0.27127388412E+03  0.41057646145E+03  0.17072914597E+03 0.  0.
        -24    2    5    5    0    0 -0.48002849534E+02 -0.13508715102E+03  0.88985568498E+02  0.18595989063E+03  0.78165450098E+02 0.  0.
          5    1    3    3  501    0 -0.53255694181E+02  0.16927035506E+03  0.20125775997E+03  0.26835684827E+03  0.47000000000E+01 0. -1.
        -13    1    4    4    0    0  0.58077702340E+02  0.80657900829E+02  0.11730689686E+03  0.15375182772E+03  0.00000000000E+00 0.  1.
         14    1    4    4    0    0 -0.62263024449E+01  0.66513558534E+01 -0.10252801965E+02  0.13715951478E+02  0.00000000000E+00 0. -1.
         -5    1    5    5    0  502  0.49407143820E+02 -0.12149246073E+03  0.18228831562E+03  0.22461657082E+03  0.47000000000E+01 0.  1.
         13    1    6    6    0    0 -0.21697771211E+02 -0.47074485165E+02  0.77709565418E+02  0.93410796948E+02  0.00000000000E+00 0. -1.
        -14    1    6    6    0    0 -0.26305078323E+02 -0.88012665850E+02  0.11276003080E+02  0.92549093680E+02  0.00000000000E+00 0.  1.
</event>
<event>
12    1  0.1035051E+000  0.2168299E+03  0.7818608E-02  0.1137794E+00
         21   -1    0    0  503  502  0.00000000000E+00  0.00000000000E+00  0.91179493631E+02  0.91179493631E+02  0.00000000000E+00 0. -1.
         21   -1    0    0  501  503 -0.00000000000E+00 -0.00000000000E+00 -0.49988719622E+03  0.49988719622E+03  0.00000000000E+00 0. -1.
          6    2    1    2  501    0  0.96147648713E+02 -0.90006274873E+02 -0.17843142208E+03  0.27477191932E+03  0.16222310376E+03 0.  0.
         24    2    3    3    0    0  0.49722074754E+02 -0.90414081851E+02 -0.50537467041E+02  0.13863061788E+03  0.77572042147E+02 0.  0.
         -6    2    1    2    0  502 -0.96147648713E+02  0.90006274873E+02 -0.23027628051E+03  0.31629477053E+03  0.17224899602E+03 0.  0.
        -24    2    5    5    0    0 -0.21710860738E+02  0.28513725984E+01 -0.15569789352E+03  0.17947065643E+03  0.86535487935E+02 0.  0.
          5    1    3    3  501    0  0.46425573958E+02  0.40780697775E+00 -0.12789395504E+03  0.13614130144E+03  0.47000000000E+01 0. -1.
        -13    1    4    4    0    0  0.10895238173E+02 -0.34359784187E+02 -0.59792652023E+02  0.69817348991E+02  0.00000000000E+00 0.  1.
         14    1    4    4    0    0  0.38826836581E+02 -0.56054297664E+02  0.92551849821E+01  0.68813268884E+02  0.00000000000E+00 0. -1.
         -5    1    5    5    0  502 -0.74436787975E+02  0.87154902275E+02 -0.74578386994E+02  0.13682411411E+03  0.47000000000E+01 0.  1.
         13    1    6    6    0    0 -0.79391505227E+01  0.38534011520E+02 -0.12303953589E+03  0.12917672990E+03  0.00000000000E+00 0. -1.
        -14    1    6    6    0    0 -0.13771710216E+02 -0.35682638922E+02 -0.32658357628E+02  0.50293926529E+02  0.00000000000E+00 0.  1.
</event>
<event>
12    1  0.1035051E+000  0.4754543E+03  0.7818608E-02  0.1020496E+00
         21   -1    0    0  501  502  0.00000000000E+00  0.00000000000E+00  0.81418148385E+03  0.81418148385E+03  0.00000000000E+00 0. -1.
         21   -1    0    0  502  503 -0.00000000000E+00 -0.00000000000E+00 -0.51519605407E+03  0.51519605407E+03  0.00000000000E+00 0. -1.
         -6    2    1    2    0  503 -0.43010590089E+03 -0.10486093808E+03 -0.30254951641E+03  0.56355388287E+03  0.17340665125E+03 0.  0.
        -24    2    3    3    0    0 -0.22743995738E+03  0.84766481458E+01 -0.12484798754E+03  0.27111787880E+03  0.78211868897E+02 0.  0.
          6    2    1    2  501    0  0.43010590089E+03  0.10486093808E+03  0.60153494619E+03  0.76582365506E+03  0.16927692353E+03 0.  0.
         24    2    5    5    0    0  0.29864565496E+03  0.19001280639E+02  0.33407044491E+03  0.45564140785E+03  0.80347709940E+02 0.  0.
          5    1    5    5  501    0  0.13146024593E+03  0.85859657444E+02  0.26746450128E+03  0.31018224720E+03  0.47000000000E+01 0. -1.
        -13    1    6    6    0    0  0.29716724025E+03  0.29748242752E+02  0.32600971468E+03  0.44212629496E+03  0.00000000000E+00 0.  1.
         14    1    6    6    0    0  0.14784147097E+01 -0.10746962113E+02  0.80607302277E+01  0.13515112893E+02  0.00000000000E+00 0. -1.
         -5    1    3    3    0  503 -0.20266594352E+03 -0.11333758623E+03 -0.17770152887E+03  0.29243600407E+03  0.47000000000E+01 0.  1.
         11    1    4    4    0    0 -0.28317532358E+02 -0.15356955527E+02  0.44296479911E+01  0.32516772645E+02  0.00000000000E+00 0. -1.
        -12    1    4    4    0    0 -0.19912242502E+03  0.23833603673E+02 -0.12927763553E+03  0.23860110616E+03  0.00000000000E+00 0.  1.
</event>
<event>
12    1  0.1035051E+000  0.1768927E+03  0.7818608E-02  0.1172311E+00
         21   -1    0    0  501  502  0.00000000000E+00  0.00000000000E+00  0.11650843897E+03  0.11650843897E+03  0.00000000000E+00 0. -1.
         21   -1    0    0  502  503 -0.00000000000E+00 -0.00000000000E+00 -0.40829144742E+03  0.40829144742E+03  0.00000000000E+00 0. -1.
         -6    2    1    2    0  503  0.23860816935E+02  0.15554680807E+02  0.13884698877E+02  0.17163733340E+03  0.16868699616E+03 0.  0.
        -24    2    3    3    0    0  0.20827701817E+02  0.68372522230E+02 -0.20262023209E+02  0.10849453659E+03  0.79069083248E+02 0.  0.
          6    2    1    2  501    0 -0.23860816935E+02 -0.15554680807E+02 -0.30566770733E+03  0.35316255299E+03  0.17458452065E+03 0.  0.
         24    2    5    5    0    0 -0.49466338577E+02 -0.65331877991E+02 -0.15791297115E+03  0.19508989830E+03  0.80052414249E+02 0.  0.
          5    1    5    5  501    0  0.25605521642E+02  0.49777197184E+02 -0.14775473618E+03  0.15807265469E+03  0.47000000000E+01 0. -1.
        -11    1    6    6    0    0  0.15521359813E+02  0.55064935805E+01 -0.12088615670E+02  0.20429603785E+02  0.00000000000E+00 0.  1.
         12    1    6    6    0    0 -0.64987698389E+02 -0.70838371572E+02 -0.14582435548E+03  0.17466029452E+03  0.00000000000E+00 0. -1.
         -5    1    3    3    0  503  0.30331151175E+01 -0.52817841422E+02  0.34146722087E+02  0.63142796811E+02  0.47000000000E+01 0.  1.
         11    1    4    4    0    0 -0.13576187551E+02 -0.12453314351E+02 -0.67380391194E+01  0.19616296234E+02  0.00000000000E+00 0. -1.
        -12    1    4    4    0    0  0.34403889369E+02  0.80825836581E+02 -0.13523984090E+02  0.88878240353E+02  0.00000000000E+00 0.  1.
</event>
<event>
12    1  0.1035051E+000  0.1810798E+03  0.7818608E-02  0.1168388E+00
         21   -1    0    0  501  502  0.00000000000E+00  0.00000000000E+00  0.19254283437E+03  0.19254283437E+03  0.00000000000E+00 0. -1.
         21   -1    0    0  502  503 -0.00000000000E+00 -0.00000000000E+00 -0.22204270348E+03  0.22204270348E+03  0.00000000000E+00 0. -1.
         -6    2    1    2    0  503  0.74444407870E+00 -0.57982651298E+02  0.90913932042E+02  0.20262094336E+03  0.17154405149E+03 0.  0.
        -24    2    3    3    0    0 -0.36913317288E+02 -0.88968687273E+02  0.38512247583E+02  0.13088345002E+03  0.79807668602E+02 0.  0.
          6    2    1    2  501    0 -0.74444407870E+00  0.57982651298E+02 -0.12041380115E+03  0.21196459449E+03  0.16452040531E+03 0.  0.
         24    2    5    5    0    0  0.46576559491E+02  0.73178596483E+02 -0.54286026220E+02  0.12910829270E+03  0.78724174968E+02 0.  0.
          5    1    5    5  501    0 -0.47321003570E+02 -0.15195945186E+02 -0.66127774932E+02  0.82856301790E+02  0.47000000000E+01 0. -1.
        -13    1    6    6    0    0 -0.70418262906E+01  0.20774830455E+02  0.15358619996E+02  0.26778127382E+02  0.00000000000E+00 0.  1.
         14    1    6    6    0    0  0.53618385782E+02  0.52403766029E+02 -0.69644646216E+02  0.10233016532E+03  0.00000000000E+00 0. -1.
         -5    1    3    3    0  503  0.37657761367E+02  0.30986035976E+02  0.52401684459E+02  0.71737493341E+02  0.47000000000E+01 0.  1.
         13    1    4    4    0    0  0.59999230643E+01  0.12486187973E+02 -0.91425770734E+00  0.13883077253E+02  0.00000000000E+00 0. -1.
        -14    1    4    4    0    0 -0.42913240353E+02 -0.10145487525E+03  0.39426505290E+02  0.11700037277E+03  0.00000000000E+00 0.  1.
</event>
<event>
12    1  0.1035051E+000  0.5246619E+03  0.7818608E-02  0.1007579E+00
         21   -1    0    0  503  502  0.00000000000E+00  0.00000000000E+00  0.11183528233E+03  0.11183528233E+03  0.00000000000E+00 0.  1.
         21   -1    0    0  501  503 -0.00000000000E+00 -0.00000000000E+00 -0.33186497181E+04  0.33186497181E+04  0.00000000000E+00 0. -1.
          6    2    1    2  501    0 -0.13758055308E+03  0.47564200863E+03 -0.73074862826E+03  0.89959084463E+03  0.17351196234E+03 0.  0.
         24    2    3    3    0    0 -0.77116929197E+01  0.23654462843E+03 -0.30202226971E+03  0.39178984170E+03  0.79176999267E+02 0.  0.
         -6    2    1    2    0  502  0.13758055308E+03 -0.47564200863E+03 -0.24760658075E+04  0.25308941558E+04  0.17134647888E+03 0.  0.
        -24    2    5    5    0    0  0.49268085174E+02 -0.38889371687E+03 -0.19066683316E+04  0.19481764422E+04  0.79634516455E+02 0.  0.
          5    1    3    3  501    0 -0.12986886016E+03  0.23909738020E+03 -0.42872635855E+03  0.50780100293E+03  0.47000000000E+01 0. -1.
        -13    1    4    4    0    0 -0.10141686947E+02  0.24153124930E+03 -0.28411778105E+03  0.37304572335E+03  0.00000000000E+00 0.  1.
         14    1    4    4    0    0  0.24299940272E+01 -0.49866208657E+01 -0.17904488658E+02  0.18744118351E+02  0.00000000000E+00 0. -1.
         -5    1    5    5    0  502  0.88312467903E+02 -0.86748291762E+02 -0.56939747597E+03  0.58271771361E+03  0.47000000000E+01 0.  1.
         11    1    6    6    0    0 -0.86174962848E+01 -0.12637793549E+03 -0.75480015987E+03  0.76535542407E+03  0.00000000000E+00 0. -1.
        -12    1    6    6    0    0  0.57885581459E+02 -0.26251578138E+03 -0.11518681717E+04  0.11828210182E+04  0.00000000000E+00 0.  1.
</event>
<event>
12    1  0.1035051E+000  0.2457815E+03  0.7818608E-02  0.1116061E+00
         21   -1    0    0  501  502  0.00000000000E+00  0.00000000000E+00  0.16413983441E+03  0.16413983441E+03  0.00000000000E+00 0. -1.
         21   -1    0    0  502  503 -0.00000000000E+00 -0.00000000000E+00 -0.46581233470E+03  0.46581233470E+03  0.00000000000E+00 0. -1.
         -6    2    1    2    0  503 -0.16992567985E+03 -0.44494075816E+02 -0.60213343452E+01  0.24548087509E+03  0.17137719835E+03 0.  0.
        -24    2    3    3    0    0 -0.13301555517E+03 -0.59890124192E+02  0.52543335664E+02  0.17440833340E+03  0.79859249580E+02 0.  0.
          6    2    1    2  501    0  0.16992567985E+03  0.44494075816E+02 -0.29565116595E+03  0.38447129401E+03  0.17191307261E+03 0.  0.
         24    2    5    5    0    0  0.16992433630E+03  0.82785352762E+02 -0.26580491197E+03  0.33569516493E+03  0.79443677082E+02 0.  0.
          5    1    5    5  501    0  0.13435515863E-02 -0.38291276946E+02 -0.29846253979E+02  0.48776129085E+02  0.47000000000E+01 0. -1.
        -13    1    6    6    0    0  0.99298869283E+02  0.11860509555E+02 -0.16946294364E+03  0.19677049168E+03  0.00000000000E+00 0.  1.
         14    1    6    6    0    0  0.70625467018E+02  0.70924843207E+02 -0.96341968327E+02  0.13892467325E+03  0.00000000000E+00 0. -1.
         -5    1    3    3    0  503 -0.36910124680E+02  0.15396048376E+02 -0.58564670010E+02  0.71072541694E+02  0.47000000000E+01 0.  1.
         13    1    4    4    0    0  0.43647544113E+01  0.44647678682E+00 -0.10710519632E+02  0.11574353259E+02  0.00000000000E+00 0. -1.
        -14    1    4    4    0    0 -0.13738030958E+03 -0.60336600979E+02  0.63253855296E+02  0.16283398014E+03  0.00000000000E+00 0.  1.
</event>
<event>
12    1  0.1035051E+000  0.3420556E+03  0.7818608E-02  0.1065928E+00
         21   -1    0    0  501  502  0.00000000000E+00  0.00000000000E+00  0.52020785722E+02  0.52020785722E+02  0.00000000000E+00 0.  1.
         21   -1    0    0  502  503 -0.00000000000E+00 -0.00000000000E+00 -0.30539192363E+04  0.30539192363E+04  0.00000000000E+00 0. -1.
         -6    2    1    2    0  503  0.28716871635E+03  0.73419623173E+02 -0.22983560170E+04  0.23236700244E+04  0.17072108372E+03 0.  0.
        -24    2    3    3    0    0  0.11120036527E+03 -0.21430176394E+02 -0.76700899694E+03  0.77932319447E+03  0.78848375821E+02 0.  0.
          6    2    1    2  501    0 -0.28716871635E+03 -0.73419623173E+02 -0.70354243354E+03  0.78226999765E+03  0.17064020835E+03 0.  0.
         24    2    5    5    0    0 -0.23381468324E+03  0.50880610602E+00 -0.46669814189E+03  0.52844057856E+03  0.82296563995E+02 0.  0.
          5    1    5    5  501    0 -0.53354033110E+02 -0.73928429279E+02 -0.23684429166E+03  0.25382941909E+03  0.47000000000E+01 0. -1.
        -11    1    6    6    0    0 -0.11857039624E+03  0.41194221515E+02 -0.22765070238E+03  0.25996296860E+03  0.00000000000E+00 0.  1.
         12    1    6    6    0    0 -0.11524428700E+03 -0.40685415409E+02 -0.23904743951E+03  0.26847760996E+03  0.00000000000E+00 0. -1.
         -5    1    3    3    0  503  0.17596835108E+03  0.94849799567E+02 -0.15313470201E+04  0.15443468299E+04  0.47000000000E+01 0.  1.
         11    1    4    4    0    0 -0.72855957932E+01  0.12606767524E+02 -0.70372773469E+02  0.71863326803E+02  0.00000000000E+00 0. -1.
        -12    1    4    4    0    0  0.11848596106E+03 -0.34036943919E+02 -0.69663622347E+03  0.70745986767E+03  0.00000000000E+00 0.  1.
</event>
<event>
12    1  0.1035051E+000  0.7886567E+03  0.7818608E-02  0.9576604E-01
         21   -1    0    0  503  502  0.00000000000E+00  0.00000000000E+00  0.13468015373E+04  0.13468015373E+04  0.00000000000E+00 0.  1.
         21   -1    0    0  501  503 -0.00000000000E+00 -0.00000000000E+00 -0.48551721363E+03  0.48551721363E+03  0.00000000000E+00 0.  1.
          6    2    1    2  501    0  0.61500427196E+01 -0.76966601471E+03  0.63317776164E+03  0.10113364131E+04  0.17164983375E+03 0.  0.
         24    2    3    3    0    0  0.15515308618E+02 -0.16287347197E+03  0.90860404240E+02  0.19744753601E+03  0.62939842274E+02 0.  0.
         -6    2    1    2    0  502 -0.61500427196E+01  0.76966601471E+03  0.22810656207E+03  0.82098233787E+03  0.17191799850E+03 0.  0.
        -24    2    5    5    0    0 -0.61783602539E+02  0.62524964682E+03  0.17152491164E+03  0.65613467044E+03  0.79608894251E+02 0.  0.
          5    1    3    3  501    0 -0.93652658979E+01 -0.60679254274E+03  0.54231735740E+03  0.81388887710E+03  0.47000000000E+01 0. -1.
        -13    1    4    4    0    0  0.36757613058E+02 -0.11582143075E+03  0.49149281109E+02  0.13107775469E+03  0.00000000000E+00 0.  1.
         14    1    4    4    0    0 -0.21242304441E+02 -0.47052041212E+02  0.41711123130E+02  0.66369781324E+02  0.00000000000E+00 0. -1.
         -5    1    5    5    0  502  0.55633559819E+02  0.14441636789E+03  0.56581650432E+02  0.16484766743E+03  0.47000000000E+01 0.  1.
         13    1    6    6    0    0 -0.23153443566E+02  0.50137540446E+03  0.15517913497E+03  0.52535125590E+03  0.00000000000E+00 0. -1.
        -14    1    6    6    0    0 -0.38630158972E+02  0.12387424236E+03  0.16345776668E+02  0.13078341454E+03  0.00000000000E+00 0.  1.
</event>
<event>
12    1  0.1035051E+000  0.1828717E+03  0.7818608E-02  0.1165379E+00
         21   -1    0    0  503  502  0.00000000000E+00  0.00000000000E+00  0.13589261619E+02  0.13589261619E+02  0.00000000000E+00 0. -1.
         21   -1    0    0  501  503 -0.00000000000E+00 -0.00000000000E+00 -0.24922667409E+04  0.24922667409E+04  0.00000000000E+00 0. -1.
          6    2    1    2  501    0 -0.55370852324E+02 -0.29130477091E+02 -0.14118020504E+04  0.14234211334E+04  0.17037657562E+03 0.  0.
         24    2    3    3    0    0 -0.23952343506E+02  0.63771478272E+01 -0.31953955456E+03  0.33012000199E+03  0.79115776008E+02 0.  0.
         -6    2    1    2    0  502  0.55370852324E+02  0.29130477091E+02 -0.10668754290E+04  0.10824348692E+04  0.17183582033E+03 0.  0.
        -24    2    5    5    0    0 -0.14463062882E+02 -0.24038137661E+02 -0.70714370691E+03  0.71212057139E+03  0.79224199130E+02 0.  0.
          5    1    3    3  501    0 -0.31418508818E+02 -0.35507624918E+02 -0.10922624958E+04  0.10933011314E+04  0.47000000000E+01 0. -1.
        -11    1    4    4    0    0 -0.25816924943E+02 -0.29056102785E+02 -0.23859254166E+03  0.24173781595E+03  0.00000000000E+00 0.  1.
         12    1    4    4    0    0  0.18645814374E+01  0.35433250612E+02 -0.80947012897E+02  0.88382186044E+02  0.00000000000E+00 0. -1.
         -5    1    5    5    0  502  0.69833915206E+02  0.53168614752E+02 -0.35973172205E+03  0.37031429780E+03  0.47000000000E+01 0.  1.
         11    1    6    6    0    0  0.36674451118E+01 -0.39692997724E+02 -0.17687896256E+03  0.18131506175E+03  0.00000000000E+00 0. -1.
        -12    1    6    6    0    0 -0.18130507994E+02  0.15654860063E+02 -0.53026474435E+03  0.53080550964E+03  0.00000000000E+00 0.  1.
</event>
<event>
12    1  0.1035051E+000  0.1834015E+03  0.7818608E-02  0.1165026E+00
         21   -1    0    0  503  502  0.00000000000E+00  0.00000000000E+00  0.67712060708E+02  0.67712060708E+02  0.00000000000E+00 0.  1.
         21   -1    0    0  501  503 -0.00000000000E+00 -0.00000000000E+00 -0.49294395939E+03  0.49294395939E+03  0.00000000000E+00 0.  1.
          6    2    1    2  501    0  0.53253319629E+02  0.31913230101E+02 -0.19550382761E+03  0.26669835678E+03  0.17044616919E+03 0.  0.
         24    2    3    3    0    0  0.44017400320E+02  0.76386326371E+02 -0.18440918175E+03  0.21970538215E+03  0.80568643076E+02 0.  0.
         -6    2    1    2    0  502 -0.53253319629E+02 -0.31913230101E+02 -0.22972807107E+03  0.29395766332E+03  0.17257389977E+03 0.  0.
        -24    2    5    5    0    0 -0.51186911175E+02 -0.80957310003E+02 -0.20245425625E+03  0.23760570868E+03  0.79338269475E+02 0.  0.
          5    1    3    3  501    0  0.92359193091E+01 -0.44473096270E+02 -0.11094645868E+02  0.46992974626E+02  0.47000000000E+01 0. -1.
        -13    1    4    4    0    0  0.45712308705E+02  0.91249861271E+02 -0.14306351556E+03  0.17573651252E+03  0.00000000000E+00 0.  1.
         14    1    4    4    0    0 -0.16949083852E+01 -0.14863534900E+02 -0.41345666187E+02  0.43968869631E+02  0.00000000000E+00 0. -1.
         -5    1    5    5    0  502 -0.20664084541E+01  0.49044079902E+02 -0.27273814817E+02  0.56351954642E+02  0.47000000000E+01 0.  1.
         11    1    6    6    0    0  0.32427351391E+01  0.83601618997E+01 -0.61137175849E+02  0.61791276965E+02  0.00000000000E+00 0. -1.
        -12    1    6    6    0    0 -0.54429646314E+02 -0.89317471903E+02 -0.14131708040E+03  0.17581443171E+03  0.00000000000E+00 0.  1.
</event>
<event>
12    1  0.1035051E+000  0.2533965E+03  0.7818608E-02  0.1111246E+00
         21   -1    0    0  501  502  0.00000000000E+00  0.00000000000E+00  0.30355425521E+04  0.30355425521E+04  0.00000000000E+00 0.  1.
         21   -1    0    0  502  503 -0.00000000000E+00 -0.00000000000E+00 -0.21520809158E+02  0.21520809158E+02  0.00000000000E+00 0.  1.
         -6    2    1    2    0  503 -0.78718039156E+02 -0.16882109931E+03  0.12985776661E+04  0.13230698229E+04  0.17179263161E+03 0.  0.
        -24    2    3    3    0    0 -0.97780996700E+02 -0.18447054803E+03  0.10724421548E+04  0.10955447451E+04  0.80595326607E+02 0.  0.
          6    2    1    2  501    0  0.78718039156E+02  0.16882109931E+03  0.17154440769E+04  0.17339935384E+04  0.17113771301E+03 0.  0.
         24    2    5    5    0    0 -0.29558008454E+01  0.47791719830E+02  0.96136764360E+03  0.96589713548E+03  0.80229327153E+02 0.  0.
          5    1    5    5  501    0  0.81673840002E+02  0.12102937948E+03  0.75407643332E+03  0.76809640289E+03  0.47000000000E+01 0. -1.
        -11    1    6    6    0    0  0.28611644562E+02  0.50216523690E+02  0.74324242226E+03  0.74548616601E+03  0.00000000000E+00 0.  1.
         12    1    6    6    0    0 -0.31567445407E+02 -0.24248038600E+01  0.21812522133E+03  0.22041096947E+03  0.00000000000E+00 0. -1.
         -5    1    3    3    0  503  0.19062957544E+02  0.15649448712E+02  0.22613551128E+03  0.22752507786E+03  0.47000000000E+01 0.  1.
         13    1    4    4    0    0 -0.40884714211E+01 -0.76376689084E+02  0.48140397098E+03  0.48744219915E+03  0.00000000000E+00 0. -1.
        -14    1    4    4    0    0 -0.93692525279E+02 -0.10809385894E+03  0.59103818381E+03  0.60810254592E+03  0.00000000000E+00 0.  1.
</event>
<event>
12    1  0.1035051E+000  0.3012619E+03  0.7818608E-02  0.1084755E+00
         21   -1    0    0  503  502  0.00000000000E+00  0.00000000000E+00  0.33371207853E+03  0.33371207853E+03  0.00000000000E+00 0. -1.
         21   -1    0    0  501  503 -0.00000000000E+00 -0.00000000000E+00 -0.29239514220E+03  0.29239514220E+03  0.00000000000E+00 0. -1.
          6    2    1    2  501    0  0.58729530696E+02  0.23960314446E+03  0.10551412380E+03  0.31920517062E+03  0.17291583507E+03 0.  0.
         24    2    3    3    0    0  0.15841219829E+02  0.60083064575E+02  0.87629590022E+02  0.13370904441E+03  0.79613093233E+02 0.  0.
         -6    2    1    2    0  502 -0.58729530696E+02 -0.23960314446E+03 -0.64197187474E+02  0.30690205010E+03  0.17090571923E+03 0.  0.
        -24    2    5    5    0    0 -0.19290952293E+02 -0.44341040694E+02  0.16631857774E+02  0.91871551821E+02  0.76324927847E+02 0.  0.
          5    1    3    3  501    0  0.42888310866E+02  0.17952007989E+03  0.17884533780E+02  0.18549612622E+03  0.47000000000E+01 0. -1.
        -13    1    4    4    0    0  0.13603887163E+02  0.56421290901E+02  0.10274076317E+03  0.11800039081E+03  0.00000000000E+00 0.  1.
         14    1    4    4    0    0  0.22373326658E+01  0.36617736739E+01 -0.15111173152E+02  0.15708653600E+02  0.00000000000E+00 0. -1.
         -5    1    5    5    0  502 -0.39438578402E+02 -0.19526210377E+03 -0.80829045247E+02  0.21503049828E+03  0.47000000000E+01 0.  1.
         11    1    6    6    0    0 -0.21577971451E+02  0.15679360184E+02 -0.65896592064E+01  0.27474984917E+02  0.00000000000E+00 0. -1.
        -12    1    6    6    0    0  0.22870191576E+01 -0.60020400878E+02  0.23221516980E+02  0.64396566904E+02  0.00000000000E+00 0.  1.
</event>
<event>
12    1  0.1035051E+000  0.3363143E+03  0.7818608E-02  0.1068446E+00
         21   -1    0    0  503  502  0.00000000000E+00  0.00000000000E+00  0.11473018584E+04  0.11473018584E+04  0.00000000000E+00 0. -1.
         21   -1    0    0  501  503 -0.00000000000E+00 -0.00000000000E+00 -0.11003687100E+03  0.11003687100E+03  0.00000000000E+00 0. -1.
          6    2    1    2  501    0  0.10787928891E+03  0.26735408241E+03  0.72354816768E+03  0.79789048805E+03  0.17317948381E+03 0.  0.
         24    2    3    3    0    0  0.14119917470E+03  0.24985297126E+03  0.62614886651E+03  0.69336672258E+03  0.79569433581E+02 0.  0.
         -6    2    1    2    0  502 -0.10787928891E+03 -0.26735408241E+03  0.31371681976E+03  0.45944824139E+03  0.17192526621E+03 0.  0.
        -24    2    5    5    0    0 -0.11643300741E+03 -0.15434353857E+03  0.13919439492E+03  0.25130234090E+03  0.79995086419E+02 0.  0.
          5    1    3    3  501    0 -0.33319885795E+02  0.17501111151E+02  0.97399301168E+02  0.10452376547E+03  0.47000000000E+01 0. -1.
        -11    1    4    4    0    0  0.25004005702E+02  0.10339626071E+03  0.17191939990E+03  0.20216890733E+03  0.00000000000E+00 0.  1.
         12    1    4    4    0    0  0.11619516900E+03  0.14645671055E+03  0.45422946661E+03  0.49119781524E+03  0.00000000000E+00 0. -1.
         -5    1    5    5    0  502  0.85537185059E+01 -0.11301054384E+03  0.17452242484E+03  0.20814590049E+03  0.47000000000E+01 0.  1.
         13    1    6    6    0    0 -0.26599829912E+02 -0.25635687035E+02 -0.60717024349E+01  0.37438015059E+02  0.00000000000E+00 0. -1.
        -14    1    6    6    0    0 -0.89833177502E+02 -0.12870785154E+03  0.14526609736E+03  0.21386432584E+03  0.00000000000E+00 0.  1.
</event>
<event>
12    1  0.1035051E+000  0.2742609E+03  0.7818608E-02  0.1098908E+00
         21   -1    0    0  501  502  0.00000000000E+00  0.00000000000E+00  0.48958855578E+03  0.48958855578E+03  0.00000000000E+00 0. -1.
         21   -1    0    0  502  503 -0.00000000000E+00 -0.00000000000E+00 -0.21527829140E+03  0.21527829140E+03  0.00000000000E+00 0. -1.
         -6    2    1    2    0  503  0.16846702805E+03 -0.13075339126E+03  0.32594559724E+03  0.42578758812E+03  0.17197950159E+03 0.  0.
        -24    2    3    3    0    0  0.17385636862E+03 -0.12560445487E+03  0.21282009716E+03  0.31231941942E+03  0.79047517365E+02 0.  0.
          6    2    1    2  501    0 -0.16846702805E+03  0.13075339126E+03 -0.51635332864E+02  0.27907925906E+03  0.17245705661E+03 0.  0.
         24    2    5    5    0    0 -0.15397209135E+03  0.96497981704E+02  0.19166240206E+02  0.19896378601E+03  0.78739938982E+02 0.  0.
          5    1    5    5  501    0 -0.14494936700E+02  0.34255409556E+02 -0.70801573069E+02  0.80115473055E+02  0.47000000000E+01 0. -1.
        -11    1    6    6    0    0 -0.12435106109E+03  0.10944322148E+03  0.17828354799E+02  0.16660988973E+03  0.00000000000E+00 0.  1.
         12    1    6    6    0    0 -0.29621030261E+02 -0.12945239779E+02  0.13378854067E+01  0.32353896272E+02  0.00000000000E+00 0. -1.
         -5    1    3    3    0  503 -0.53893405686E+01 -0.51489363946E+01  0.11312550008E+03  0.11346816870E+03  0.47000000000E+01 0.  1.
         13    1    4    4    0    0  0.25655145807E+02  0.97010218543E+01  0.32527677178E+02  0.42548162287E+02  0.00000000000E+00 0. -1.
        -14    1    4    4    0    0  0.14820122281E+03 -0.13530547672E+03  0.18029241998E+03  0.26977125713E+03  0.00000000000E+00 0.  1.
</event>
<event>
12    1  0.1035051E+000  0.2667709E+03  0.7818608E-02  0.1103521E+00
         21   -1    0    0  503  502  0.00000000000E+00  0.00000000000E+00  0.85671273658E+03  0.85671273658E+03  0.00000000000E+00 0.  1.
         21   -1    0    0  501  503 -0.00000000000E+00 -0.00000000000E+00 -0.88867893072E+02  0.88867893072E+02  0.00000000000E+00 0.  1.
          6    2    1    2  501    0 -0.19208294823E+03 -0.56184074676E+02  0.51107542782E+03  0.57531414283E+03  0.17244060070E+03 0.  0.
         24    2    3    3    0    0 -0.16163264201E+03  0.17912328092E+02  0.32150016568E+03  0.36945407368E+03  0.81780153884E+02 0.  0.
         -6    2    1    2    0  502  0.19208294823E+03  0.56184074676E+02  0.25676941569E+03  0.37026648683E+03  0.17639225943E+03 0.  0.
        -24    2    5    5    0    0  0.12429616537E+03  0.96948812843E+02  0.12556153081E+03  0.21698762050E+03  0.80432085601E+02 0.  0.
          5    1    3    3  501    0 -0.30450306218E+02 -0.74096402768E+02  0.18957526214E+03  0.20586006915E+03  0.47000000000E+01 0. -1.
        -11    1    4    4    0    0  0.89878682134E+01  0.26232335021E+01  0.85135934893E+01  0.12654817388E+02  0.00000000000E+00 0.  1.
         12    1    4    4    0    0 -0.17062051022E+03  0.15289094590E+02  0.31298657219E+03  0.35679925629E+03  0.00000000000E+00 0. -1.
         -5    1    5    5    0  502  0.67786782859E+02 -0.40764738167E+02  0.13120788488E+03  0.15327886633E+03  0.47000000000E+01 0.  1.
         13    1    6    6    0    0  0.57661144665E+02 -0.13327938053E+01  0.49213443493E+02  0.75819172798E+02  0.00000000000E+00 0. -1.
        -14    1    6    6    0    0  0.66635020701E+02  0.98281606648E+02  0.76348087314E+02  0.14116844770E+03  0.00000000000E+00 0.  1.
</event>
<event>
12    1  0.1035051E+000  0.2788623E+03  0.7818608E-02  0.1096407E+00
         21   -1    0    0  501  502  0.00000000000E+00  0.00000000000E+00  0.13322288274E+03  0.13322288274E+03  0.00000000000E+00 0. -1.
         21   -1    0    0  502  503 -0.00000000000E+00 -0.00000000000E+00 -0.85744319656E+03  0.85744319656E+03  0.00000000000E+00 0. -1.
         -6    2    1    2    0  503 -0.21944050427E+03  0.41635927797E+01 -0.64302022181E+03  0.70088459151E+03  0.17202538924E+03 0.  0.
        -24    2    3    3    0    0 -0.35493456420E+02  0.14547195211E+01 -0.28252069027E+03  0.29613052217E+03  0.81323084500E+02 0.  0.
          6    2    1    2  501    0  0.21944050427E+03 -0.41635927797E+01 -0.81200092013E+02  0.28978148780E+03  0.17090460880E+03 0.  0.
         24    2    5    5    0    0  0.20758548435E+03  0.25578293901E+02 -0.10746137674E+03  0.24810575870E+03  0.79136196370E+02 0.  0.
          5    1    5    5  501    0  0.11855019919E+02 -0.29741886680E+02  0.26261284725E+02  0.41675729100E+02  0.47000000000E+01 0. -1.
        -11    1    6    6    0    0  0.12495661653E+03  0.50695175311E+02 -0.47504317462E+02  0.14297138522E+03  0.00000000000E+00 0.  1.
         12    1    6    6    0    0  0.82628867819E+02 -0.25116881410E+02 -0.59957059276E+02  0.10513437347E+03  0.00000000000E+00 0. -1.
         -5    1    3    3    0  503 -0.18394704785E+03  0.27088732586E+01 -0.36049953153E+03  0.40475406934E+03  0.47000000000E+01 0.  1.
         11    1    4    4    0    0 -0.98794157148E+01  0.21290982964E+01  0.21305640318E+01  0.10328369548E+02  0.00000000000E+00 0. -1.
        -12    1    4    4    0    0 -0.25614040705E+02 -0.67437877527E+00 -0.28465125430E+03  0.28580215262E+03  0.00000000000E+00 0.  1.
</event>
<event>
12    1  0.1035051E+000  0.1843090E+03  0.7818608E-02  0.1163770E+00
         21   -1    0    0  501  502  0.00000000000E+00  0.00000000000E+00  0.33668899052E+03  0.33668899052E+03  0.00000000000E+00 0.  1.
         21   -1    0    0  502  503 -0.00000000000E+00 -0.00000000000E+00 -0.14262299289E+03  0.14262299289E+03  0.00000000000E+00 0.  1.
         -6    2    1    2    0  503  0.58725954590E+02 -0.28760956422E+02  0.22687105329E+03  0.29210623734E+03  0.17198735046E+03 0.  0.
        -24    2    3    3    0    0  0.13752055370E+01 -0.74763434865E+02  0.12303960732E+03  0.16479403992E+03  0.80167750637E+02 0.  0.
          6    2    1    2  501    0 -0.58725954590E+02  0.28760956422E+02 -0.32805055654E+02  0.18720574606E+03  0.17231914962E+03 0.  0.
         24    2    5    5    0    0 -0.21623282859E+02  0.42786382360E+02  0.45086471102E+02  0.99670034705E+02  0.74853757853E+02 0.  0.
          5    1    5    5  501    0 -0.37102671731E+02 -0.14025425938E+02 -0.77891526756E+02  0.87535711357E+02  0.47000000000E+01 0. -1.
        -11    1    6    6    0    0 -0.19880362981E+02 -0.57593410458E+01  0.46684212168E+02  0.51066765193E+02  0.00000000000E+00 0.  1.
         12    1    6    6    0    0 -0.17429198774E+01  0.48545723406E+02 -0.15977410666E+01  0.48603269512E+02  0.00000000000E+00 0. -1.
         -5    1    3    3    0  503  0.57350749053E+02  0.46002478443E+02  0.10383144597E+03  0.12731219742E+03  0.47000000000E+01 0.  1.
         13    1    4    4    0    0 -0.33766216713E+02 -0.32057598359E+02  0.87316050512E+02  0.98954230232E+02  0.00000000000E+00 0. -1.
        -14    1    4    4    0    0  0.35141422250E+02 -0.42705836506E+02  0.35723556806E+02  0.65839809692E+02  0.00000000000E+00 0.  1.
</event>
<event>
12    1  0.1035051E+000  0.1899578E+03  0.7818608E-02  0.1158553E+00
         21   -1    0    0  503  502  0.00000000000E+00  0.00000000000E+00  0.36102285498E+03  0.36102285498E+03  0.00000000000E+00 0.  1.
         21   -1    0    0  501  503 -0.00000000000E+00 -0.00000000000E+00 -0.28730353341E+03  0.28730353341E+03  0.00000000000E+00 0.  1.
          6    2    1    2  501    0 -0.19322006639E+02 -0.78040896498E+02 -0.22500795488E+03  0.29431795562E+03  0.17184515638E+03 0.  0.
         24    2    3    3    0    0 -0.20455149712E+02  0.29554446111E+02 -0.81696958391E+02  0.11504672681E+03  0.72591169599E+02 0.  0.
         -6    2    1    2    0  502  0.19322006639E+02  0.78040896498E+02  0.29872727645E+03  0.35400843277E+03  0.17210538430E+03 0.  0.
        -24    2    5    5    0    0  0.26593132432E+02  0.12025667093E+03  0.23726107213E+03  0.27894029602E+03  0.79661852854E+02 0.  0.
          5    1    3    3  501    0  0.11331430729E+01 -0.10759534261E+03 -0.14331099649E+03  0.17927122881E+03  0.47000000000E+01 0. -1.
        -11    1    4    4    0    0 -0.43783068731E+02  0.19047367831E+01 -0.53636402991E+02  0.69263618556E+02  0.00000000000E+00 0.  1.
         12    1    4    4    0    0  0.23327919019E+02  0.27649709328E+02 -0.28060555401E+02  0.45783108250E+02  0.00000000000E+00 0. -1.
         -5    1    5    5    0  502 -0.72711257924E+01 -0.42215774428E+02  0.61466204322E+02  0.75068136746E+02  0.47000000000E+01 0.  1.
         13    1    6    6    0    0  0.12887716586E+02  0.97429929269E+02  0.10417490767E+03  0.14321695341E+03  0.00000000000E+00 0. -1.
        -14    1    6    6    0    0  0.13705415846E+02  0.22826741657E+02  0.13308616446E+03  0.13572334261E+03  0.00000000000E+00 0.  1.
</event>
<event>
12    1  0.1035051E+000  0.1971012E+03  0.7818608E-02  0.1152282E+00
         21   -1    0    0  501  502  0.00000000000E+00  0.00000000000E+00  0.27142427908E+03  0.27142427908E+03  0.00000000000E+00 0. -1.
         21   -1    0    0  502  503 -0.00000000000E+00 -0.00000000000E+00 -0.14430266468E+03  0.14430266468E+03  0.00000000000E+00 0. -1.
         -6    2    1    2    0  503 -0.29971543128E+02  0.91290021074E+02  0.42987658931E+02  0.20173455105E+03  0.17209511591E+03 0.  0.
        -24    2    3    3    0    0 -0.38764434554E+02 -0.48886925892E+01 -0.13326975146E+02  0.89836883900E+02  0.79790204541E+02 0.  0.
          6    2    1    2  501    0  0.29971543128E+02 -0.91290021074E+02  0.84133955459E+02  0.21399239271E+03  0.17170340804E+03 0.  0.
         24    2    5    5    0    0 -0.27486670846E+02 -0.10104779181E+03  0.82358934782E+02  0.15549537449E+03  0.80185061242E+02 0.  0.
          5    1    5    5  501    0  0.57458213974E+02  0.97577707314E+01  0.17750206777E+01  0.58497018224E+02  0.47000000000E+01 0. -1.
        -13    1    6    6    0    0 -0.19581984127E+02 -0.80263584868E+01 -0.10669901102E+02  0.23700702994E+02  0.00000000000E+00 0.  1.
         14    1    6    6    0    0 -0.79046867188E+01 -0.93021433319E+02  0.93028835883E+02  0.13179467150E+03  0.00000000000E+00 0. -1.
         -5    1    3    3    0  503  0.87928914263E+01  0.96178713664E+02  0.56314634078E+02  0.11189766715E+03  0.47000000000E+01 0.  1.
         11    1    4    4    0    0 -0.17687144428E+02 -0.23868897609E+02 -0.40719869849E+02  0.50405031015E+02  0.00000000000E+00 0. -1.
        -12    1    4    4    0    0 -0.21077290126E+02  0.18980205020E+02  0.27392894703E+02  0.39431852884E+02  0.00000000000E+00 0.  1.
</event>
<event>
12    1  0.1035051E+000  0.1808141E+03  0.7818608E-02  0.1167066E+00
         21   -1    0    0  503  502  0.00000000000E+00  0.00000000000E+00  0.10569247633E+03  0.10569247633E+03  0.00000000000E+00 0.  1.
         21   -1    0    0  501  503 -0.00000000000E+00 -0.00000000000E+00 -0.58030600579E+03  0.58030600579E+03  0.00000000000E+00 0.  1.
          6    2    1    2  501    0 -0.54620297221E+02  0.11805493836E+02 -0.27006647135E+01  0.18063179896E+03  0.17174925517E+03 0.  0.
         24    2    3    3    0    0  0.29022114976E+02 -0.23631204692E+02 -0.23942205399E+01  0.89670287163E+02  0.81451280622E+02 0.  0.
         -6    2    1    2    0  502  0.54620297221E+02 -0.11805493836E+02 -0.47191286475E+03  0.50536668315E+03  0.17196216437E+03 0.  0.
        -24    2    5    5    0    0 -0.48040040688E+01 -0.61315363405E+02 -0.29640304006E+03  0.31351188564E+03  0.81561559782E+02 0.  0.
          5    1    3    3  501    0 -0.83642412197E+02  0.35436698528E+02 -0.30644417358E+00  0.90961511798E+02  0.47000000000E+01 0. -1.
        -11    1    4    4    0    0  0.87863878958E+01  0.13120186954E+02  0.31827337755E+02  0.35529133772E+02  0.00000000000E+00 0.  1.
         12    1    4    4    0    0  0.20235727080E+02 -0.36751391646E+02 -0.34221558295E+02  0.54141153391E+02  0.00000000000E+00 0. -1.
         -5    1    5    5    0  502  0.59424301289E+02  0.49509869569E+02 -0.17550982469E+03  0.19185479752E+03  0.47000000000E+01 0.  1.
         11    1    6    6    0    0  0.28626784480E+02  0.15691272797E+01 -0.58006922624E+02  0.64705162255E+02  0.00000000000E+00 0. -1.
        -12    1    6    6    0    0 -0.33430788548E+02 -0.62884490685E+02 -0.23839611744E+03  0.24880672338E+03  0.00000000000E+00 0.  1.
</event>
<event>
12    1  0.1035051E+000  0.2076509E+03  0.7818608E-02  0.1143527E+00
         21   -1    0    0  501  502  0.00000000000E+00  0.00000000000E+00  0.63767842137E+03  0.63767842137E+03  0.00000000000E+00 0.  1.
         21   -1    0    0  502  503 -0.00000000000E+00 -0.00000000000E+00 -0.17804822656E+03  0.17804822656E+03  0.00000000000E+00 0. -1.
         -6    2    1    2    0  503 -0.11559030352E+03 -0.30012103873E+01  0.55113896493E+03  0.58880651109E+03  0.17195587604E+03 0.  0.
        -24    2    3    3    0    0 -0.68433126171E+02  0.36971151528E+02  0.17697277130E+03  0.20953876984E+03  0.80852801335E+02 0.  0.
          6    2    1    2  501    0  0.11559030352E+03  0.30012103873E+01 -0.91508770113E+02  0.22692013684E+03  0.17247831158E+03 0.  0.
         24    2    5    5    0    0  0.41885133046E+02 -0.83280284481E+01 -0.11758295478E+03  0.14778255466E+03  0.78677898924E+02 0.  0.
          5    1    5    5  501    0  0.73705170471E+02  0.11329238835E+02  0.26074184670E+02  0.79137582178E+02  0.47000000000E+01 0. -1.
        -13    1    6    6    0    0  0.40083107256E+02 -0.35676329118E+02 -0.10436944205E+03  0.11735602405E+03  0.00000000000E+00 0.  1.
         14    1    6    6    0    0  0.18020257905E+01  0.27348300670E+02 -0.13213512733E+02  0.30426530614E+02  0.00000000000E+00 0. -1.
         -5    1    3    3    0  503 -0.47157177347E+02 -0.39972361916E+02  0.37416619363E+03  0.37926774124E+03  0.47000000000E+01 0.  1.
         11    1    4    4    0    0 -0.79879626342E+02  0.11057560815E+02  0.10650786659E+03  0.13359247734E+03  0.00000000000E+00 0. -1.
        -12    1    4    4    0    0  0.11446500171E+02  0.25913590713E+02  0.70464904707E+02  0.75946292504E+02  0.00000000000E+00 0.  1.
</event>
<event>
12    1  0.1035051E+000  0.1899418E+03  0.7818608E-02  0.1158791E+00
         21   -1    0    0  501  502  0.00000000000E+00  0.00000000000E+00  0.72572844422E+03  0.72572844422E+03  0.00000000000E+00 0.  1.
         21   -1    0    0  502  503 -0.00000000000E+00 -0.00000000000E+00 -0.56252033873E+02  0.56252033873E+02  0.00000000000E+00 0.  1.
         -6    2    1    2    0  503 -0.75569399847E+02  0.24122840115E+02  0.19726113168E+03  0.27299604648E+03  0.17123738410E+03 0.  0.
        -24    2    3    3    0    0 -0.90071054845E+02 -0.26326390173E+00  0.62419826115E+02  0.13512201791E+03  0.79049736264E+02 0.  0.
          6    2    1    2  501    0  0.75569399847E+02 -0.24122840115E+02  0.47221527866E+03  0.50898443161E+03  0.17258399871E+03 0.  0.
         24    2    5    5    0    0  0.61795651514E+02  0.42959382767E+02  0.37882372011E+03  0.39308010046E+03  0.73077652863E+02 0.  0.
          5    1    5    5  501    0  0.13773748333E+02 -0.67082222882E+02  0.93391558552E+02  0.11590433115E+03  0.47000000000E+01 0. -1.
        -11    1    6    6    0    0  0.49946555348E+02  0.90997980344E+01  0.10194330020E+03  0.11388547393E+03  0.00000000000E+00 0.  1.
         12    1    6    6    0    0  0.11849096166E+02  0.33859584733E+02  0.27688041990E+03  0.27919462653E+03  0.00000000000E+00 0. -1.
         -5    1    3    3    0  503  0.14501654998E+02  0.24386104017E+02  0.13484130557E+03  0.13787402857E+03  0.47000000000E+01 0.  1.
         13    1    4    4    0    0 -0.77698052512E+02 -0.12338377246E+02  0.78768869055E+02  0.11132725475E+03  0.00000000000E+00 0. -1.
        -14    1    4    4    0    0 -0.12373002334E+02  0.12075113345E+02 -0.16349042940E+02  0.23794763165E+02  0.00000000000E+00 0.  1.
</event>
<event>
12    1  0.1035051E+000  0.1779398E+03  0.7818608E-02  0.1170572E+00
         21   -1    0    0  501  502  0.00000000000E+00  0.00000000000E+00  0.29708739630E+02  0.29708739630E+02  0.00000000000E+00 0.  1.
         21   -1    0    0  502  503 -0.00000000000E+00 -0.00000000000E+00 -0.10803796374E+04  0.10803796374E+04  0.00000000000E+00 0.  1.
         -6    2    1    2    0  503  0.37609660709E+02  0.36821983110E+02 -0.61775450184E+03  0.64202943939E+03  0.16676579830E+03 0.  0.
        -24    2    3    3    0    0  0.67295986091E+01  0.85277562607E+02 -0.38361077439E+03  0.40089276337E+03  0.78995134729E+02 0.  0.
          6    2    1    2  501    0 -0.37609660709E+02 -0.36821983110E+02 -0.43291639593E+03  0.46805893764E+03  0.16997711087E+03 0.  0.
         24    2    5    5    0    0  0.14032102236E+02 -0.50993962588E+02 -0.38252615472E+03  0.39437730430E+03  0.80061944692E+02 0.  0.
          5    1    5    5  501    0 -0.51641762945E+02  0.14171979479E+02 -0.50390241212E+02  0.73681633341E+02  0.47000000000E+01 0. -1.
        -13    1    6    6    0    0 -0.26334413579E+02 -0.13073311677E+02 -0.23438095594E+03  0.23621779214E+03  0.00000000000E+00 0.  1.
         14    1    6    6    0    0  0.40366515815E+02 -0.37920650911E+02 -0.14814519879E+03  0.15815951216E+03  0.00000000000E+00 0. -1.
         -5    1    3    3    0  503  0.30880062100E+02 -0.48455579498E+02 -0.23414372745E+03  0.24113667602E+03  0.47000000000E+01 0.  1.
         11    1    4    4    0    0 -0.33641008466E+02  0.35006187708E+02 -0.21406288723E+03  0.21949959070E+03  0.00000000000E+00 0. -1.
        -12    1    4    4    0    0  0.40370607075E+02  0.50271374900E+02 -0.16954788716E+03  0.18139317267E+03  0.00000000000E+00 0.  1.
</event>
<event>
12    1  0.1035051E+000  0.2346520E+03  0.7818608E-02  0.1123539E+00
         21   -1    0    0  501  502  0.00000000000E+00  0.00000000000E+00  0.60621515410E+02  0.60621515410E+02  0.00000000000E+00 0. -1.
         21   -1    0    0  502  503 -0.00000000000E+00 -0.00000000000E+00 -0.92002885210E+03  0.92002885210E+03  0.00000000000E+00 0. -1.
         -6    2    1    2    0  503 -0.14106604441E+03  0.75605936091E+02 -0.36839020632E+03  0.43677556723E+03  0.17159739380E+03 0.  0.
        -24    2    3    3    0    0 -0.40465141107E+02 -0.17218854337E+02 -0.19369444787E+03  0.21478979858E+03  0.81750852282E+02 0.  0.
          6    2    1    2  501    0  0.14106604441E+03 -0.75605936091E+02 -0.49101713038E+03  0.54387480028E+03  0.17054644413E+03 0.  0.
         24    2    5    5    0    0  0.13153794316E+03 -0.17685804541E+02 -0.23693554491E+03  0.28305864199E+03  0.79804286809E+02 0.  0.
          5    1    5    5  501    0  0.95281012486E+01 -0.57920131550E+02 -0.25408158547E+03  0.26081615829E+03  0.47000000000E+01 0. -1.
        -11    1    6    6    0    0  0.37445630760E+02 -0.24172028720E+02 -0.14363885058E+03  0.15039475268E+03  0.00000000000E+00 0.  1.
         12    1    6    6    0    0  0.94092312401E+02  0.64862241793E+01 -0.93296694326E+02  0.13266388932E+03  0.00000000000E+00 0. -1.
         -5    1    3    3    0  503 -0.10060090330E+03  0.92824790428E+02 -0.17469575845E+03  0.22198576865E+03  0.47000000000E+01 0.  1.
         11    1    4    4    0    0 -0.41929483046E+02 -0.31857980958E+02 -0.19300676757E+03  0.20006155260E+03  0.00000000000E+00 0. -1.
        -12    1    4    4    0    0  0.14643419384E+01  0.14639126620E+02 -0.68768029777E+00  0.14728245982E+02  0.00000000000E+00 0.  1.
</event>
<event>
12    1  0.1035051E+000  0.2670831E+03  0.7818608E-02  0.1103078E+00
         21   -1    0    0  503  502  0.00000000000E+00  0.00000000000E+00  0.35463317527E+03  0.35463317527E+03  0.00000000000E+00 0. -1.
         21   -1    0    0  501  503 -0.00000000000E+00 -0.00000000000E+00 -0.21385645145E+03  0.21385645145E+03  0.00000000000E+00 0. -1.
          6    2    1    2  501    0 -0.58588589177E+02  0.19638778148E+03  0.14121276291E+03  0.30140613476E+03  0.17001126481E+03 0.  0.
         24    2    3    3    0    0 -0.52111625782E+02  0.76999689597E+02  0.13507595748E+03  0.18159287205E+03  0.78012070555E+02 0.  0.
         -6    2    1    2    0  502  0.58588589177E+02 -0.19638778148E+03 -0.43603909193E+00  0.26708349197E+03  0.17126767953E+03 0.  0.
        -24    2    5    5    0    0  0.47931777581E+02 -0.17410618202E+03  0.56082914567E+02  0.20522462493E+03  0.79758607392E+02 0.  0.
          5    1    3    3  501    0 -0.64769633947E+01  0.11938809189E+03  0.61368054341E+01  0.11981326271E+03  0.47000000000E+01 0. -1.
        -11    1    4    4    0    0 -0.25872667755E+02 -0.72732472717E+01  0.59903897652E+02  0.65656469723E+02  0.00000000000E+00 0.  1.
         12    1    4    4    0    0 -0.26238958027E+02  0.84272936868E+02  0.75172059827E+02  0.11593640233E+03  0.00000000000E+00 0. -1.
         -5    1    5    5    0  502  0.10656811595E+02 -0.22281599466E+02 -0.56518953658E+02  0.61858867034E+02  0.47000000000E+01 0.  1.
         13    1    6    6    0    0  0.21841846400E+02 -0.95078309890E+01  0.27080024549E+02  0.36066505707E+02  0.00000000000E+00 0. -1.
        -14    1    6    6    0    0  0.26089931181E+02 -0.16459835103E+03  0.29002890017E+02  0.16915811922E+03  0.00000000000E+00 0.  1.
</event>
<event>
12    1  0.1035051E+000  0.2056727E+03  0.7818608E-02  0.1147395E+00
         21   -1    0    0  503  502  0.00000000000E+00  0.00000000000E+00  0.27293341279E+03  0.27293341279E+03  0.00000000000E+00 0.  1.
         21   -1    0    0  501  503 -0.00000000000E+00 -0.00000000000E+00 -0.16011066220E+03  0.16011066220E+03  0.00000000000E+00 0.  1.
          6    2    1    2  501    0  0.11162475346E+03 -0.13048201788E+02 -0.78313910428E+01  0.19459347723E+03  0.15866615752E+03 0.  0.
         24    2    3    3    0    0  0.20786386150E+02 -0.58251887120E+01  0.38274864039E+02  0.92360128217E+02  0.81236822897E+02 0.  0.
         -6    2    1    2    0  502 -0.11162475346E+03  0.13048201788E+02  0.12065414164E+03  0.23845059776E+03  0.17225250222E+03 0.  0.
        -24    2    5    5    0    0 -0.13009390902E+03  0.34883898511E+02  0.55236873572E+02  0.16690050118E+03  0.81629366979E+02 0.  0.
          5    1    3    3  501    0  0.90838367308E+02 -0.72230130761E+01 -0.46106255082E+02  0.10223334901E+03  0.47000000000E+01 0. -1.
        -11    1    4    4    0    0  0.49467710013E+01 -0.42334279878E+02  0.28831746363E+02  0.51458054709E+02  0.00000000000E+00 0.  1.
         12    1    4    4    0    0  0.15839615149E+02  0.36509091166E+02  0.94431176761E+01  0.40902073508E+02  0.00000000000E+00 0. -1.
         -5    1    5    5    0  502  0.18469155561E+02 -0.21835696723E+02  0.65417268070E+02  0.71550096577E+02  0.47000000000E+01 0.  1.
         11    1    6    6    0    0 -0.66084421561E+02 -0.71375144496E+01 -0.88429911978E+01  0.67054406111E+02  0.00000000000E+00 0. -1.
        -12    1    6    6    0    0 -0.64009487457E+02  0.42021412961E+02  0.64079864770E+02  0.99846095070E+02  0.00000000000E+00 0.  1.
</event>
<event>
12    1  0.1035051E+000  0.2736481E+03  0.7818608E-02  0.1100577E+00
         21   -1    0    0  503  502  0.00000000000E+00  0.00000000000E+00  0.19397015018E+03  0.19397015018E+03  0.00000000000E+00 0. -1.
         21   -1    0    0  501  503 -0.00000000000E+00 -0.00000000000E+00 -0.43653005294E+03  0.43653005294E+03  0.00000000000E+00 0.  1.
          6    2    1    2  501    0  0.17027111090E+03 -0.12580031726E+03 -0.23995905599E+03  0.35683974492E+03  0.15791226670E+03 0.  0.
         24    2    3    3    0    0  0.72120434606E+02 -0.95675506656E+02 -0.74474161903E+02  0.16203625511E+03  0.79713157751E+02 0.  0.
         -6    2    1    2    0  502 -0.17027111090E+03  0.12580031726E+03 -0.26008467807E+01  0.27366045820E+03  0.17339351472E+03 0.  0.
        -24    2    5    5    0    0 -0.29151130195E+02  0.91976867014E+00  0.10387261732E+02  0.84713954302E+02  0.78853817163E+02 0.  0.
          5    1    3    3  501    0  0.98150676295E+02 -0.30124810608E+02 -0.16548489408E+03  0.19480348981E+03  0.47000000000E+01 0. -1.
        -13    1    4    4    0    0  0.73892030282E+02 -0.48650070343E+02 -0.73418191512E+02  0.11496561368E+03  0.00000000000E+00 0.  1.
         14    1    4    4    0    0 -0.17715956760E+01 -0.47025436313E+02 -0.10559703909E+01  0.47070641436E+02  0.00000000000E+00 0. -1.
         -5    1    5    5    0  502 -0.14111998071E+03  0.12488054859E+03 -0.12988108513E+02  0.18894650390E+03  0.47000000000E+01 0.  1.
         13    1    6    6    0    0 -0.52883526166E+02  0.10484517406E+02  0.19823904457E+02  0.57441967523E+02  0.00000000000E+00 0. -1.
        -14    1    6    6    0    0  0.23732395972E+02 -0.95647487357E+01 -0.94366427246E+01  0.27271986778E+02  0.00000000000E+00 0.  1.
</event>
<event>
12    1  0.1035051E+000  0.2077022E+03  0.7818608E-02  0.1143458E+00
         21   -1    0    0  503  502  0.00000000000E+00  0.00000000000E+00  0.16744103152E+04  0.16744103152E+04  0.00000000000E+00 0.  1.
         21   -1    0    0  501  503 -0.00000000000E+00 -0.00000000000E+00 -0.47145218307E+02  0.47145218307E+02  0.00000000000E+00 0.  1.
          6    2    1    2  501    0 -0.85173688907E+02 -0.79522794318E+02  0.13934877000E+04  0.14088383207E+04  0.17157800492E+03 0.  0.
         24    2    3    3    0    0 -0.79451970189E+02 -0.31230142977E+02  0.48755067236E+03  0.50158482456E+03  0.81201851668E+02 0.  0.
         -6    2    1    2    0  502  0.85173688907E+02  0.79522794318E+02  0.23377739686E+03  0.31271721276E+03  0.17193531276E+03 0.  0.
        -24    2    5    5    0    0  0.82300153618E+02  0.63779891687E+02  0.25409933519E+03  0.28642715065E+03  0.81442314663E+02 0.  0.
          5    1    3    3  501    0 -0.57217187182E+01 -0.48292651341E+02  0.90593702767E+03  0.90725349618E+03  0.47000000000E+01 0. -1.
        -11    1    4    4    0    0 -0.19149153566E+02 -0.41269227672E+02  0.32023791374E+03  0.32345349068E+03  0.00000000000E+00 0.  1.
         12    1    4    4    0    0 -0.60302816623E+02  0.10039084695E+02  0.16731275862E+03  0.17813133388E+03  0.00000000000E+00 0. -1.
         -5    1    5    5    0  502  0.28735352888E+01  0.15742902631E+02 -0.20321938326E+02  0.26290062108E+02  0.47000000000E+01 0.  1.
         13    1    6    6    0    0  0.11145661883E+02 -0.17644832148E+02  0.68672577169E+02  0.71773872234E+02  0.00000000000E+00 0. -1.
        -14    1    6    6    0    0  0.71154491735E+02  0.81424723835E+02  0.18542675802E+03  0.21465327842E+03  0.00000000000E+00 0.  1.
</event>
<event>
12    1  0.1035051E+000  0.3040423E+03  0.7818608E-02  0.1083556E+00
         21   -1    0    0  501  502  0.00000000000E+00  0.00000000000E+00  0.53054162139E+03  0.53054162139E+03  0.00000000000E+00 0. -1.
         21   -1    0    0  502  503 -0.00000000000E+00 -0.00000000000E+00 -0.20646941989E+03  0.20646941989E+03  0.00000000000E+00 0.  1.
         -6    2    1    2    0  503  0.14056598808E+03  0.20338294193E+03  0.31150999952E+03  0.43529321154E+03  0.17696972095E+03 0.  0.
        -24    2    3    3    0    0  0.17189622755E+02  0.12439858873E+03  0.10669437223E+03  0.18343653254E+03  0.80590200377E+02 0.  0.
          6    2    1    2  501    0 -0.14056598808E+03 -0.20338294193E+03  0.12562201978E+02  0.30171782974E+03  0.17248890338E+03 0.  0.
         24    2    5    5    0    0 -0.70172470797E+02 -0.15643435473E+03 -0.50377527343E+02  0.19615781532E+03  0.80895675130E+02 0.  0.
          5    1    5    5  501    0 -0.70393517284E+02 -0.46948587204E+02  0.62939729321E+02  0.10556001441E+03  0.47000000000E+01 0. -1.
        -13    1    6    6    0    0 -0.47350084646E+02 -0.11040281924E+03  0.54941296089E+01  0.12025389171E+03  0.00000000000E+00 0.  1.
         14    1    6    6    0    0 -0.22822386151E+02 -0.46031535489E+02 -0.55871656952E+02  0.75903923611E+02  0.00000000000E+00 0. -1.
         -5    1    3    3    0  503  0.12337636532E+03  0.78984353201E+02  0.20481562729E+03  0.25185667899E+03  0.47000000000E+01 0.  1.
         11    1    4    4    0    0 -0.24259633517E+02  0.26657743145E+02  0.53968798515E+02  0.64898353608E+02  0.00000000000E+00 0. -1.
        -12    1    4    4    0    0  0.41449256273E+02  0.97740845586E+02  0.52725573720E+02  0.11853817894E+03  0.00000000000E+00 0.  1.
</event>
<event>
12    1  0.1035051E+000  0.1831043E+03  0.7818608E-02  0.1164907E+00
         21   -1    0    0  503  502  0.00000000000E+00  0.00000000000E+00  0.38679249944E+02  0.38679249944E+02  0.00000000000E+00 0. -1.
         21   -1    0    0  501  503 -0.00000000000E+00 -0.00000000000E+00 -0.91790908860E+03  0.91790908860E+03  0.00000000000E+00 0. -1.
          6    2    1    2  501    0 -0.64389883739E+02 -0.91664647507E+00 -0.55446287806E+03  0.58391459700E+03  0.17140675619E+03 0.  0.
         24    2    3    3    0    0  0.31349333662E+02  0.11943532911E+02 -0.26803517300E+03  0.28159969133E+03  0.79561947502E+02 0.  0.
         -6    2    1    2    0  502  0.64389883739E+02  0.91664647507E+00 -0.32476696060E+03  0.37267374155E+03  0.17107086712E+03 0.  0.
        -24    2    5    5    0    0  0.62184808711E+02 -0.47645249668E+02 -0.29404962621E+03  0.31497829334E+03  0.81296508834E+02 0.  0.
          5    1    3    3  501    0 -0.95739217401E+02 -0.12860179386E+02 -0.28642770506E+03  0.30231490567E+03  0.47000000000E+01 0. -1.
        -11    1    4    4    0    0 -0.98493642476E+01  0.24340380453E+02 -0.19557163730E+03  0.19732645391E+03  0.00000000000E+00 0.  1.
         12    1    4    4    0    0  0.41198697910E+02 -0.12396847543E+02 -0.72463535705E+02  0.84273237420E+02  0.00000000000E+00 0. -1.
         -5    1    5    5    0  502  0.22050750281E+01  0.48561896143E+02 -0.30717334386E+02  0.57695448214E+02  0.47000000000E+01 0.  1.
         13    1    6    6    0    0  0.17007679137E+02  0.14836519403E+02 -0.19562683700E+02  0.29867742652E+02  0.00000000000E+00 0. -1.
        -14    1    6    6    0    0  0.45177129575E+02 -0.62481769071E+02 -0.27448694251E+03  0.28511055069E+03  0.00000000000E+00 0.  1.
</event>
<event>
12    1  0.1035051E+000  0.2024344E+03  0.7818608E-02  0.1148452E+00
         21   -1    0    0  501  502  0.00000000000E+00  0.00000000000E+00  0.12837996061E+03  0.12837996061E+03  0.00000000000E+00 0. -1.
         21   -1    0    0  502  503 -0.00000000000E+00 -0.00000000000E+00 -0.51799905574E+03  0.51799905574E+03  0.00000000000E+00 0. -1.
         -6    2    1    2    0  503 -0.31277832685E+02  0.10427047848E+03  0.92633019244E+01  0.19906833977E+03  0.16640841216E+03 0.  0.
        -24    2    3    3    0    0 -0.79490085686E+02  0.60193711622E+02 -0.15566518470E+02  0.12902697559E+03  0.80397060211E+02 0.  0.
          6    2    1    2  501    0  0.31277832685E+02 -0.10427047848E+03 -0.39888239705E+03  0.44731067658E+03  0.17067231528E+03 0.  0.
         24    2    5    5    0    0  0.21389397578E+02 -0.97821533769E+01 -0.75864968276E+02  0.11057907126E+03  0.76935302269E+02 0.  0.
          5    1    5    5  501    0  0.98884351065E+01 -0.94488325107E+02 -0.32301742877E+03  0.33673160532E+03  0.47000000000E+01 0. -1.
        -13    1    6    6    0    0  0.17688889854E+02 -0.26856283740E+02 -0.84988909788E+02  0.90869530578E+02  0.00000000000E+00 0.  1.
         14    1    6    6    0    0  0.37005077246E+01  0.17074130363E+02  0.91239415118E+01  0.19709540679E+02  0.00000000000E+00 0. -1.
         -5    1    3    3    0  503  0.48212253001E+02  0.44076766863E+02  0.24829820395E+02  0.70041364188E+02  0.47000000000E+01 0.  1.
         11    1    4    4    0    0 -0.11735089433E+02  0.30317851821E+02 -0.39544417101E+02  0.51192239518E+02  0.00000000000E+00 0. -1.
        -12    1    4    4    0    0 -0.67754996253E+02  0.29875859800E+02  0.23977898630E+02  0.77834736068E+02  0.00000000000E+00 0.  1.
</event>
<event>
12    1  0.1035051E+000  0.1882940E+03  0.7818608E-02  0.1160179E+00
         21   -1    0    0  503  502  0.00000000000E+00  0.00000000000E+00  0.31453844474E+03  0.31453844474E+03  0.00000000000E+00 0.  1.
         21   -1    0    0  501  503 -0.00000000000E+00 -0.00000000000E+00 -0.16175444926E+03  0.16175444926E+03  0.00000000000E+00 0.  1.
          6    2    1    2  501    0 -0.49871779738E+02  0.57775036461E+02 -0.55423565099E+02  0.19557056364E+03  0.17132111529E+03 0.  0.
         24    2    3    3    0    0  0.31357696781E+02 -0.18512648789E+01 -0.12574989189E+02  0.85973053980E+02  0.79034823518E+02 0.  0.
         -6    2    1    2    0  502  0.49871779738E+02 -0.57775036461E+02  0.20820756058E+03  0.28072233035E+03  0.17213218532E+03 0.  0.
        -24    2    5    5    0    0  0.41893098174E+01 -0.98747104638E+02  0.14323903140E+03  0.19123155869E+03  0.79268833290E+02 0.  0.
          5    1    3    3  501    0 -0.81229476519E+02  0.59626301340E+02 -0.42848575909E+02  0.10959750966E+03  0.47000000000E+01 0. -1.
        -11    1    4    4    0    0 -0.80483377838E+01  0.16947358174E+02 -0.32853631361E+02  0.37833183632E+02  0.00000000000E+00 0.  1.
         12    1    4    4    0    0  0.39406034564E+02 -0.18798623053E+02  0.20278642171E+02  0.48139870348E+02  0.00000000000E+00 0. -1.
         -5    1    5    5    0  502  0.45682469921E+02  0.40972068177E+02  0.64968529189E+02  0.89490771668E+02  0.47000000000E+01 0.  1.
         13    1    6    6    0    0 -0.53930330910E+01 -0.67493104226E+02  0.31255532356E+02  0.74574206177E+02  0.00000000000E+00 0. -1.
        -14    1    6    6    0    0  0.95823429084E+01 -0.31254000411E+02  0.11198349904E+03  0.11665735251E+03  0.00000000000E+00 0.  1.
</event>
<event>
12    1  0.1035051E+000  0.1789081E+03  0.7818608E-02  0.1169042E+00
         21   -1    0    0  503  502  0.00000000000E+00  0.00000000000E+00  0.12804577631E+03  0.12804577631E+03  0.00000000000E+00 0.  1.
         21   -1    0    0  501  503 -0.00000000000E+00 -0.00000000000E+00 -0.50720845107E+03  0.50720845107E+03  0.00000000000E+00 0.  1.
          6    2    1    2  501    0 -0.37789742956E+02  0.26207496117E+02 -0.41641690864E+03  0.45322308747E+03  0.17289658091E+03 0.  0.
         24    2    3    3    0    0  0.37066863487E+02  0.41520040839E+02 -0.19349139475E+03  0.21752018062E+03  0.82330085482E+02 0.  0.
         -6    2    1    2    0  502  0.37789742956E+02 -0.26207496117E+02  0.37254233882E+02  0.18203113991E+03  0.17214110615E+03 0.  0.
        -24    2    5    5    0    0  0.31041884244E+02 -0.65829199040E+02  0.71075838452E+02  0.12929212327E+03  0.79797219909E+02 0.  0.
          5    1    3    3  501    0 -0.74856606443E+02 -0.15312544722E+02 -0.22292551389E+03  0.23570290685E+03  0.47000000000E+01 0. -1.
        -13    1    4    4    0    0 -0.10574094068E+02  0.31591565306E+02 -0.14515833349E+03  0.14893213302E+03  0.00000000000E+00 0.  1.
         14    1    4    4    0    0  0.47640957555E+02  0.99284755337E+01 -0.48333061255E+02  0.68588047599E+02  0.00000000000E+00 0. -1.
         -5    1    5    5    0  502  0.67478587127E+01  0.39621702923E+02 -0.33821604570E+02  0.52739016633E+02  0.47000000000E+01 0.  1.
         13    1    6    6    0    0  0.52815230337E+02 -0.32127398914E+02  0.63191720436E+02  0.88401424469E+02  0.00000000000E+00 0. -1.
        -14    1    6    6    0    0 -0.21773346093E+02 -0.33701800127E+02  0.78841180160E+01  0.40890698805E+02  0.00000000000E+00 0.  1.
</event>
<event>
12    1  0.1035051E+000  0.2825589E+03  0.7818608E-02  0.1094683E+00
         21   -1    0    0  501  502  0.00000000000E+00  0.00000000000E+00  0.10912890380E+04  0.10912890380E+04  0.00000000000E+00 0.  1.
         21   -1    0    0  502  503 -0.00000000000E+00 -0.00000000000E+00 -0.73098185187E+02  0.73098185187E+02  0.00000000000E+00 0.  1.
         -6    2    1    2    0  503  0.43624947187E+02  0.22125787376E+03  0.56221046805E+03  0.62795674568E+03  0.16550190737E+03 0.  0.
        -24    2    3    3    0    0  0.21175397908E+01  0.18560557091E+03  0.52237507771E+03  0.56011207094E+03  0.79974360083E+02 0.  0.
          6    2    1    2  501    0 -0.43624947187E+02 -0.22125787376E+03  0.45598038475E+03  0.53643047750E+03  0.17023913531E+03 0.  0.
         24    2    5    5    0    0 -0.67905093242E+02 -0.22199050698E+03  0.44637086345E+03  0.50988815010E+03  0.82753193298E+02 0.  0.
          5    1    5    5  501    0  0.24280146055E+02  0.73263322260E+00  0.96095213067E+01  0.26542327397E+02  0.47000000000E+01 0. -1.
        -11    1    6    6    0    0 -0.70860750710E+02 -0.11770285656E+03  0.30183785124E+03  0.33163428182E+03  0.00000000000E+00 0.  1.
         12    1    6    6    0    0  0.29556574680E+01 -0.10428765042E+03  0.14453301221E+03  0.17825386828E+03  0.00000000000E+00 0. -1.
         -5    1    3    3    0  503  0.41507407397E+02  0.35652302852E+02  0.39835390339E+02  0.67844674742E+02  0.47000000000E+01 0.  1.
         13    1    4    4    0    0  0.17160956033E+02  0.18604300725E+03  0.47587686769E+03  0.51123897754E+03  0.00000000000E+00 0. -1.
        -14    1    4    4    0    0 -0.15043416242E+02 -0.43743634018E+00  0.46498210022E+02  0.48873093395E+02  0.00000000000E+00 0.  1.
</event>
<event>
12    1  0.1035051E+000  0.1970219E+03  0.7818608E-02  0.1152787E+00
         21   -1    0    0  501  502  0.00000000000E+00  0.00000000000E+00  0.97855688349E+03  0.97855688349E+03  0.00000000000E+00 0. -1.
         21   -1    0    0  502  503 -0.00000000000E+00 -0.00000000000E+00 -0.13433297340E+03  0.13433297340E+03  0.00000000000E+00 0. -1.
         -6    2    1    2    0  503 -0.70332141292E+02 -0.60600480463E+02  0.89113403062E+03  0.91265409108E+03  0.17377744703E+03 0.  0.
        -24    2    3    3    0    0 -0.18416505946E+02 -0.80697571897E+02  0.77458442293E+03  0.78340616138E+03  0.83023608956E+02 0.  0.
          6    2    1    2  501    0  0.70332141292E+02  0.60600480463E+02 -0.46910120530E+02  0.20023576581E+03  0.17109872639E+03 0.  0.
         24    2    5    5    0    0  0.91280133444E+02  0.11381814031E+02 -0.72823267484E+02  0.14061297918E+03  0.77505955743E+02 0.  0.
          5    1    5    5  501    0 -0.20947992152E+02  0.49218666431E+02  0.25913146954E+02  0.59622786630E+02  0.47000000000E+01 0. -1.
        -13    1    6    6    0    0 -0.11039489959E+02  0.10466002643E+02 -0.20953692367E+02  0.25893334542E+02  0.00000000000E+00 0.  1.
         14    1    6    6    0    0  0.10231962340E+03  0.91581138780E+00 -0.51869575117E+02  0.11471964464E+03  0.00000000000E+00 0. -1.
         -5    1    3    3    0  503 -0.51915635346E+02  0.20097091434E+02  0.11654960770E+03  0.12924792970E+03  0.47000000000E+01 0.  1.
         13    1    4    4    0    0  0.36631839291E+00 -0.60195442767E+02  0.21888702662E+03  0.22701355894E+03  0.00000000000E+00 0. -1.
        -14    1    4    4    0    0 -0.18782824339E+02 -0.20502129130E+02  0.55569739630E+03  0.55639260244E+03  0.00000000000E+00 0.  1.
</event>
<event>
12    1  0.1035051E+000  0.1994693E+03  0.7818608E-02  0.1150872E+00
         21   -1    0    0  501  502  0.00000000000E+00  0.00000000000E+00  0.31429847088E+03  0.31429847088E+03  0.00000000000E+00 0.  1.
         21   -1    0    0  502  503 -0.00000000000E+00 -0.00000000000E+00 -0.12539451649E+03  0.12539451649E+03  0.00000000000E+00 0.  1.
         -6    2    1    2    0  503 -0.78111976788E+02 -0.54625954926E+02  0.11307396088E+03  0.22928958468E+03  0.17522133759E+03 0.  0.
        -24    2    3    3    0    0 -0.93040969047E+02 -0.84841365463E+02  0.12387985533E+03  0.19358659883E+03  0.79214098970E+02 0.  0.
          6    2    1    2  501    0  0.78111976788E+02  0.54625954926E+02  0.75829993515E+02  0.21040340269E+03  0.17156318975E+03 0.  0.
         24    2    5    5    0    0  0.70031789653E+02  0.96119019341E+02  0.85170007884E+02  0.16685699426E+03  0.80274584083E+02 0.  0.
          5    1    5    5  501    0  0.80801871342E+01 -0.41493064415E+02 -0.93400143694E+01  0.43546408429E+02  0.47000000000E+01 0. -1.
        -13    1    6    6    0    0  0.52856860941E+01  0.22922810479E+01 -0.14392253583E+02  0.15502580208E+02  0.00000000000E+00 0.  1.
         14    1    6    6    0    0  0.64746103559E+02  0.93826738293E+02  0.99562261468E+02  0.15135441405E+03  0.00000000000E+00 0. -1.
         -5    1    3    3    0  503  0.14928992259E+02  0.30215410537E+02 -0.10805894450E+02  0.35702985851E+02  0.47000000000E+01 0.  1.
         13    1    4    4    0    0  0.52197073754E+01 -0.24884813332E+01 -0.78607621941E+01  0.97585586385E+01  0.00000000000E+00 0. -1.
        -14    1    4    4    0    0 -0.98260676422E+02 -0.82352884130E+02  0.13174061752E+03  0.18382804019E+03  0.00000000000E+00 0.  1.
</event>
<event>
12    1  0.1035051E+000  0.2798996E+03  0.7818608E-02  0.1095766E+00
         21   -1    0    0  501  502  0.00000000000E+00  0.00000000000E+00  0.62898647008E+03  0.62898647008E+03  0.00000000000E+00 0. -1.
         21   -1    0    0  502  503 -0.00000000000E+00 -0.00000000000E+00 -0.12451774371E+03  0.12451774371E+03  0.00000000000E+00 0. -1.
         -6    2    1    2    0  503 -0.80687324638E+02 -0.20545549865E+03  0.25852643591E+03  0.38102454163E+03  0.17210861972E+03 0.  0.
        -24    2    3    3    0    0  0.54643851295E+01 -0.41543499220E+02  0.11963441023E+03  0.14950273823E+03  0.79265091914E+02 0.  0.
          6    2    1    2  501    0  0.80687324638E+02  0.20545549865E+03  0.24594229047E+03  0.37247967215E+03  0.17184612199E+03 0.  0.
         24    2    5    5    0    0  0.10747357798E+03  0.10914209776E+03  0.19342257468E+03  0.25945673153E+03  0.80267899415E+02 0.  0.
          5    1    5    5  501    0 -0.26786253339E+02  0.96313400894E+02  0.52519715789E+02  0.11302294062E+03  0.47000000000E+01 0. -1.
        -13    1    6    6    0    0  0.63761066634E+01  0.32479524481E+02  0.89588520211E+02  0.95507471960E+02  0.00000000000E+00 0.  1.
         14    1    6    6    0    0  0.10109747131E+03  0.76662573275E+02  0.10383405447E+03  0.16394925957E+03  0.00000000000E+00 0. -1.
         -5    1    3    3    0  503 -0.86151709768E+02 -0.16391199943E+03  0.13889202568E+03  0.23152180340E+03  0.47000000000E+01 0.  1.
         11    1    4    4    0    0 -0.17590834399E+02 -0.47593566881E+02  0.11433017078E+03  0.12508386393E+03  0.00000000000E+00 0. -1.
        -12    1    4    4    0    0  0.23055219529E+02  0.60500676612E+01  0.53042394423E+01  0.24418874304E+02  0.00000000000E+00 0.  1.
</event>
<event>
12    1  0.1035051E+000  0.4191751E+03  0.7818608E-02  0.1037351E+00
         21   -1    0    0  503  502  0.00000000000E+00  0.00000000000E+00  0.19702927576E+04  0.19702927576E+04  0.00000000000E+00 0.  1.
         21   -1    0    0  501  503 -0.00000000000E+00 -0.00000000000E+00 -0.89565627378E+02  0.89565627378E+02  0.00000000000E+00 0. -1.
          6    2    1    2  501    0 -0.38162748368E+03  0.22007473046E+02  0.86885008005E+03  0.96459450838E+03  0.17151745924E+03 0.  0.
         24    2    3    3    0    0 -0.86098130943E+02  0.37909996697E+02  0.29060388789E+03  0.31499367916E+03  0.76943760286E+02 0.  0.
         -6    2    1    2    0  502  0.38162748368E+03 -0.22007473046E+02  0.10118770502E+04  0.10952638766E+04  0.17199979518E+03 0.  0.
        -24    2    5    5    0    0  0.96282005986E+02  0.29971978318E+02  0.32684967626E+03  0.35134956835E+03  0.80294857539E+02 0.  0.
          5    1    3    3  501    0 -0.29552935274E+03 -0.15902523651E+02  0.57824619215E+03  0.64960082922E+03  0.47000000000E+01 0. -1.
        -13    1    4    4    0    0 -0.33009676232E+02  0.19824455143E+02  0.31093209221E+02  0.49491771097E+02  0.00000000000E+00 0.  1.
         14    1    4    4    0    0 -0.53088454711E+02  0.18085541554E+02  0.25951067867E+03  0.26550190806E+03  0.00000000000E+00 0. -1.
         -5    1    5    5    0  502  0.28534547770E+03 -0.51979451364E+02  0.68502737390E+03  0.74391430823E+03  0.47000000000E+01 0.  1.
         11    1    6    6    0    0  0.98196916979E+02 -0.40616572617E+00  0.25875215281E+03  0.27675887711E+03  0.00000000000E+00 0. -1.
        -12    1    6    6    0    0 -0.19149109933E+01  0.30378144044E+02  0.68097523441E+02  0.74590691232E+02  0.00000000000E+00 0.  1.
</event>
<event>
12    1  0.1035051E+000  0.1944093E+03  0.7818608E-02  0.1157049E+00
         21   -1    0    0  501  502  0.00000000000E+00  0.00000000000E+00  0.50786883072E+02  0.50786883072E+02  0.00000000000E+00 0. -1.
         21   -1    0    0  502  503 -0.00000000000E+00 -0.00000000000E+00 -0.93423004342E+03  0.93423004342E+03  0.00000000000E+00 0. -1.
         -6    2    1    2    0  503  0.50989507081E+02  0.74006236834E+02 -0.20617437486E+03  0.28337754974E+03  0.17238941362E+03 0.  0.
        -24    2    3    3    0    0  0.71313937699E+02 -0.89730123472E+01 -0.13304192179E+03  0.17082052435E+03  0.79456314554E+02 0.  0.
          6    2    1    2  501    0 -0.50989507081E+02 -0.74006236834E+02 -0.67726878549E+03  0.70163937675E+03  0.15977469852E+03 0.  0.
         24    2    5    5    0    0  0.21877246037E+01 -0.66244122546E+01 -0.16167190199E+03  0.17892495709E+03  0.76339160316E+02 0.  0.
          5    1    5    5  501    0 -0.53177231685E+02 -0.67381824579E+02 -0.51559688350E+03  0.52271441967E+03  0.47000000000E+01 0. -1.
        -11    1    6    6    0    0  0.32045802868E+02 -0.72165256380E+01 -0.13482096286E+03  0.13876492262E+03  0.00000000000E+00 0.  1.
         12    1    6    6    0    0 -0.29858078264E+02  0.59211338341E+00 -0.26850939134E+02  0.40160034465E+02  0.00000000000E+00 0. -1.
         -5    1    3    3    0  503 -0.20324430618E+02  0.82979249181E+02 -0.73132453063E+02  0.11255702539E+03  0.47000000000E+01 0.  1.
         11    1    4    4    0    0  0.19705330719E+02 -0.34663285409E+02 -0.21593051665E+02  0.45344275210E+02  0.00000000000E+00 0. -1.
        -12    1    4    4    0    0  0.51608606981E+02  0.25690273062E+02 -0.11144887013E+03  0.12547624914E+03  0.00000000000E+00 0.  1.
</event>
<event>
12    1  0.1035051E+000  0.2520806E+03  0.7818608E-02  0.1112006E+00
         21   -1    0    0  503  502  0.00000000000E+00  0.00000000000E+00  0.10023749268E+04  0.10023749268E+04  0.00000000000E+00 0. -1.
         21   -1    0    0  501  503 -0.00000000000E+00 -0.00000000000E+00 -0.87666368716E+02  0.87666368716E+02  0.00000000000E+00 0.  1.
          6    2    1    2  501    0 -0.67818875457E+02  0.17018470483E+03  0.74426552428E+03  0.78579628683E+03  0.17315426687E+03 0.  0.
         24    2    3    3    0    0 -0.60372775186E+02  0.47988134241E+02  0.21432527130E+03  0.24187882250E+03  0.81377575812E+02 0.  0.
         -6    2    1    2    0  502  0.67818875457E+02 -0.17018470483E+03  0.17044303378E+03  0.30424500866E+03  0.17306635694E+03 0.  0.
        -24    2    5    5    0    0  0.18133883058E+02 -0.57265145249E+02  0.24173706551E+01  0.95740479038E+02  0.74513495894E+02 0.  0.
          5    1    3    3  501    0 -0.74461002712E+01  0.12219657059E+03  0.52994025298E+03  0.54391746433E+03  0.47000000000E+01 0. -1.
        -11    1    4    4    0    0  0.16450877991E+02  0.28985194879E+01  0.72499418551E+02  0.74398914589E+02  0.00000000000E+00 0.  1.
         12    1    4    4    0    0 -0.76823653177E+02  0.45089614753E+02  0.14182585275E+03  0.16747990791E+03  0.00000000000E+00 0. -1.
         -5    1    5    5    0  502  0.49684992399E+02 -0.11291955958E+03  0.16802566312E+03  0.20850452962E+03  0.47000000000E+01 0.  1.
         13    1    6    6    0    0  0.26030591612E+02 -0.30019952072E+02  0.34709052170E+02  0.52758956818E+02  0.00000000000E+00 0. -1.
        -14    1    6    6    0    0 -0.78967085540E+01 -0.27245193177E+02 -0.32291681515E+02  0.42981522219E+02  0.00000000000E+00 0.  1.
</event>
<event>
12    1  0.1035051E+000  0.3077147E+03  0.7818608E-02  0.1081607E+00
         21   -1    0    0  503  502  0.00000000000E+00  0.00000000000E+00  0.27398219193E+03  0.27398219193E+03  0.00000000000E+00 0.  1.
         21   -1    0    0  501  503 -0.00000000000E+00 -0.00000000000E+00 -0.38608476317E+03  0.38608476317E+03  0.00000000000E+00 0. -1.
          6    2    1    2  501    0  0.25299080875E+03 -0.15578792724E+02  0.52865667073E+02  0.31092103303E+03  0.17213384888E+03 0.  0.
         24    2    3    3    0    0  0.73856524868E+02  0.45085308417E+02  0.12006007735E+02  0.11737303745E+03  0.78388866550E+02 0.  0.
         -6    2    1    2    0  502 -0.25299080875E+03  0.15578792724E+02 -0.16496823832E+03  0.34914592207E+03  0.17447437391E+03 0.  0.
        -24    2    5    5    0    0 -0.24134731600E+03 -0.24997117682E+02 -0.16863808154E+03  0.30651338546E+03  0.81475579711E+02 0.  0.
          5    1    3    3  501    0  0.17913428388E+03 -0.60664101142E+02  0.40859659338E+02  0.19354799558E+03  0.47000000000E+01 0. -1.
        -13    1    4    4    0    0 -0.60255457051E+01 -0.14980463125E+02 -0.26372523766E+01  0.16360824447E+02  0.00000000000E+00 0.  1.
         14    1    4    4    0    0  0.79882070573E+02  0.60065771543E+02  0.14643260111E+02  0.10101221301E+03  0.00000000000E+00 0. -1.
         -5    1    5    5    0  502 -0.11643492756E+02  0.40575910406E+02  0.36698432230E+01  0.42632536614E+02  0.47000000000E+01 0.  1.
         11    1    6    6    0    0 -0.12027444325E+03 -0.50047476671E+02 -0.10580865208E+03  0.16782777623E+03  0.00000000000E+00 0. -1.
        -12    1    6    6    0    0 -0.12107287274E+03  0.25050358989E+02 -0.62829429460E+02  0.13868560922E+03  0.00000000000E+00 0.  1.
</event>
<event>
12    1  0.1035051E+000  0.2884048E+03  0.7818608E-02  0.1091371E+00
         21   -1    0    0  503  502  0.00000000000E+00  0.00000000000E+00  0.24003077015E+03  0.24003077015E+03  0.00000000000E+00 0.  1.
         21   -1    0    0  501  503 -0.00000000000E+00 -0.00000000000E+00 -0.39047227200E+03  0.39047227200E+03  0.00000000000E+00 0. -1.
          6    2    1    2  501    0 -0.88934682762E+02  0.21353129571E+03  0.32721666377E+02  0.28885109472E+03  0.16988012076E+03 0.  0.
         24    2    3    3    0    0 -0.84956935032E+02  0.14273401554E+03  0.83193370464E+02  0.20168710979E+03  0.78523075357E+02 0.  0.
         -6    2    1    2    0  502  0.88934682762E+02 -0.21353129571E+03 -0.18316316823E+03  0.34165194742E+03  0.17225653815E+03 0.  0.
        -24    2    5    5    0    0  0.84191376415E+02 -0.23197739927E+03 -0.19327051050E+03  0.31958373364E+03  0.62278173862E+02 0.  0.
          5    1    3    3  501    0 -0.39777477302E+01  0.70797280170E+02 -0.50471704088E+02  0.87163984937E+02  0.47000000000E+01 0. -1.
        -11    1    4    4    0    0 -0.47049559265E+02  0.13522439660E+02  0.19009631240E+02  0.52515554660E+02  0.00000000000E+00 0.  1.
         12    1    4    4    0    0 -0.37907375767E+02  0.12921157588E+03  0.64183739224E+02  0.14917155513E+03  0.00000000000E+00 0. -1.
         -5    1    5    5    0  502  0.47433063466E+01  0.18446103564E+02  0.10107342274E+02  0.22068213785E+02  0.47000000000E+01 0.  1.
         11    1    6    6    0    0  0.64576117307E+02 -0.10611449137E+03 -0.71320964349E+02  0.14323770509E+03  0.00000000000E+00 0. -1.
        -12    1    6    6    0    0  0.19615259108E+02 -0.12586290790E+03 -0.12194954615E+03  0.17634602854E+03  0.00000000000E+00 0.  1.
</event>
<event>
12    1  0.1035051E+000  0.3501061E+03  0.7818608E-02  0.1062793E+00
         21   -1    0    0  501  502  0.00000000000E+00  0.00000000000E+00  0.21430000160E+03  0.21430000160E+03  0.00000000000E+00 0. -1.
         21   -1    0    0  502  503 -0.00000000000E+00 -0.00000000000E+00 -0.66860747942E+03  0.66860747942E+03  0.00000000000E+00 0. -1.
         -6    2    1    2    0  503 -0.29880594636E+03  0.62199852906E+02 -0.56900650987E+02  0.35469980500E+03  0.17152391174E+03 0.  0.
        -24    2    3    3    0    0 -0.62337060227E+02  0.55102699963E+01  0.12009977989E+02  0.10191134065E+03  0.79532443872E+02 0.  0.
          6    2    1    2  501    0  0.29880594636E+03 -0.62199852906E+02 -0.39740682684E+03  0.52820767603E+03  0.16708485185E+03 0.  0.
         24    2    5    5    0    0  0.26778112752E+03 -0.84321516320E+01 -0.28190528283E+03  0.39699715149E+03  0.79739051661E+02 0.  0.
          5    1    5    5  501    0  0.31024818842E+02 -0.53767701274E+02 -0.11550154400E+03  0.13121052454E+03  0.47000000000E+01 0. -1.
        -11    1    6    6    0    0  0.10281567375E+03  0.23375092192E+02 -0.69943493095E+02  0.12652885018E+03  0.00000000000E+00 0.  1.
         12    1    6    6    0    0  0.16496545378E+03 -0.31807243824E+02 -0.21196178974E+03  0.27046830130E+03  0.00000000000E+00 0. -1.
         -5    1    3    3    0  503 -0.23646888614E+03  0.56689582910E+02 -0.68910628976E+02  0.25278846435E+03  0.47000000000E+01 0.  1.
         11    1    4    4    0    0 -0.13886429536E+02 -0.10792518221E+02 -0.30644858116E+02  0.35332969076E+02  0.00000000000E+00 0. -1.
        -12    1    4    4    0    0 -0.48450630691E+02  0.16302788217E+02  0.42654836105E+02  0.66578371572E+02  0.00000000000E+00 0.  1.
</event>
<event>
12    1  0.1035051E+000  0.2001737E+03  0.7818608E-02  0.1149731E+00
         21   -1    0    0  503  502  0.00000000000E+00  0.00000000000E+00  0.41598879361E+03  0.41598879361E+03  0.00000000000E+00 0.  1.
         21   -1    0    0  501  503 -0.00000000000E+00 -0.00000000000E+00 -0.10325489134E+03  0.10325489134E+03  0.00000000000E+00 0.  1.
          6    2    1    2  501    0 -0.73948062430E+02 -0.71635545680E+02  0.87348512951E+02  0.21780037206E+03  0.17090135170E+03 0.  0.
         24    2    3    3    0    0 -0.11169338290E+03 -0.52968332773E+02  0.36924689653E+02  0.15193819770E+03  0.80254141050E+02 0.  0.
         -6    2    1    2    0  502  0.73948062430E+02  0.71635545680E+02  0.22538538932E+03  0.30144331290E+03  0.17166691537E+03 0.  0.
        -24    2    5    5    0    0  0.76203429083E+02  0.10376297057E+03  0.22174698319E+03  0.26869295247E+03  0.80314765093E+02 0.  0.
          5    1    3    3  501    0  0.37745320466E+02 -0.18667212906E+02  0.50423823297E+02  0.65862174354E+02  0.47000000000E+01 0. -1.
        -11    1    4    4    0    0 -0.24357345443E+02 -0.15975360040E+02 -0.25232656691E+02  0.38538024977E+02  0.00000000000E+00 0.  1.
         12    1    4    4    0    0 -0.87336037453E+02 -0.36992972733E+02  0.62157346345E+02  0.11340017273E+03  0.00000000000E+00 0. -1.
         -5    1    5    5    0  502 -0.22553666531E+01 -0.32127424889E+02  0.36384061321E+01  0.32750360425E+02  0.47000000000E+01 0.  1.
         11    1    6    6    0    0  0.73359693936E+02  0.71799071947E+02  0.21135319067E+03  0.23496153437E+03  0.00000000000E+00 0. -1.
        -12    1    6    6    0    0  0.28437351470E+01  0.31963898622E+02  0.10393792521E+02  0.33731418109E+02  0.00000000000E+00 0.  1.
</event>
<event>
12    1  0.1035051E+000  0.3601580E+03  0.7818608E-02  0.1058658E+00
         21   -1    0    0  501  502  0.00000000000E+00  0.00000000000E+00  0.90999779182E+03  0.90999779182E+03  0.00000000000E+00 0. -1.
         21   -1    0    0  502  503 -0.00000000000E+00 -0.00000000000E+00 -0.14295535444E+03  0.14295535444E+03  0.00000000000E+00 0. -1.
         -6    2    1    2    0  503  0.11601715244E+03  0.29178032463E+03  0.42587997666E+03  0.55686279920E+03  0.17357040391E+03 0.  0.
        -24    2    3    3    0    0  0.10329506850E+03  0.30920615804E+03  0.39011876909E+03  0.51483346354E+03  0.81132742059E+02 0.  0.
          6    2    1    2  501    0 -0.11601715244E+03 -0.29178032463E+03  0.34116246073E+03  0.49609034706E+03  0.17640314720E+03 0.  0.
         24    2    5    5    0    0 -0.69042963097E+02 -0.21734193909E+03  0.14740620524E+03  0.28322601410E+03  0.80522894151E+02 0.  0.
          5    1    5    5  501    0 -0.46974189341E+02 -0.74438385540E+02  0.19375625549E+03  0.21286433296E+03  0.47000000000E+01 0. -1.
        -11    1    6    6    0    0 -0.83962347177E+02 -0.18143259286E+03  0.13886080692E+03  0.24341278765E+03  0.00000000000E+00 0.  1.
         12    1    6    6    0    0  0.14919384081E+02 -0.35909346228E+02  0.85453983200E+01  0.39813226450E+02  0.00000000000E+00 0. -1.
         -5    1    3    3    0  503  0.12722083935E+02 -0.17425833410E+02  0.35761207565E+02  0.42029335662E+02  0.47000000000E+01 0.  1.
         11    1    4    4    0    0 -0.11938096639E+02  0.21831465424E+02  0.43118082925E+02  0.49782528150E+02  0.00000000000E+00 0. -1.
        -12    1    4    4    0    0  0.11523316514E+03  0.28737469261E+03  0.34700068617E+03  0.46505093539E+03  0.00000000000E+00 0.  1.
</event>
<event>
12    1  0.1035051E+000  0.2759802E+03  0.7818608E-02  0.1098284E+00
         21   -1    0    0  503  502  0.00000000000E+00  0.00000000000E+00  0.36372078216E+03  0.36372078216E+03  0.00000000000E+00 0. -1.
         21   -1    0    0  501  503 -0.00000000000E+00 -0.00000000000E+00 -0.32632853253E+03  0.32632853253E+03  0.00000000000E+00 0. -1.
          6    2    1    2  501    0  0.16982864831E+03 -0.12588961374E+03  0.22708101770E+03  0.35739454737E+03  0.17741225792E+03 0.  0.
         24    2    3    3    0    0  0.16656315834E+03 -0.11289975482E+03  0.24934329882E+03  0.33099191455E+03  0.83029672289E+02 0.  0.
         -6    2    1    2    0  502 -0.16982864831E+03  0.12588961374E+03 -0.18968876807E+03  0.33265476732E+03  0.17316870634E+03 0.  0.
        -24    2    5    5    0    0 -0.16103349741E+03  0.14823772710E+03 -0.19868320821E+03  0.30658212258E+03  0.81310329234E+02 0.  0.
          5    1    3    3  501    0  0.32654899664E+01 -0.12989858924E+02 -0.22262281114E+02  0.26402632822E+02  0.47000000000E+01 0. -1.
        -13    1    4    4    0    0  0.89241612196E+02 -0.11605302761E+02  0.11108861601E+03  0.14296653107E+03  0.00000000000E+00 0.  1.
         14    1    4    4    0    0  0.77321546145E+02 -0.10129445206E+03  0.13825468281E+03  0.18802538348E+03  0.00000000000E+00 0. -1.
         -5    1    5    5    0  502 -0.87951508990E+01 -0.22348113359E+02  0.89944401413E+01  0.26072644735E+02  0.47000000000E+01 0.  1.
         13    1    6    6    0    0 -0.73515538636E+02  0.29916585233E+02 -0.35831909688E+02  0.87083076685E+02  0.00000000000E+00 0. -1.
        -14    1    6    6    0    0 -0.87517958772E+02  0.11832114187E+03 -0.16285129852E+03  0.21949904590E+03  0.00000000000E+00 0.  1.
</event>
<event>
12    1  0.1035051E+000  0.2388827E+03  0.7818608E-02  0.1120644E+00
         21   -1    0    0  503  502  0.00000000000E+00  0.00000000000E+00  0.15520124902E+03  0.15520124902E+03  0.00000000000E+00 0.  1.
         21   -1    0    0  501  503 -0.00000000000E+00 -0.00000000000E+00 -0.36769790845E+03  0.36769790845E+03  0.00000000000E+00 0.  1.
          6    2    1    2  501    0  0.35001549689E+02  0.16235524743E+03 -0.11957812224E+03  0.26658137170E+03  0.17082846828E+03 0.  0.
         24    2    3    3    0    0  0.42624332858E+02  0.70009486303E+02 -0.13050161761E+03  0.17316157096E+03  0.78968952976E+02 0.  0.
         -6    2    1    2    0  502 -0.35001549689E+02 -0.16235524743E+03 -0.92918537191E+02  0.25631778576E+03  0.17169920762E+03 0.  0.
        -24    2    5    5    0    0 -0.80412164827E+02 -0.11621284729E+03 -0.99874705867E+02  0.19103590971E+03  0.80921071428E+02 0.  0.
          5    1    3    3  501    0 -0.76227831686E+01  0.92345761123E+02  0.10923495364E+02  0.93419800747E+02  0.47000000000E+01 0. -1.
        -11    1    4    4    0    0 -0.12700652442E+02 -0.31320577244E+01  0.68334013633E+00  0.13098981326E+02  0.00000000000E+00 0.  1.
         12    1    4    4    0    0  0.55324985300E+02  0.73141544027E+02 -0.13118495774E+03  0.16006258963E+03  0.00000000000E+00 0. -1.
         -5    1    5    5    0  502  0.45410615137E+02 -0.46142400137E+02  0.69561686764E+01  0.65281876047E+02  0.47000000000E+01 0.  1.
         11    1    6    6    0    0 -0.30036136476E+02 -0.80188730472E+02 -0.16546274470E+02  0.87213423210E+02  0.00000000000E+00 0. -1.
        -12    1    6    6    0    0 -0.50376028350E+02 -0.36024116818E+02 -0.83328431397E+02  0.10382248650E+03  0.00000000000E+00 0.  1.
</event>
<event>
12    1  0.1035051E+000  0.2174515E+03  0.7818608E-02  0.1135924E+00
         21   -1    0    0  501  502  0.00000000000E+00  0.00000000000E+00  0.45586555156E+03  0.45586555156E+03  0.00000000000E+00 0. -1.
         21   -1    0    0  502  503 -0.00000000000E+00 -0.00000000000E+00 -0.11412278567E+03  0.11412278567E+03  0.00000000000E+00 0. -1.
         -6    2    1    2    0  503 -0.10999818211E+03 -0.76700581094E+02  0.25795555869E+03  0.33695299355E+03  0.17033399660E+03 0.  0.
        -24    2    3    3    0    0 -0.10765141872E+03 -0.19069574476E+01  0.20482990221E+03  0.24506165112E+03  0.80668826530E+02 0.  0.
          6    2    1    2  501    0  0.10999818211E+03  0.76700581094E+02  0.83787207208E+02  0.23303534368E+03  0.17118001083E+03 0.  0.
         24    2    5    5    0    0 -0.12718683913E+02  0.18809867542E+01  0.20235121913E+02  0.75814612072E+02  0.71924211592E+02 0.  0.
          5    1    5    5  501    0  0.12271686602E+03  0.74819594340E+02  0.63552085296E+02  0.15722073161E+03  0.47000000000E+01 0. -1.
        -11    1    6    6    0    0  0.24169871056E+01  0.20727026907E+02  0.39653599344E+02  0.44809144290E+02  0.00000000000E+00 0.  1.
         12    1    6    6    0    0 -0.15135671018E+02 -0.18846040152E+02 -0.19418477432E+02  0.31005467782E+02  0.00000000000E+00 0. -1.
         -5    1    3    3    0  503 -0.23467633872E+01 -0.74793623646E+02  0.53125656477E+02  0.91891342425E+02  0.47000000000E+01 0.  1.
         13    1    4    4    0    0 -0.90519450953E+01 -0.21192133771E+02  0.88032225646E+02  0.90998445019E+02  0.00000000000E+00 0. -1.
        -14    1    4    4    0    0 -0.98599473624E+02  0.19285176323E+02  0.11679767656E+03  0.15406320611E+03  0.00000000000E+00 0.  1.
</event>
<event>
12    1  0.1035051E+000  0.2249847E+03  0.7818608E-02  0.1130433E+00
         21   -1    0    0  501  502  0.00000000000E+00  0.00000000000E+00  0.50349673801E+03  0.50349673801E+03  0.00000000000E+00 0. -1.
         21   -1    0    0  502  503 -0.00000000000E+00 -0.00000000000E+00 -0.11067592614E+03  0.11067592614E+03  0.00000000000E+00 0. -1.
         -6    2    1    2    0  503 -0.11264174964E+03  0.90562585921E+02  0.29220280932E+03  0.36878259847E+03  0.17241919101E+03 0.  0.
        -24    2    3    3    0    0 -0.33676065437E+02  0.38330695749E+02  0.24831842681E+03  0.26432361771E+03  0.74843932084E+02 0.  0.
          6    2    1    2  501    0  0.11264174964E+03 -0.90562585921E+02  0.10061800254E+03  0.24539006568E+03  0.17088755417E+03 0.  0.
         24    2    5    5    0    0  0.12728886918E+03 -0.11685904749E+03  0.71177617867E+02  0.20302418021E+03  0.79335183030E+02 0.  0.
          5    1    5    5  501    0 -0.14647119539E+02  0.26296461573E+02  0.29440384676E+02  0.42365885473E+02  0.47000000000E+01 0. -1.
        -11    1    6    6    0    0  0.98246309544E+02 -0.74363874425E+02  0.10806477270E+02  0.12368954325E+03  0.00000000000E+00 0.  1.
         12    1    6    6    0    0  0.29042559632E+02 -0.42495173069E+02  0.60371140597E+02  0.79334636957E+02  0.00000000000E+00 0. -1.
         -5    1    3    3    0  503 -0.78965684201E+02  0.52231890172E+02  0.43884382518E+02  0.10445898076E+03  0.47000000000E+01 0.  1.
         11    1    4    4    0    0  0.19789772550E+02  0.22491090088E+02  0.49746628446E+02  0.58070743690E+02  0.00000000000E+00 0. -1.
        -12    1    4    4    0    0 -0.53465837987E+02  0.15839605661E+02  0.19857179836E+03  0.20625287402E+03  0.00000000000E+00 0.  1.
</event>
<event>
12    1  0.1035051E+000  0.2477629E+03  0.7818608E-02  0.1115038E+00
         21   -1    0    0  503  502  0.00000000000E+00  0.00000000000E+00  0.11167493462E+03  0.11167493462E+03  0.00000000000E+00 0. -1.
         21   -1    0    0  501  503 -0.00000000000E+00 -0.00000000000E+00 -0.57311536788E+03  0.57311536788E+03  0.00000000000E+00 0. -1.
          6    2    1    2  501    0 -0.17360269454E+03  0.33583518476E+02 -0.15455466769E+03  0.29037260978E+03  0.17077282846E+03 0.  0.
         24    2    3    3    0    0 -0.90971585173E+02 -0.46341072078E+02 -0.71845150188E+02  0.14867294607E+03  0.80737816519E+02 0.  0.
         -6    2    1    2    0  502  0.17360269454E+03 -0.33583518476E+02 -0.30688576558E+03  0.39441769273E+03  0.17355314736E+03 0.  0.
        -24    2    5    5    0    0  0.28349070344E+02  0.23839725517E+01 -0.52764118804E+02  0.99473329990E+02  0.79382227429E+02 0.  0.
          5    1    3    3  501    0 -0.82631109367E+02  0.79924590553E+02 -0.82709517500E+02  0.14169966371E+03  0.47000000000E+01 0. -1.
        -13    1    4    4    0    0 -0.90749428237E+02 -0.19052211121E+02 -0.27705263893E+02  0.96778236816E+02  0.00000000000E+00 0.  1.
         14    1    4    4    0    0 -0.22215693590E+00 -0.27288860956E+02 -0.44139886295E+02  0.51894709250E+02  0.00000000000E+00 0. -1.
         -5    1    5    5    0  502  0.14525362420E+03 -0.35967491027E+02 -0.25412164677E+03  0.29494436274E+03  0.47000000000E+01 0.  1.
         13    1    6    6    0    0  0.16286672496E+02  0.40819038013E+02 -0.29877839573E+02  0.53142589915E+02  0.00000000000E+00 0. -1.
        -14    1    6    6    0    0  0.12062397848E+02 -0.38435065461E+02 -0.22886279231E+02  0.46330740075E+02  0.00000000000E+00 0.  1.
</event>
<event>
12    1  0.1035051E+000  0.2286691E+03  0.7818608E-02  0.1127821E+00
         21   -1    0    0  501  502  0.00000000000E+00  0.00000000000E+00  0.68491713608E+02  0.68491713608E+02  0.00000000000E+00 0.  1.
         21   -1    0    0  502  503 -0.00000000000E+00 -0.00000000000E+00 -0.90930660759E+03  0.90930660759E+03  0.00000000000E+00 0.  1.
         -6    2    1    2    0  503  0.13307735437E+03 -0.68243991934E+02 -0.22263211048E+03  0.31914667640E+03  0.17298184806E+03 0.  0.
        -24    2    3    3    0    0  0.15340224404E+03 -0.17241872289E+02 -0.17659961972E+03  0.24734557923E+03  0.78504007827E+02 0.  0.
          6    2    1    2  501    0 -0.13307735437E+03  0.68243991934E+02 -0.61818278350E+03  0.65865164480E+03  0.17118764761E+03 0.  0.
         24    2    5    5    0    0 -0.42640631181E+02 -0.98523581223E+01 -0.39819430885E+03  0.40826222854E+03  0.78765774708E+02 0.  0.
          5    1    5    5  501    0 -0.90436723189E+02  0.78096350056E+02 -0.21998847465E+03  0.25038941626E+03  0.47000000000E+01 0. -1.
        -11    1    6    6    0    0  0.10356739263E+02  0.21996806777E+02 -0.65407520200E+02  0.69780120775E+02  0.00000000000E+00 0.  1.
         12    1    6    6    0    0 -0.52997370444E+02 -0.31849164900E+02 -0.33278678865E+03  0.33848210777E+03  0.00000000000E+00 0. -1.
         -5    1    3    3    0  503 -0.20324889672E+02 -0.51002119645E+02 -0.46032490762E+02  0.71801097165E+02  0.47000000000E+01 0.  1.
         13    1    4    4    0    0  0.15813674539E+03 -0.25730289785E+02 -0.17538860565E+03  0.23755092306E+03  0.00000000000E+00 0. -1.
        -14    1    4    4    0    0 -0.47345013449E+01  0.84884174955E+01 -0.12110140709E+01  0.97946561779E+01  0.00000000000E+00 0.  1.
</event>
<event>
12    1  0.1035051E+000  0.4435441E+03  0.7818608E-02  0.1029811E+00
         21   -1    0    0  503  502  0.00000000000E+00  0.00000000000E+00  0.62054667943E+03  0.62054667943E+03  0.00000000000E+00 0. -1.
         21   -1    0    0  501  503 -0.00000000000E+00 -0.00000000000E+00 -0.32137308298E+03  0.32137308298E+03  0.00000000000E+00 0. -1.
          6    2    1    2  501    0  0.38624575889E+03  0.12728031002E+03  0.86473727753E+02  0.45001266183E+03  0.17218486179E+03 0.  0.
         24    2    3    3    0    0  0.39299390072E+03  0.13912661948E+03  0.74024083481E+02  0.43096125484E+03  0.80297048413E+02 0.  0.
         -6    2    1    2    0  502 -0.38624575889E+03 -0.12728031002E+03  0.21269986869E+03  0.49190710058E+03  0.17704603322E+03 0.  0.
        -24    2    5    5    0    0 -0.91982056514E+02 -0.77341329180E+02  0.71905247963E+02  0.16186128017E+03  0.81156203792E+02 0.  0.
          5    1    3    3  501    0 -0.67481418270E+01 -0.11846309455E+02  0.12449644272E+02  0.19051406991E+02  0.47000000000E+01 0. -1.
        -11    1    4    4    0    0  0.14906798447E+03  0.92413419679E+02  0.17571575666E+02  0.17626759317E+03  0.00000000000E+00 0.  1.
         12    1    4    4    0    0  0.24392591625E+03  0.46713199799E+02  0.56452507814E+02  0.25469366167E+03  0.00000000000E+00 0. -1.
         -5    1    5    5    0  502 -0.29426370238E+03 -0.49938980843E+02  0.14079462073E+03  0.33004582041E+03  0.47000000000E+01 0.  1.
         13    1    6    6    0    0 -0.15509687039E+02 -0.30240821358E+02 -0.14759239633E+02  0.37052568373E+02  0.00000000000E+00 0. -1.
        -14    1    6    6    0    0 -0.76472369475E+02 -0.47100507822E+02  0.86664487597E+02  0.12480871180E+03  0.00000000000E+00 0.  1.
</event>
<event>
12    1  0.1035051E+000  0.1779519E+03  0.7818608E-02  0.1170439E+00
         21   -1    0    0  501  502  0.00000000000E+00  0.00000000000E+00  0.86393525677E+02  0.86393525677E+02  0.00000000000E+00 0. -1.
         21   -1    0    0  502  503 -0.00000000000E+00 -0.00000000000E+00 -0.41620754093E+03  0.41620754093E+03  0.00000000000E+00 0. -1.
         -6    2    1    2    0  503 -0.12182216343E+02  0.52144349130E+02 -0.25726853468E+03  0.31281619367E+03  0.16970395559E+03 0.  0.
        -24    2    3    3    0    0  0.16255775185E+01  0.69449549877E+02 -0.76372868813E+02  0.13051025006E+03  0.79838761266E+02 0.  0.
          6    2    1    2  501    0  0.12182216343E+02 -0.52144349130E+02 -0.72545480572E+02  0.18978487294E+03  0.16699704100E+03 0.  0.
         24    2    5    5    0    0  0.65057203516E+01 -0.28788557260E+02 -0.11222562506E+03  0.14315527411E+03  0.83831594036E+02 0.  0.
          5    1    5    5  501    0  0.56764959911E+01 -0.23355791870E+02  0.39680144486E+02  0.46629598830E+02  0.47000000000E+01 0. -1.
        -13    1    6    6    0    0 -0.60517294397E+01 -0.51348447457E+02 -0.36881843991E+02  0.63510289730E+02  0.00000000000E+00 0.  1.
         14    1    6    6    0    0  0.12557449791E+02  0.22559890197E+02 -0.75343781067E+02  0.79644984377E+02  0.00000000000E+00 0. -1.
         -5    1    3    3    0  503 -0.13807793861E+02 -0.17305200747E+02 -0.18089566587E+03  0.18230594361E+03  0.47000000000E+01 0.  1.
         11    1    4    4    0    0  0.90851970156E+01  0.21675014088E+02 -0.78666807144E+02  0.82102457860E+02  0.00000000000E+00 0. -1.
        -12    1    4    4    0    0 -0.74596194971E+01  0.47774535789E+02  0.22939383305E+01  0.48407792203E+02  0.00000000000E+00 0.  1.
</event>
<event>
12    1  0.1035051E+000  0.3040492E+03  0.7818608E-02  0.1083333E+00
         21   -1    0    0  503  502  0.00000000000E+00  0.00000000000E+00  0.24085664006E+03  0.24085664006E+03  0.00000000000E+00 0. -1.
         21   -1    0    0  501  503 -0.00000000000E+00 -0.00000000000E+00 -0.49299223924E+03  0.49299223924E+03  0.00000000000E+00 0. -1.
          6    2    1    2  501    0 -0.12486686928E+01 -0.25019330944E+03  0.47534416769E+02  0.30694366662E+03  0.17133780213E+03 0.  0.
         24    2    3    3    0    0 -0.13744844082E+02 -0.26349659787E+03  0.63555085248E+02  0.28220738353E+03  0.77345850759E+02 0.  0.
         -6    2    1    2    0  502  0.12486686928E+01  0.25019330944E+03 -0.29967001596E+03  0.42690521268E+03  0.17276484275E+03 0.  0.
        -24    2    5    5    0    0 -0.92526306734E+01  0.32687839180E+02 -0.93879821843E+02  0.12725441446E+03  0.78906014002E+02 0.  0.
          5    1    3    3  501    0  0.12496175390E+02  0.13303288432E+02 -0.16020668479E+02  0.24736283087E+02  0.47000000000E+01 0. -1.
        -11    1    4    4    0    0  0.23079957805E+02 -0.19118953723E+03  0.56815648092E+02  0.20078381774E+03  0.00000000000E+00 0.  1.
         12    1    4    4    0    0 -0.36824801888E+02 -0.72307060641E+02  0.67394371555E+01  0.81423565789E+02  0.00000000000E+00 0. -1.
         -5    1    5    5    0  502  0.10501299366E+02  0.21750547026E+03 -0.20579019411E+03  0.29965079822E+03  0.47000000000E+01 0.  1.
         11    1    6    6    0    0 -0.14052845900E+02 -0.13050738220E+01  0.10359608122E+02  0.17507346344E+02  0.00000000000E+00 0. -1.
        -12    1    6    6    0    0  0.48002152265E+01  0.33992913002E+02 -0.10423942997E+03  0.10974706812E+03  0.00000000000E+00 0.  1.
</event>
<event>
12    1  0.1035051E+000  0.2466678E+03  0.7818608E-02  0.1115435E+00
         21   -1    0    0  501  502  0.00000000000E+00  0.00000000000E+00  0.43441380660E+03  0.43441380660E+03  0.00000000000E+00 0.  1.
         21   -1    0    0  502  503 -0.00000000000E+00 -0.00000000000E+00 -0.15954643353E+03  0.15954643353E+03  0.00000000000E+00 0.  1.
         -6    2    1    2    0  503  0.10990950066E+03  0.13875089710E+03  0.33603572144E+02  0.24894617925E+03  0.17179374354E+03 0.  0.
        -24    2    3    3    0    0  0.10280934808E+03  0.86746243796E+02  0.82449612375E+02  0.17709270488E+03  0.80431428417E+02 0.  0.
          6    2    1    2  501    0 -0.10990950066E+03 -0.13875089710E+03  0.24126380093E+03  0.34501406089E+03  0.17173983460E+03 0.  0.
         24    2    5    5    0    0 -0.21249934742E+02 -0.42384958370E+02  0.17514439161E+03  0.19824628831E+03  0.79862309612E+02 0.  0.
          5    1    5    5  501    0 -0.88659565915E+02 -0.96365938735E+02  0.66119409321E+02  0.14676777257E+03  0.47000000000E+01 0. -1.
        -13    1    6    6    0    0 -0.51606774320E+02 -0.22849466173E+02  0.11492384902E+03  0.12803455914E+03  0.00000000000E+00 0.  1.
         14    1    6    6    0    0  0.30356839577E+02 -0.19535492198E+02  0.60220542585E+02  0.70211729175E+02  0.00000000000E+00 0. -1.
         -5    1    3    3    0  503  0.71001525808E+01  0.52004653309E+02 -0.48846040231E+02  0.71853474368E+02  0.47000000000E+01 0.  1.
         11    1    4    4    0    0 -0.84163448220E+01  0.29299076827E+02  0.24673851684E+02  0.39218231984E+02  0.00000000000E+00 0. -1.
        -12    1    4    4    0    0  0.11122569290E+03  0.57447166969E+02  0.57775760691E+02  0.13787447290E+03  0.00000000000E+00 0.  1.
</event>
<event>
12    1  0.1035051E+000  0.2755913E+03  0.7818608E-02  0.1098292E+00
         21   -1    0    0  503  502  0.00000000000E+00  0.00000000000E+00  0.55684227641E+03  0.55684227641E+03  0.00000000000E+00 0.  1.
         21   -1    0    0  501  503 -0.00000000000E+00 -0.00000000000E+00 -0.14600142099E+03  0.14600142099E+03  0.00000000000E+00 0. -1.
          6    2    1    2  501    0 -0.72147697415E+02  0.20090938817E+03  0.29792653721E+03  0.40501791709E+03  0.17236420479E+03 0.  0.
         24    2    3    3    0    0  0.22853720747E+02  0.13377393985E+03  0.16353181949E+03  0.22720771484E+03  0.80392351389E+02 0.  0.
         -6    2    1    2    0  502  0.72147697415E+02 -0.20090938817E+03  0.11291431821E+03  0.29782578031E+03  0.17430054408E+03 0.  0.
        -24    2    5    5    0    0 -0.15015348079E+02 -0.47395282510E+02  0.17913735269E+02  0.97298530555E+02  0.81696564522E+02 0.  0.
          5    1    3    3  501    0 -0.95001418162E+02  0.67135448319E+02  0.13439471772E+03  0.17781020225E+03  0.47000000000E+01 0. -1.
        -13    1    4    4    0    0 -0.37006683359E+01  0.54129285412E+02  0.12204571751E+03  0.13356208911E+03  0.00000000000E+00 0.  1.
         14    1    4    4    0    0  0.26554389083E+02  0.79644654439E+02  0.41486101976E+02  0.93645625725E+02  0.00000000000E+00 0. -1.
         -5    1    5    5    0  502  0.87163045494E+02 -0.15351410566E+03  0.95000582940E+02  0.20052724976E+03  0.47000000000E+01 0.  1.
         13    1    6    6    0    0 -0.23196723669E+02 -0.41053610021E+02 -0.24849078411E+02  0.53300690264E+02  0.00000000000E+00 0. -1.
        -14    1    6    6    0    0  0.81813755895E+01 -0.63416724889E+01  0.42762813679E+02  0.43997840291E+02  0.00000000000E+00 0.  1.
</event>
<event>
12    1  0.1035051E+000  0.1809096E+03  0.7818608E-02  0.1168228E+00
         21   -1    0    0  501  502  0.00000000000E+00  0.00000000000E+00  0.16372790000E+03  0.16372790000E+03  0.00000000000E+00 0.  1.
         21   -1    0    0  502  503 -0.00000000000E+00 -0.00000000000E+00 -0.21790108444E+03  0.21790108444E+03  0.00000000000E+00 0.  1.
         -6    2    1    2    0  503 -0.37845450454E+02  0.11959241224E+02 -0.89851853814E+02  0.19723472371E+03  0.17103473049E+03 0.  0.
        -24    2    3    3    0    0 -0.67861630018E+02 -0.35529599759E+01 -0.11448028711E+03  0.15516039486E+03  0.79694338852E+02 0.  0.
          6    2    1    2  501    0  0.37845450454E+02 -0.11959241224E+02  0.35678669372E+02  0.18439426073E+03  0.17650205203E+03 0.  0.
         24    2    5    5    0    0  0.83379565030E+02 -0.31898898991E+02  0.17009423355E+02  0.13108782314E+03  0.94472246036E+02 0.  0.
          5    1    5    5  501    0 -0.45534114576E+02  0.19939657767E+02  0.18669246016E+02  0.53306437593E+02  0.47000000000E+01 0. -1.
        -11    1    6    6    0    0 -0.89691891728E+01  0.11332573324E+02 -0.18175437777E+02  0.23221113473E+02  0.00000000000E+00 0.  1.
         12    1    6    6    0    0  0.92348754203E+02 -0.43231472315E+02  0.35184861132E+02  0.10786670967E+03  0.00000000000E+00 0. -1.
         -5    1    3    3    0  503  0.30016179564E+02  0.15512201200E+02  0.24628433292E+02  0.42074328849E+02  0.47000000000E+01 0.  1.
         11    1    4    4    0    0  0.53791902523E+01  0.25273750911E+02 -0.32359623968E+02  0.41410668145E+02  0.00000000000E+00 0. -1.
        -12    1    4    4    0    0 -0.73240820270E+02 -0.28826710886E+02 -0.82120663138E+02  0.11374972672E+03  0.00000000000E+00 0.  1.
</event>
<event>
12    1  0.1035051E+000  0.2095201E+03  0.7818608E-02  0.1142132E+00
         21   -1    0    0  503  502  0.00000000000E+00  0.00000000000E+00  0.88558234798E+03  0.88558234798E+03  0.00000000000E+00 0. -1.
         21   -1    0    0  501  503 -0.00000000000E+00 -0.00000000000E+00 -0.49848019674E+02  0.49848019674E+02  0.00000000000E+00 0. -1.
          6    2    1    2  501    0  0.11347743102E+03  0.33120677313E+02  0.37018928571E+03  0.42491019305E+03  0.17185592306E+03 0.  0.
         24    2    3    3    0    0  0.15621822945E+02  0.28704707688E+02  0.78699745819E+02  0.11736594797E+03  0.80703867041E+02 0.  0.
         -6    2    1    2    0  502 -0.11347743102E+03 -0.33120677313E+02  0.46554504260E+03  0.51052017460E+03  0.17298715377E+03 0.  0.
        -24    2    5    5    0    0 -0.10565130933E+03  0.25778743465E+02  0.39794216182E+03  0.42039454318E+03  0.80912699907E+02 0.  0.
          5    1    3    3  501    0  0.97855608079E+02  0.44159696247E+01  0.29148953989E+03  0.30754424508E+03  0.47000000000E+01 0. -1.
        -13    1    4    4    0    0  0.48633907733E+02  0.21399146208E+02  0.51137553973E+02  0.73744354808E+02  0.00000000000E+00 0.  1.
         14    1    4    4    0    0 -0.33012084788E+02  0.73055614802E+01  0.27562191846E+02  0.43621593161E+02  0.00000000000E+00 0. -1.
         -5    1    5    5    0  502 -0.78261216954E+01 -0.58899420778E+02  0.67602880779E+02  0.90125631418E+02  0.47000000000E+01 0.  1.
         11    1    6    6    0    0 -0.32918788632E+02  0.48541978909E+02  0.15237393130E+03  0.16327212041E+03  0.00000000000E+00 0. -1.
        -12    1    6    6    0    0 -0.72732520698E+02 -0.22763235444E+02  0.24556823051E+03  0.25712242277E+03  0.00000000000E+00 0.  1.
</event>
<event>
12    1  0.1035051E+000  0.3418161E+03  0.7818608E-02  0.1066186E+00
         21   -1    0    0  503  502  0.00000000000E+00  0.00000000000E+00  0.75344053878E+02  0.75344053878E+02  0.00000000000E+00 0.  1.
         21   -1    0    0  501  503 -0.00000000000E+00 -0.00000000000E+00 -0.16723210341E+04  0.16723210341E+04  0.00000000000E+00 0.  1.
          6    2    1    2  501    0  0.11805937319E+03  0.26858436327E+03 -0.55466645709E+03  0.65073780677E+03  0.17242168875E+03 0.  0.
         24    2    3    3    0    0  0.12192872940E+02  0.48895276285E+02 -0.11692177118E+03  0.14962553307E+03  0.78598253012E+02 0.  0.
         -6    2    1    2    0  502 -0.11805937319E+03 -0.26858436327E+03 -0.10423105232E+04  0.10969272812E+04  0.17539286711E+03 0.  0.
        -24    2    5    5    0    0 -0.15319746840E+03 -0.22836744426E+03 -0.83305955849E+03  0.88091769227E+03  0.80041230861E+02 0.  0.
          5    1    3    3  501    0  0.10586650025E+03  0.21968908698E+03 -0.43774468591E+03  0.50111227371E+03  0.47000000000E+01 0. -1.
        -11    1    4    4    0    0  0.25300889950E+02  0.26326268513E+02 -0.76836498769E+01  0.37312811761E+02  0.00000000000E+00 0.  1.
         12    1    4    4    0    0 -0.13108017010E+02  0.22569007772E+02 -0.10923812130E+03  0.11231272131E+03  0.00000000000E+00 0. -1.
         -5    1    5    5    0  502  0.35138095209E+02 -0.40216919013E+02 -0.20925096468E+03  0.21600958898E+03  0.47000000000E+01 0.  1.
         11    1    6    6    0    0 -0.11422727260E+03 -0.98867097650E+02 -0.42813116604E+03  0.45400315873E+03  0.00000000000E+00 0. -1.
        -12    1    6    6    0    0 -0.38970195799E+02 -0.12950034661E+03 -0.40492839245E+03  0.42691453354E+03  0.00000000000E+00 0.  1.
</event>
<event>
12    1  0.1035051E+000  0.1879694E+03  0.7818608E-02  0.1161138E+00
         21   -1    0    0  503  502  0.00000000000E+00  0.00000000000E+00  0.10268954198E+03  0.10268954198E+03  0.00000000000E+00 0. -1.
         21   -1    0    0  501  503 -0.00000000000E+00 -0.00000000000E+00 -0.33773951885E+03  0.33773951885E+03  0.00000000000E+00 0. -1.
          6    2    1    2  501    0  0.62145079203E+02 -0.10461736386E+02 -0.11292510575E+03  0.21928191100E+03  0.17709042376E+03 0.  0.
         24    2    3    3    0    0  0.25304244522E+02  0.40489550042E+02 -0.18439867470E+01  0.91554131380E+02  0.78096416257E+02 0.  0.
         -6    2    1    2    0  502 -0.62145079203E+02  0.10461736386E+02 -0.12212487113E+03  0.22114714983E+03  0.17326314937E+03 0.  0.
        -24    2    5    5    0    0 -0.11003926884E+03  0.41347645185E+01 -0.84430329590E+02  0.15969104813E+03  0.79038049896E+02 0.  0.
          5    1    3    3  501    0  0.36840834681E+02 -0.50951286428E+02 -0.11108111900E+03  0.12772777962E+03  0.47000000000E+01 0. -1.
        -13    1    4    4    0    0 -0.71974743784E+01  0.18907334579E+02  0.33352961028E+02  0.39009113648E+02  0.00000000000E+00 0.  1.
         14    1    4    4    0    0  0.32501718900E+02  0.21582215463E+02 -0.35196947775E+02  0.52545017732E+02  0.00000000000E+00 0. -1.
         -5    1    5    5    0  502  0.47894189642E+02  0.63269718679E+01 -0.37694541540E+02  0.61456101701E+02  0.47000000000E+01 0.  1.
         11    1    6    6    0    0  0.10711305944E+02  0.32960880109E+01  0.17442826001E+01  0.11341904293E+02  0.00000000000E+00 0. -1.
        -12    1    6    6    0    0 -0.12075057479E+03  0.83867650761E+00 -0.86174612190E+02  0.14834914383E+03  0.00000000000E+00 0.  1.
</event>
<event>
12    1  0.1035051E+000  0.2681381E+03  0.7818608E-02  0.1102422E+00
         21   -1    0    0  503  502  0.00000000000E+00  0.00000000000E+00  0.11161474687E+03  0.11161474687E+03  0.00000000000E+00 0.  1.
         21   -1    0    0  501  503 -0.00000000000E+00 -0.00000000000E+00 -0.69905340456E+03  0.69905340456E+03  0.00000000000E+00 0.  1.
          6    2    1    2  501    0  0.74116436018E+02  0.19159001738E+03 -0.17916424342E+03  0.32248697227E+03  0.17233119369E+03 0.  0.
         24    2    3    3    0    0  0.54351059736E+02  0.33933446708E+02 -0.94506532949E+02  0.14238899250E+03  0.85074225922E+02 0.  0.
         -6    2    1    2    0  502 -0.74116436018E+02 -0.19159001738E+03 -0.40827441427E+03  0.48818117916E+03  0.17156015124E+03 0.  0.
        -24    2    5    5    0    0  0.77989920367E+01 -0.11279703514E+03 -0.14080341004E+03  0.19752450969E+03  0.80039591679E+02 0.  0.
          5    1    3    3  501    0  0.19765376282E+02  0.15765657067E+03 -0.84657710468E+02  0.18009797977E+03  0.47000000000E+01 0. -1.
        -13    1    4    4    0    0 -0.18980739273E+02  0.89055122295E+01 -0.10553283058E+01  0.20992625592E+02  0.00000000000E+00 0.  1.
         14    1    4    4    0    0  0.73331799009E+02  0.25027934478E+02 -0.93451204643E+02  0.12139636691E+03  0.00000000000E+00 0. -1.
         -5    1    5    5    0  502 -0.81915428054E+02 -0.78792982234E+02 -0.26747100423E+03  0.29065666947E+03  0.47000000000E+01 0.  1.
         13    1    6    6    0    0 -0.66490438324E+01 -0.10778540700E+03 -0.14579904656E+03  0.18143667138E+03  0.00000000000E+00 0. -1.
        -14    1    6    6    0    0  0.14448035869E+02 -0.50116281414E+01  0.49956365191E+01  0.16087838305E+02  0.00000000000E+00 0.  1.
</event>
<event>
12    1  0.1035051E+000  0.2592445E+03  0.7818608E-02  0.1107920E+00
         21   -1    0    0  503  502  0.00000000000E+00  0.00000000000E+00  0.11093338459E+04  0.11093338459E+04  0.00000000000E+00 0. -1.
         21   -1    0    0  501  503 -0.00000000000E+00 -0.00000000000E+00 -0.93764088857E+02  0.93764088857E+02  0.00000000000E+00 0. -1.
          6    2    1    2  501    0  0.18526460465E+03  0.48245112154E+02  0.14594270005E+03  0.29565154614E+03  0.17163915770E+03 0.  0.
         24    2    3    3    0    0  0.15113349673E+03 -0.22158562098E+02  0.13056715360E+03  0.21577597225E+03  0.78607588013E+02 0.  0.
         -6    2    1    2    0  502 -0.18526460465E+03 -0.48245112154E+02  0.86962705700E+03  0.90744638862E+03  0.17480607933E+03 0.  0.
        -24    2    5    5    0    0 -0.51366569196E+02 -0.42349421532E+02  0.56084947410E+03  0.57080246878E+03  0.82651847098E+02 0.  0.
          5    1    3    3  501    0  0.34131107922E+02  0.70403674252E+02  0.15375546445E+02  0.79875573892E+02  0.47000000000E+01 0. -1.
        -13    1    4    4    0    0  0.21825540604E+02  0.10521585580E+02  0.60383809858E+02  0.65063526485E+02  0.00000000000E+00 0.  1.
         14    1    4    4    0    0  0.12930795612E+03 -0.32680147678E+02  0.70183343746E+02  0.15071244576E+03  0.00000000000E+00 0. -1.
         -5    1    5    5    0  502 -0.13389803545E+03 -0.58956906224E+01  0.30877758290E+03  0.33664391984E+03  0.47000000000E+01 0.  1.
         11    1    6    6    0    0  0.22821084484E+01  0.18664915220E+02  0.20186508946E+03  0.20273899828E+03  0.00000000000E+00 0. -1.
        -12    1    6    6    0    0 -0.53648677644E+02 -0.61014336752E+02  0.35898438464E+03  0.36806347051E+03  0.00000000000E+00 0.  1.
</event>
<event>
12    1  0.1035051E+000  0.2834701E+03  0.7818608E-02  0.1094515E+00
         21   -1    0    0  503  502  0.00000000000E+00  0.00000000000E+00  0.41534626359E+03  0.41534626359E+03  0.00000000000E+00 0.  1.
         21   -1    0    0  501  503 -0.00000000000E+00 -0.00000000000E+00 -0.40515132240E+03  0.40515132240E+03  0.00000000000E+00 0. -1.
          6    2    1    2  501    0  0.22030363588E+03  0.50678991862E+02  0.30411880079E+03  0.41574454854E+03  0.17103576367E+03 0.  0.
         24    2    3    3    0    0  0.29451146099E+02  0.91804108207E+01  0.70552297549E+02  0.11124133589E+03  0.80282988053E+02 0.  0.
         -6    2    1    2    0  502 -0.22030363588E+03 -0.50678991862E+02 -0.29392385960E+03  0.40475303744E+03  0.16227055764E+03 0.  0.
        -24    2    5    5    0    0 -0.15717736298E+03 -0.18895016715E+02 -0.28155284622E+03  0.33284838266E+03  0.80338630416E+02 0.  0.
          5    1    3    3  501    0  0.19085248978E+03  0.41498581041E+02  0.23356650324E+03  0.30450321266E+03  0.47000000000E+01 0. -1.
        -13    1    4    4    0    0  0.10878470965E+01 -0.23903285197E+02  0.62502897931E+02  0.66926547082E+02  0.00000000000E+00 0.  1.
         14    1    4    4    0    0  0.28363299003E+02  0.33083696017E+02  0.80493996172E+01  0.44314788803E+02  0.00000000000E+00 0. -1.
         -5    1    5    5    0  502 -0.63126272904E+02 -0.31783975146E+02 -0.12371013379E+02  0.71904654779E+02  0.47000000000E+01 0.  1.
         11    1    6    6    0    0 -0.11228593931E+03  0.24631760361E+02 -0.18584521002E+03  0.21852527971E+03  0.00000000000E+00 0. -1.
        -12    1    6    6    0    0 -0.44891423667E+02 -0.43526777076E+02 -0.95707636200E+02  0.11432310295E+03  0.00000000000E+00 0.  1.
</event>
<event>
12    1  0.1035051E+000  0.2007587E+03  0.7818608E-02  0.1149817E+00
         21   -1    0    0  503  502  0.00000000000E+00  0.00000000000E+00  0.36402649531E+02  0.36402649531E+02  0.00000000000E+00 0.  1.
         21   -1    0    0  501  503 -0.00000000000E+00 -0.00000000000E+00 -0.19125197764E+04  0.19125197764E+04  0.00000000000E+00 0.  1.
          6    2    1    2  501    0 -0.57352561126E+02  0.76875754998E+02 -0.15821756002E+04  0.15948616497E+04  0.17636568194E+03 0.  0.
         24    2    3    3    0    0 -0.78505126212E+02  0.87965720529E+02 -0.81172175600E+03  0.82402338234E+03  0.78875234719E+02 0.  0.
         -6    2    1    2    0  502  0.57352561126E+02 -0.76875754998E+02 -0.29394152663E+03  0.35406077622E+03  0.17250569325E+03 0.  0.
        -24    2    5    5    0    0  0.19402099510E+02 -0.10843920019E+03 -0.15928489737E+03  0.21056517903E+03  0.82646926656E+02 0.  0.
          5    1    3    3  501    0  0.21152565086E+02 -0.11089965531E+02 -0.77045384424E+03  0.77083826737E+03  0.47000000000E+01 0. -1.
        -13    1    4    4    0    0  0.94268610372E+01  0.39558523764E+02 -0.27591264111E+03  0.27889339905E+03  0.00000000000E+00 0.  1.
         14    1    4    4    0    0 -0.87931987249E+02  0.48407196765E+02 -0.53580911489E+03  0.54512998329E+03  0.00000000000E+00 0. -1.
         -5    1    5    5    0  502  0.37950461616E+02  0.31563445191E+02 -0.13465662926E+03  0.14349559719E+03  0.47000000000E+01 0.  1.
         13    1    6    6    0    0  0.36381106737E+02 -0.58182037418E+02 -0.38589926126E+02  0.78726849320E+02  0.00000000000E+00 0. -1.
        -14    1    6    6    0    0 -0.16979007227E+02 -0.50257162771E+02 -0.12069497125E+03  0.13183832971E+03  0.00000000000E+00 0.  1.
</event>
<event>
12    1  0.1035051E+000  0.2463652E+03  0.7818608E-02  0.1115801E+00
         21   -1    0    0  503  502  0.00000000000E+00  0.00000000000E+00  0.82709789888E+02  0.82709789888E+02  0.00000000000E+00 0.  1.
         21   -1    0    0  501  503 -0.00000000000E+00 -0.00000000000E+00 -0.76846575457E+03  0.76846575457E+03  0.00000000000E+00 0.  1.
          6    2    1    2  501    0  0.12260845088E+03 -0.12630532312E+03 -0.24764687182E+03  0.34854706748E+03  0.17079291042E+03 0.  0.
         24    2    3    3    0    0  0.25568425520E+02 -0.39923749579E+02 -0.32912962950E+02  0.97526581486E+02  0.78616288402E+02 0.  0.
         -6    2    1    2    0  502 -0.12260845088E+03  0.12630532312E+03 -0.43810909287E+03  0.50262847699E+03  0.17236572092E+03 0.  0.
        -24    2    5    5    0    0 -0.83219904938E+02  0.11647307143E+03 -0.43106589982E+03  0.46115767650E+03  0.79731196282E+02 0.  0.
          5    1    3    3  501    0  0.97040025359E+02 -0.86381573542E+02 -0.21473390887E+03  0.25102048599E+03  0.47000000000E+01 0. -1.
        -13    1    4    4    0    0 -0.66140159791E+01 -0.41055809930E+02 -0.46669526888E+02  0.62508955169E+02  0.00000000000E+00 0.  1.
         14    1    4    4    0    0  0.32182441499E+02  0.11320603510E+01  0.13756563938E+02  0.35017626317E+02  0.00000000000E+00 0. -1.
         -5    1    5    5    0  502 -0.39388545940E+02  0.98322516957E+01 -0.70431930479E+01  0.41470800487E+02  0.47000000000E+01 0.  1.
         13    1    6    6    0    0  0.34487123472E+01 -0.76366498834E+01 -0.57171741282E+02  0.57782523651E+02  0.00000000000E+00 0. -1.
        -14    1    6    6    0    0 -0.86668617286E+02  0.12410972131E+03 -0.37389415854E+03  0.40337515285E+03  0.00000000000E+00 0.  1.
</event>
<event>
12    1  0.1035051E+000  0.2168207E+03  0.7818608E-02  0.1136423E+00
         21   -1    0    0  503  502  0.00000000000E+00  0.00000000000E+00  0.25835763939E+03  0.25835763939E+03  0.00000000000E+00 0. -1.
         21   -1    0    0  501  503 -0.00000000000E+00 -0.00000000000E+00 -0.19768953277E+03  0.19768953277E+03  0.00000000000E+00 0. -1.
          6    2    1    2  501    0  0.91432816255E+02  0.93612405037E+02  0.96012712495E+02  0.23712796620E+03  0.17288143084E+03 0.  0.
         24    2    3    3    0    0  0.71935228024E+02  0.56132049897E+02  0.13371388769E+03  0.18030894140E+03  0.79413012346E+02 0.  0.
         -6    2    1    2    0  502 -0.91432816255E+02 -0.93612405037E+02 -0.35344605869E+02  0.21891920596E+03  0.17191025365E+03 0.  0.
        -24    2    5    5    0    0 -0.10743192994E+03 -0.19765190714E+02 -0.91954341719E+00  0.13575336185E+03  0.80596819785E+02 0.  0.
          5    1    3    3  501    0  0.19497588230E+02  0.37480355141E+02 -0.37701175199E+02  0.56819024803E+02  0.47000000000E+01 0. -1.
        -11    1    4    4    0    0  0.37295046814E+02  0.32848336488E+02  0.12907682400E+03  0.13831399142E+03  0.00000000000E+00 0.  1.
         12    1    4    4    0    0  0.34640181210E+02  0.23283713409E+02  0.46370636909E+01  0.41994949983E+02  0.00000000000E+00 0. -1.
         -5    1    5    5    0  502  0.15999113680E+02 -0.73847214323E+02 -0.34425062452E+02  0.83165844111E+02  0.47000000000E+01 0.  1.
         13    1    6    6    0    0 -0.17244112711E+02 -0.38709849405E+02  0.81446194482E+01  0.43152597721E+02  0.00000000000E+00 0. -1.
        -14    1    6    6    0    0 -0.90187817224E+02  0.18944658691E+02 -0.90641628654E+01  0.92600764127E+02  0.00000000000E+00 0.  1.
</event>
<event>
12    1  0.1035051E+000  0.2752512E+03  0.7818608E-02  0.1098362E+00
         21   -1    0    0  503  502  0.00000000000E+00  0.00000000000E+00  0.19888126946E+03  0.19888126946E+03  0.00000000000E+00 0. -1.
         21   -1    0    0  501  503 -0.00000000000E+00 -0.00000000000E+00 -0.39604972272E+03  0.39604972272E+03  0.00000000000E+00 0. -1.
          6    2    1    2  501    0  0.15804437301E+03  0.14582871064E+03 -0.39605167162E+02  0.27808597461E+03  0.17181153430E+03 0.  0.
         24    2    3    3    0    0  0.60360326353E+02  0.14634399859E+03 -0.27471757487E+02  0.17953777258E+03  0.80119781604E+02 0.  0.
         -6    2    1    2    0  502 -0.15804437301E+03 -0.14582871064E+03 -0.15756328610E+03  0.31684501757E+03  0.17123241324E+03 0.  0.
        -24    2    5    5    0    0 -0.19853234993E+02 -0.99482320104E+02 -0.81339941773E+02  0.15229451844E+03  0.79287775018E+02 0.  0.
          5    1    3    3  501    0  0.97684046654E+02 -0.51528794136E+00 -0.12133409674E+02  0.98548202027E+02  0.47000000000E+01 0. -1.
        -13    1    4    4    0    0  0.75734879572E+02  0.14274965086E+03 -0.23955712338E+02  0.16336190179E+03  0.00000000000E+00 0.  1.
         14    1    4    4    0    0 -0.15374553218E+02  0.35943477280E+01 -0.35160451490E+01  0.16175870788E+02  0.00000000000E+00 0. -1.
         -5    1    5    5    0  502 -0.13819113801E+03 -0.46346390541E+02 -0.76223344331E+02  0.16455049913E+03  0.47000000000E+01 0.  1.
         13    1    6    6    0    0  0.17002951566E+02 -0.14897790776E+02  0.78863927060E+01  0.23942425146E+02  0.00000000000E+00 0. -1.
        -14    1    6    6    0    0 -0.36856186559E+02 -0.84584529328E+02 -0.89226334479E+02  0.12835209330E+03  0.00000000000E+00 0.  1.
</event>
<event>
12    1  0.1035051E+000  0.4863612E+03  0.7818608E-02  0.1017436E+00
         21   -1    0    0  503  502  0.00000000000E+00  0.00000000000E+00  0.40268737223E+03  0.40268737223E+03  0.00000000000E+00 0.  1.
         21   -1    0    0  501  503 -0.00000000000E+00 -0.00000000000E+00 -0.60461433684E+03  0.60461433684E+03  0.00000000000E+00 0. -1.
          6    2    1    2  501    0 -0.42765793772E+03  0.15499603865E+03 -0.18743801908E+03  0.52122955579E+03  0.17213992895E+03 0.  0.
         24    2    3    3    0    0 -0.15531826229E+03  0.20061103099E+02 -0.29654143876E+02  0.17874718117E+03  0.80901026396E+02 0.  0.
         -6    2    1    2    0  502  0.42765793772E+03 -0.15499603865E+03 -0.14488945529E+02  0.48607215327E+03  0.17070771791E+03 0.  0.
        -24    2    5    5    0    0  0.26353897518E+03 -0.10676154308E+03 -0.75607704828E+02  0.30436031226E+03  0.77896444898E+02 0.  0.
          5    1    3    3  501    0 -0.27233967543E+03  0.13493493555E+03 -0.15778387521E+03  0.34248237462E+03  0.47000000000E+01 0. -1.
        -13    1    4    4    0    0 -0.15713476506E+03  0.52290582700E+01 -0.37836874815E+02  0.16171056409E+03  0.00000000000E+00 0.  1.
         14    1    4    4    0    0  0.18165027778E+01  0.14832044829E+02  0.81827309386E+01  0.17036617087E+02  0.00000000000E+00 0. -1.
         -5    1    5    5    0  502  0.16411896254E+03 -0.48234495563E+02  0.61118759299E+02  0.18171184101E+03  0.47000000000E+01 0.  1.
         11    1    6    6    0    0  0.22817880807E+03 -0.63549093088E+02 -0.75230663092E+02  0.24852305397E+03  0.00000000000E+00 0. -1.
        -12    1    6    6    0    0  0.35360167107E+02 -0.43212449996E+02 -0.37704173608E+00  0.55837258286E+02  0.00000000000E+00 0.  1.
</event>
<event>
12    1  0.1035051E+000  0.1763153E+03  0.7818608E-02  0.1172055E+00
         21   -1    0    0  501  502  0.00000000000E+00  0.00000000000E+00  0.87354112320E+03  0.87354112320E+03  0.00000000000E+00 0.  1.
         21   -1    0    0  502  503 -0.00000000000E+00 -0.00000000000E+00 -0.35869663001E+02  0.35869663001E+02  0.00000000000E+00 0.  1.
         -6    2    1    2    0  503  0.33589240841E+02 -0.50263737180E+01  0.48351952495E+03  0.51379650190E+03  0.17041775970E+03 0.  0.
        -24    2    3    3    0    0 -0.15700707058E+01 -0.63244817230E+02  0.24881070111E+03  0.26938724196E+03  0.81610961990E+02 0.  0.
          6    2    1    2  501    0 -0.33589240841E+02  0.50263737180E+01  0.35415193525E+03  0.39561428430E+03  0.17301319941E+03 0.  0.
         24    2    5    5    0    0 -0.38344858215E+02 -0.14561899319E+01  0.73417453381E+02  0.11472537595E+03  0.79368386556E+02 0.  0.
          5    1    5    5  501    0  0.47556173743E+01  0.64825636499E+01  0.28073448187E+03  0.28088890835E+03  0.47000000000E+01 0. -1.
        -13    1    6    6    0    0 -0.36313538982E+02 -0.84802553379E+01  0.89554950905E+02  0.97008644335E+02  0.00000000000E+00 0.  1.
         14    1    6    6    0    0 -0.20313192331E+01  0.70240654060E+01 -0.16137497525E+02  0.17716731612E+02  0.00000000000E+00 0. -1.
         -5    1    3    3    0  503  0.35159311547E+02  0.58218443512E+02  0.23470882384E+03  0.24440925994E+03  0.47000000000E+01 0.  1.
         11    1    4    4    0    0 -0.18494230722E+01  0.18051257615E+02  0.79847386434E+02  0.81883291260E+02  0.00000000000E+00 0. -1.
        -12    1    4    4    0    0  0.27935236635E+00 -0.81296074844E+02  0.16896331467E+03  0.18750395070E+03  0.00000000000E+00 0.  1.
</event>
<event>
12    1  0.1035051E+000  0.1778134E+03  0.7818608E-02  0.1170055E+00
         21   -1    0    0  503  502  0.00000000000E+00  0.00000000000E+00  0.10082592468E+03  0.10082592468E+03  0.00000000000E+00 0. -1.
         21   -1    0    0  501  503 -0.00000000000E+00 -0.00000000000E+00 -0.31747926696E+03  0.31747926696E+03  0.00000000000E+00 0. -1.
          6    2    1    2  501    0 -0.20379015516E+02 -0.28084003393E+02 -0.13404295567E+03  0.22267718128E+03  0.17439494711E+03 0.  0.
         24    2    3    3    0    0  0.37343918981E+02  0.32402909875E+02 -0.64484560137E+02  0.11381458792E+03  0.79693067921E+02 0.  0.
         -6    2    1    2    0  502  0.20379015516E+02  0.28084003393E+02 -0.82610386611E+02  0.19562801036E+03  0.17390177383E+03 0.  0.
        -24    2    5    5    0    0 -0.19234295030E+02  0.76790126642E+02 -0.39952598479E+02  0.11958014581E+03  0.80227922148E+02 0.  0.
          5    1    3    3  501    0 -0.57722934498E+02 -0.60486913268E+02 -0.69558395528E+02  0.10886259336E+03  0.47000000000E+01 0. -1.
        -13    1    4    4    0    0 -0.60699838377E+01  0.18469404255E+02  0.13367462505E+02  0.23593487473E+02  0.00000000000E+00 0.  1.
         14    1    4    4    0    0  0.43413902819E+02  0.13933505620E+02 -0.77852022642E+02  0.90221100449E+02  0.00000000000E+00 0. -1.
         -5    1    5    5    0  502  0.39613310546E+02 -0.48706123249E+02 -0.42657788131E+02  0.76047864550E+02  0.47000000000E+01 0.  1.
         11    1    6    6    0    0 -0.13089118812E+02 -0.20987588169E+01  0.17384713105E+02  0.21862252162E+02  0.00000000000E+00 0. -1.
        -12    1    6    6    0    0 -0.61451762177E+01  0.78888885459E+02 -0.57337311584E+02  0.97717893650E+02  0.00000000000E+00 0.  1.
</event>
<event>
12    1  0.1035051E+000  0.2657862E+03  0.7818608E-02  0.1103909E+00
         21   -1    0    0  503  502  0.00000000000E+00  0.00000000000E+00  0.19174944887E+03  0.19174944887E+03  0.00000000000E+00 0. -1.
         21   -1    0    0  501  503 -0.00000000000E+00 -0.00000000000E+00 -0.36675700712E+03  0.36675700712E+03  0.00000000000E+00 0. -1.
          6    2    1    2  501    0 -0.11545131954E+03 -0.16614087912E+03 -0.81670849921E+02  0.27805109038E+03  0.17236728877E+03 0.  0.
         24    2    3    3    0    0 -0.96415463342E+02 -0.81804151948E+02 -0.11104396354E+03  0.18661850771E+03  0.80671213790E+02 0.  0.
         -6    2    1    2    0  502  0.11545131954E+03  0.16614087912E+03 -0.93336708326E+02  0.28045536561E+03  0.17032813062E+03 0.  0.
        -24    2    5    5    0    0  0.26713474148E+02  0.15163361071E+03 -0.75914919116E+02  0.18874672490E+03  0.78459477539E+02 0.  0.
          5    1    3    3  501    0 -0.19035856200E+02 -0.84336727168E+02  0.29373113619E+02  0.91432582673E+02  0.47000000000E+01 0. -1.
        -13    1    4    4    0    0 -0.19724456790E+02  0.13301373799E+02 -0.38796254294E+01  0.24104610224E+02  0.00000000000E+00 0.  1.
         14    1    4    4    0    0 -0.76691006552E+02 -0.95105525748E+02 -0.10716433811E+03  0.16251389749E+03  0.00000000000E+00 0. -1.
         -5    1    5    5    0  502  0.88737845394E+02  0.14507268402E+02 -0.17421789210E+02  0.91708640710E+02  0.47000000000E+01 0.  1.
         13    1    6    6    0    0  0.49525796204E+02  0.90800048901E+02 -0.66838539733E+02  0.12314562016E+03  0.00000000000E+00 0. -1.
        -14    1    6    6    0    0 -0.22812322056E+02  0.60833561813E+02 -0.90763793820E+01  0.65601104740E+02  0.00000000000E+00 0.  1.
</event>
<event>
12    1  0.1035051E+000  0.2851671E+03  0.7818608E-02  0.1092993E+00
         21   -1    0    0  503  502  0.00000000000E+00  0.00000000000E+00  0.13837227832E+04  0.13837227832E+04  0.00000000000E+00 0. -1.
         21   -1    0    0  501  503 -0.00000000000E+00 -0.00000000000E+00 -0.59609209006E+02  0.59609209006E+02  0.00000000000E+00 0. -1.
          6    2    1    2  501    0 -0.16060834382E+03 -0.16025711695E+03  0.75399364682E+03  0.80587060084E+03  0.17159143981E+03 0.  0.
         24    2    3    3    0    0 -0.49014790908E+02 -0.27678689352E+02  0.39497247430E+03  0.40718720159E+03  0.81422368642E+02 0.  0.
         -6    2    1    2    0  502  0.16060834382E+03  0.16025711695E+03  0.57011992741E+03  0.63746139141E+03  0.17275100654E+03 0.  0.
        -24    2    5    5    0    0  0.14416694478E+03  0.18283215687E+03  0.43622479052E+03  0.50060398491E+03  0.78106185990E+02 0.  0.
          5    1    3    3  501    0 -0.11159355291E+03 -0.13257842760E+03  0.35902117252E+03  0.39868339925E+03  0.47000000000E+01 0. -1.
        -13    1    4    4    0    0  0.11648653998E+02 -0.30280978875E+02  0.78464622877E+02  0.84907749144E+02  0.00000000000E+00 0.  1.
         14    1    4    4    0    0 -0.60663444906E+02  0.26022895232E+01  0.31650785142E+03  0.32227945245E+03  0.00000000000E+00 0. -1.
         -5    1    5    5    0  502  0.16441399041E+02 -0.22575039912E+02  0.13389513689E+03  0.13685740650E+03  0.47000000000E+01 0.  1.
         11    1    6    6    0    0  0.71657868064E+02  0.12290434890E+03  0.19258837602E+03  0.23943811646E+03  0.00000000000E+00 0. -1.
        -12    1    6    6    0    0  0.72509076716E+02  0.59927807966E+02  0.24363641450E+03  0.26116586845E+03  0.00000000000E+00 0.  1.
</event>
<event>
12    1  0.1647697E+000  0.2475869E+03  0.7818608E-02  0.1114960E+00
         21   -1    0    0  503  502  0.00000000000E+00  0.00000000000E+00  0.14860803297E+04  0.14860803297E+04  0.00000000000E+00 0.  1.
         21   -1    0    0  501  503 -0.00000000000E+00 -0.00000000000E+00 -0.27013372211E+03  0.27013372211E+03  0.00000000000E+00 0. -1.
          6    2    1    2  501    0 -0.16720551509E+03 -0.61009706477E+02  0.14163418375E+04  0.14376900986E+04  0.17102266066E+03 0.  0.
         24    2    3    3    0    0 -0.19029236005E+02 -0.55366201995E+02  0.28177102775E+03  0.29346063249E+03  0.57416919070E+02 0.  0.
         -6    2    1    2    0  502  0.16720551509E+03  0.61009706477E+02 -0.20039522991E+03  0.31852395319E+03  0.17210285304E+03 0.  0.
        -24    2    5    5    0    0  0.17187431573E+03  0.58986898642E+02 -0.10658795815E+03  0.22446129489E+03  0.77470287608E+02 0.  0.
          5    1    3    3  501    0 -0.14817627908E+03 -0.56435044818E+01  0.11345708098E+04  0.11442294661E+04  0.47000000000E+01 0. -1.
        -13    1    4    4    0    0 -0.14752851840E+02 -0.49311492576E+02  0.28136796138E+03  0.28603705989E+03  0.00000000000E+00 0.  1.
         14    1    4    4    0    0 -0.42763841645E+01 -0.60547094183E+01  0.40306636829E+00  0.74235726009E+01  0.00000000000E+00 0. -1.
         -5    1    5    5    0  502 -0.46688006444E+01  0.20228078347E+01 -0.93807271764E+02  0.94062658301E+02  0.47000000000E+01 0.  1.
         11    1    6    6    0    0  0.12620785257E+03  0.65071009469E+02 -0.10795186330E+03  0.17837113868E+03  0.00000000000E+00 0. -1.
        -12    1    6    6    0    0  0.45666463159E+02 -0.60841108272E+01  0.13639051554E+01  0.46090156208E+02  0.00000000000E+00 0.  1.
</event>
<event>
12    1  0.1035051E+000  0.1895229E+03  0.7818608E-02  0.1159260E+00
         21   -1    0    0  503  502  0.00000000000E+00  0.00000000000E+00  0.34974059805E+03  0.34974059805E+03  0.00000000000E+00 0. -1.
         21   -1    0    0  501  503 -0.00000000000E+00 -0.00000000000E+00 -0.10449296971E+03  0.10449296971E+03  0.00000000000E+00 0. -1.
          6    2    1    2  501    0 -0.55339270675E+02 -0.55523008151E+02  0.15839504974E+03  0.24575741501E+03  0.17077024313E+03 0.  0.
         24    2    3    3    0    0 -0.72038547430E+02 -0.88673343793E+02  0.83800339688E+02  0.16230520494E+03  0.79170502111E+02 0.  0.
         -6    2    1    2    0  502  0.55339270675E+02  0.55523008151E+02  0.86852578602E+02  0.20847615275E+03  0.17255056228E+03 0.  0.
        -24    2    5    5    0    0 -0.13674851494E+02 -0.43298340805E+01  0.85187948193E+02  0.11698750440E+03  0.78888152738E+02 0.  0.
          5    1    3    3  501    0  0.16699276756E+02  0.33150335643E+02  0.74594710052E+02  0.83452210067E+02  0.47000000000E+01 0. -1.
        -13    1    4    4    0    0 -0.67034144466E+02 -0.25105875843E+02  0.62647364875E+02  0.95123991989E+02  0.00000000000E+00 0.  1.
         14    1    4    4    0    0 -0.50044029645E+01 -0.63567467950E+02  0.21152974813E+02  0.67181212955E+02  0.00000000000E+00 0. -1.
         -5    1    5    5    0  502  0.69014122169E+02  0.59852842231E+02  0.16646304087E+01  0.91488648346E+02  0.47000000000E+01 0.  1.
         11    1    6    6    0    0 -0.16422863702E+02 -0.18383870749E+02 -0.54324684526E+01  0.25242600289E+02  0.00000000000E+00 0. -1.
        -12    1    6    6    0    0  0.27480122079E+01  0.14054036668E+02  0.90620416646E+02  0.91744904114E+02  0.00000000000E+00 0.  1.
</event>
<event>
12    1  0.1035051E+000  0.1987079E+03  0.7818608E-02  0.1150938E+00
         21   -1    0    0  501  502  0.00000000000E+00  0.00000000000E+00  0.35074283061E+03  0.35074283061E+03  0.00000000000E+00 0. -1.
         21   -1    0    0  502  503 -0.00000000000E+00 -0.00000000000E+00 -0.13209360416E+03  0.13209360416E+03  0.00000000000E+00 0. -1.
         -6    2    1    2    0  503 -0.99211600668E+02  0.18549339216E+02  0.20289883794E+03  0.28399430905E+03  0.17116602888E+03 0.  0.
        -24    2    3    3    0    0 -0.44163126256E+02  0.67815523279E+02  0.16456488961E+03  0.20063320888E+03  0.81380309008E+02 0.  0.
          6    2    1    2  501    0  0.99211600668E+02 -0.18549339216E+02  0.15750388512E+02  0.19884212572E+03  0.17059629694E+03 0.  0.
         24    2    5    5    0    0 -0.11677524667E+02  0.11364789720E+02  0.17755972163E+02  0.83875323587E+02  0.80338485993E+02 0.  0.
          5    1    5    5  501    0  0.11088912533E+03 -0.29914128935E+02 -0.20055836510E+01  0.11496680214E+03  0.47000000000E+01 0. -1.
        -11    1    6    6    0    0 -0.31865709258E+01 -0.37455959193E+01 -0.31384624003E+02  0.31767567531E+02  0.00000000000E+00 0.  1.
         12    1    6    6    0    0 -0.84909537409E+01  0.15110385639E+02  0.49140596166E+02  0.52107756056E+02  0.00000000000E+00 0. -1.
         -5    1    3    3    0  503 -0.55048474412E+02 -0.49266184064E+02  0.38333948332E+02  0.83361100173E+02  0.47000000000E+01 0.  1.
         13    1    4    4    0    0 -0.54616789398E+01  0.37424588726E+02  0.14116737052E+03  0.14614601013E+03  0.00000000000E+00 0. -1.
        -14    1    4    4    0    0 -0.38701447316E+02  0.30390934553E+02  0.23397519084E+02  0.54487198741E+02  0.00000000000E+00 0.  1.
</event>
<event>
12    1  0.1035051E+000  0.1808801E+03  0.7818608E-02  0.1167714E+00
         21   -1    0    0  501  502  0.00000000000E+00  0.00000000000E+00  0.84238070050E+02  0.84238070050E+02  0.00000000000E+00 0. -1.
         21   -1    0    0  502  503 -0.00000000000E+00 -0.00000000000E+00 -0.39650505725E+03  0.39650505725E+03  0.00000000000E+00 0. -1.
         -6    2    1    2    0  503  0.15041845281E+01 -0.54070407667E+02 -0.10837414563E+03  0.20818137735E+03  0.16931821780E+03 0.  0.
        -24    2    3    3    0    0 -0.30841263971E+01 -0.40127060477E+00 -0.12737154654E+03  0.15087151684E+03  0.80802418728E+02 0.  0.
          6    2    1    2  501    0 -0.15041845281E+01  0.54070407667E+02 -0.20389284158E+03  0.27256174995E+03  0.17260285378E+03 0.  0.
         24    2    5    5    0    0  0.44781523654E+02 -0.48535474187E+01 -0.45443103328E+02  0.97225476420E+02  0.73203660030E+02 0.  0.
          5    1    5    5  501    0 -0.46285708182E+02  0.58923955086E+02 -0.15844973825E+03  0.17533627353E+03  0.47000000000E+01 0. -1.
        -11    1    6    6    0    0  0.37728177696E+02  0.25699615451E+02 -0.47400111471E+02  0.65807721386E+02  0.00000000000E+00 0.  1.
         12    1    6    6    0    0  0.70533459577E+01 -0.30553162869E+02  0.19570081426E+01  0.31417755034E+02  0.00000000000E+00 0. -1.
         -5    1    3    3    0  503  0.45883109252E+01 -0.53669137062E+02  0.18997400914E+02  0.57309860509E+02  0.47000000000E+01 0.  1.
         13    1    4    4    0    0  0.11698369545E+02 -0.37394082077E+02 -0.79198436830E+02  0.88360407540E+02  0.00000000000E+00 0. -1.
        -14    1    4    4    0    0 -0.14782495942E+02  0.36992811472E+02 -0.48173109711E+02  0.62511109302E+02  0.00000000000E+00 0.  1.
</event>
<event>
12    1  0.1035051E+000  0.2078633E+03  0.7818608E-02  0.1144660E+00
         21   -1    0    0  503  502  0.00000000000E+00  0.00000000000E+00  0.23982318742E+02  0.23982318742E+02  0.00000000000E+00 0.  1.
         21   -1    0    0  501  503 -0.00000000000E+00 -0.00000000000E+00 -0.23947200067E+04  0.23947200067E+04  0.00000000000E+00 0.  1.
          6    2    1    2  501    0  0.99479799298E+02  0.27073011951E+02 -0.54020208736E+03  0.57640274803E+03  0.17260548747E+03 0.  0.
         24    2    3    3    0    0  0.58212635480E+01 -0.15768046739E+02 -0.35808739117E+03  0.36712988740E+03  0.79216514062E+02 0.  0.
         -6    2    1    2    0  502 -0.99479799298E+02 -0.27073011951E+02 -0.18305356006E+04  0.18422995774E+04  0.18049368252E+03 0.  0.
        -24    2    5    5    0    0 -0.54431810982E+02  0.50644764743E+02 -0.68108714838E+03  0.68933678167E+03  0.76011713748E+02 0.  0.
          5    1    3    3  501    0  0.93658535750E+02  0.42841058690E+02 -0.18211469620E+03  0.20927286064E+03  0.47000000000E+01 0. -1.
        -11    1    4    4    0    0 -0.24788997261E+02 -0.21693386463E+02 -0.70035386042E+02  0.77395430740E+02  0.00000000000E+00 0.  1.
         12    1    4    4    0    0  0.30610260809E+02  0.59253397240E+01 -0.28805200512E+03  0.28973445666E+03  0.00000000000E+00 0. -1.
         -5    1    5    5    0  502 -0.45047988316E+02 -0.77717776694E+02 -0.11494484522E+04  0.11529627958E+04  0.47000000000E+01 0.  1.
         11    1    6    6    0    0 -0.57600476157E+02  0.51336394731E+02 -0.68168602489E+03  0.68603868463E+03  0.00000000000E+00 0. -1.
        -12    1    6    6    0    0  0.31686651752E+01 -0.69162998849E+00  0.59887650449E+00  0.32980970424E+01  0.00000000000E+00 0.  1.
</event>
<event>
12    1  0.1035051E+000  0.1979566E+03  0.7818608E-02  0.1151641E+00
         21   -1    0    0  501  502  0.00000000000E+00  0.00000000000E+00  0.11483559959E+04  0.11483559959E+04  0.00000000000E+00 0.  1.
         21   -1    0    0  502  503 -0.00000000000E+00 -0.00000000000E+00 -0.34255051348E+02  0.34255051348E+02  0.00000000000E+00 0.  1.
         -6    2    1    2    0  503  0.87607793632E+02 -0.40561320435E+02  0.61013389921E+03  0.64144384303E+03  0.17281921935E+03 0.  0.
        -24    2    3    3    0    0  0.11852248827E+03  0.14828677944E+01  0.48473216727E+03  0.50553535735E+03  0.80937904681E+02 0.  0.
          6    2    1    2  501    0 -0.87607793632E+02  0.40561320435E+02  0.50396704537E+03  0.54116720424E+03  0.17192676903E+03 0.  0.
         24    2    5    5    0    0 -0.18584424191E+02 -0.93867410769E+01  0.10769931681E+03  0.13581644616E+03  0.80084158712E+02 0.  0.
          5    1    5    5  501    0 -0.69023369440E+02  0.49948061512E+02  0.39626772856E+03  0.40535075808E+03  0.47000000000E+01 0. -1.
        -13    1    6    6    0    0 -0.40098097441E+02 -0.30581147365E+02  0.51875825689E+02  0.72347531288E+02  0.00000000000E+00 0.  1.
         14    1    6    6    0    0  0.21513673250E+02  0.21194406288E+02  0.55823491117E+02  0.63468914872E+02  0.00000000000E+00 0. -1.
         -5    1    3    3    0  503 -0.30914694642E+02 -0.42044188230E+02  0.12540173193E+03  0.13590848568E+03  0.47000000000E+01 0.  1.
         13    1    4    4    0    0  0.15852094358E+02  0.35294399853E+01  0.84473840868E+01  0.18305849886E+02  0.00000000000E+00 0. -1.
        -14    1    4    4    0    0  0.10267039391E+03 -0.20465721909E+01  0.47628478319E+03  0.48722950746E+03  0.00000000000E+00 0.  1.
</event>
<event>
12    1  0.1035051E+000  0.3017702E+03  0.7818608E-02  0.1084409E+00
         21   -1    0    0  501  502  0.00000000000E+00  0.00000000000E+00  0.14029040749E+04  0.14029040749E+04  0.00000000000E+00 0.  1.
         21   -1    0    0  502  503 -0.00000000000E+00 -0.00000000000E+00 -0.80377270619E+02  0.80377270619E+02  0.00000000000E+00 0. -1.
         -6    2    1    2    0  503  0.17267791947E+03  0.17770619345E+03  0.33539304922E+03  0.45116933696E+03  0.17224435576E+03 0.  0.
        -24    2    3    3    0    0  0.14972003979E+03  0.18958003422E+03  0.34103201360E+03  0.42430039107E+03  0.73289207034E+02 0.  0.
          6    2    1    2  501    0 -0.17267791947E+03 -0.17770619345E+03  0.98713375507E+03  0.10321120086E+04  0.17153714687E+03 0.  0.
         24    2    5    5    0    0 -0.13790310628E+03 -0.85563504993E+02  0.43286212106E+03  0.46913892134E+03  0.79895754333E+02 0.  0.
          5    1    5    5  501    0 -0.34774813195E+02 -0.92142688452E+02  0.55427163401E+03  0.56297308722E+03  0.47000000000E+01 0. -1.
        -11    1    6    6    0    0 -0.15166291579E+02 -0.33168106809E+02  0.39532124831E+02  0.53785951727E+02  0.00000000000E+00 0.  1.
         12    1    6    6    0    0 -0.12273681470E+03 -0.52395398184E+02  0.39332999623E+03  0.41535296961E+03  0.00000000000E+00 0. -1.
         -5    1    3    3    0  503  0.22957879680E+02 -0.11873840777E+02 -0.56389643849E+01  0.26868945895E+02  0.47000000000E+01 0.  1.
         11    1    4    4    0    0  0.97471255104E+02  0.66655917870E+02  0.14331620130E+03  0.18569650108E+03  0.00000000000E+00 0. -1.
        -12    1    4    4    0    0  0.52248784687E+02  0.12292411635E+03  0.19771581231E+03  0.23860388999E+03  0.00000000000E+00 0.  1.
</event>
<event>
12    1  0.1035051E+000  0.1840908E+03  0.7818608E-02  0.1164006E+00
         21   -1    0    0  503  502  0.00000000000E+00  0.00000000000E+00  0.13225254197E+03  0.13225254197E+03  0.00000000000E+00 0. -1.
         21   -1    0    0  501  503 -0.00000000000E+00 -0.00000000000E+00 -0.26021077049E+03  0.26021077049E+03  0.00000000000E+00 0. -1.
          6    2    1    2  501    0 -0.18938400072E+02  0.61606305356E+02 -0.38025729220E+02  0.18797709075E+03  0.17243964366E+03 0.  0.
         24    2    3    3    0    0  0.81877368531E+01 -0.25588046367E+02 -0.41518936816E+02  0.96473130308E+02  0.82833903719E+02 0.  0.
         -6    2    1    2    0  502  0.18938400072E+02 -0.61606305356E+02 -0.89932499298E+02  0.20448622171E+03  0.17196732418E+03 0.  0.
        -24    2    5    5    0    0  0.19518677187E+02 -0.18824747239E+02  0.19080185398E+02  0.87283602881E+02  0.80740473056E+02 0.  0.
          5    1    3    3  501    0 -0.27126136926E+02  0.87194351723E+02  0.34932075968E+01  0.91503960440E+02  0.47000000000E+01 0. -1.
        -13    1    4    4    0    0 -0.58627703869E+01  0.12630309232E+02  0.18984372635E+02  0.23543644413E+02  0.00000000000E+00 0.  1.
         14    1    4    4    0    0  0.14050507240E+02 -0.38218355599E+02 -0.60503309451E+02  0.72929485895E+02  0.00000000000E+00 0. -1.
         -5    1    5    5    0  502 -0.58027711497E+00 -0.42781558117E+02 -0.10901268470E+03  0.11720261883E+03  0.47000000000E+01 0.  1.
         11    1    6    6    0    0  0.13671664786E+02 -0.31629191405E+02  0.45662265324E+02  0.57204568362E+02  0.00000000000E+00 0. -1.
        -12    1    6    6    0    0  0.58470124015E+01  0.12804444167E+02 -0.26582079926E+02  0.30079034519E+02  0.00000000000E+00 0.  1.
</event>
<event>
12    1  0.1035051E+000  0.1837631E+03  0.7818608E-02  0.1164298E+00
         21   -1    0    0  501  502  0.00000000000E+00  0.00000000000E+00  0.29878158793E+03  0.29878158793E+03  0.00000000000E+00 0.  1.
         21   -1    0    0  502  503 -0.00000000000E+00 -0.00000000000E+00 -0.11282277352E+03  0.11282277352E+03  0.00000000000E+00 0.  1.
         -6    2    1    2    0  503 -0.16753961561E+01 -0.63089192432E+02  0.89679072905E+02  0.20447789946E+03  0.17258569494E+03 0.  0.
        -24    2    3    3    0    0  0.47047956748E+02 -0.32398831202E+02 -0.67945002506E+00  0.97227649782E+02  0.78673755042E+02 0.  0.
          6    2    1    2  501    0  0.16753961561E+01  0.63089192432E+02  0.96279741505E+02  0.20712646198E+03  0.17218748350E+03 0.  0.
         24    2    5    5    0    0  0.41308409806E+02  0.21241598123E+01  0.10019884370E+03  0.13415413616E+03  0.79035607138E+02 0.  0.
          5    1    5    5  501    0 -0.39633013650E+02  0.60965032619E+02 -0.39191021935E+01  0.72972325818E+02  0.47000000000E+01 0. -1.
        -11    1    6    6    0    0  0.35365720105E+02  0.30822670394E+02  0.92712680451E+02  0.10390578562E+03  0.00000000000E+00 0.  1.
         12    1    6    6    0    0  0.59426897014E+01 -0.28698510582E+02  0.74861632477E+01  0.30248350545E+02  0.00000000000E+00 0. -1.
         -5    1    3    3    0  503 -0.48723352904E+02 -0.30690361230E+02  0.90358522930E+02  0.10725024968E+03  0.47000000000E+01 0.  1.
         13    1    4    4    0    0  0.68636711078E+02 -0.30703756525E+02  0.30528908691E+01  0.75253165482E+02  0.00000000000E+00 0. -1.
        -14    1    4    4    0    0 -0.21588754330E+02 -0.16950746770E+01 -0.37323408942E+01  0.21974484300E+02  0.00000000000E+00 0.  1.
</event>
<event>
12    1  0.1035051E+000  0.3214945E+03  0.7818608E-02  0.1075253E+00
         21   -1    0    0  503  502  0.00000000000E+00  0.00000000000E+00  0.30961312852E+03  0.30961312852E+03  0.00000000000E+00 0. -1.
         21   -1    0    0  501  503 -0.00000000000E+00 -0.00000000000E+00 -0.33288861850E+03  0.33288861850E+03  0.00000000000E+00 0. -1.
          6    2    1    2  501    0 -0.22560598089E+03 -0.14976861183E+03 -0.34319922014E+02  0.32081761308E+03  0.16857457731E+03 0.  0.
         24    2    3    3    0    0 -0.18790518161E+03 -0.15209847006E+03  0.18074837452E+02  0.25605590121E+03  0.82435568323E+02 0.  0.
         -6    2    1    2    0  502  0.22560598089E+03  0.14976861183E+03  0.11044432039E+02  0.32168413393E+03  0.17329168141E+03 0.  0.
        -24    2    5    5    0    0  0.62381150710E+02  0.90008170006E+01 -0.22851319588E+02  0.10344360327E+03  0.78778001874E+02 0.  0.
          5    1    3    3  501    0 -0.37700799272E+02  0.23298582232E+01 -0.52394759466E+02  0.64761711872E+02  0.47000000000E+01 0. -1.
        -13    1    4    4    0    0 -0.41718924518E+02 -0.70373316687E+02  0.32339350181E+02  0.87969914940E+02  0.00000000000E+00 0.  1.
         14    1    4    4    0    0 -0.14618625710E+03 -0.81725153368E+02 -0.14264512729E+02  0.16808598627E+03  0.00000000000E+00 0. -1.
         -5    1    5    5    0  502  0.16322483018E+03  0.14076779483E+03  0.33895751628E+02  0.21824053067E+03  0.47000000000E+01 0.  1.
         11    1    6    6    0    0  0.63153261814E+02 -0.21778334264E+02 -0.31219064441E+01  0.66875829870E+02  0.00000000000E+00 0. -1.
        -12    1    6    6    0    0 -0.77211110379E+00  0.30779151265E+02 -0.19729413144E+02  0.36567773396E+02  0.00000000000E+00 0.  1.
</event>
<event>
12    1  0.1035051E+000  0.2095909E+03  0.7818608E-02  0.1142724E+00
         21   -1    0    0  503  502  0.00000000000E+00  0.00000000000E+00  0.72931702225E+03  0.72931702225E+03  0.00000000000E+00 0. -1.
         21   -1    0    0  501  503 -0.00000000000E+00 -0.00000000000E+00 -0.61255230358E+02  0.61255230358E+02  0.00000000000E+00 0. -1.
          6    2    1    2  501    0  0.11289927671E+03 -0.64546110929E+00  0.40590588189E+03  0.45493248496E+03  0.17163134218E+03 0.  0.
         24    2    3    3    0    0  0.13621664250E+03  0.18168869223E+02  0.38921112856E+03  0.42031336652E+03  0.79328065489E+02 0.  0.
         -6    2    1    2    0  502 -0.11289927671E+03  0.64546110929E+00  0.26215591001E+03  0.33563976765E+03  0.17658332077E+03 0.  0.
        -24    2    5    5    0    0 -0.70316223720E+02  0.44815264531E+02  0.70959634887E+02  0.13478560773E+03  0.78607321642E+02 0.  0.
          5    1    3    3  501    0 -0.23317365789E+02 -0.18814330332E+02  0.16694753327E+02  0.34619118444E+02  0.47000000000E+01 0. -1.
        -11    1    4    4    0    0  0.13511340793E+03  0.27507269224E+02  0.29499487137E+03  0.32562901743E+03  0.00000000000E+00 0.  1.
         12    1    4    4    0    0  0.11032345652E+01 -0.93384000007E+01  0.94216257198E+02  0.94684349084E+02  0.00000000000E+00 0. -1.
         -5    1    5    5    0  502 -0.42583052989E+02 -0.44169803422E+02  0.19119627512E+03  0.20085415992E+03  0.47000000000E+01 0.  1.
         11    1    6    6    0    0 -0.12952477524E+02 -0.21835971696E+02  0.79494292674E+01  0.26603942557E+02  0.00000000000E+00 0. -1.
        -12    1    6    6    0    0 -0.57363746196E+02  0.66651236227E+02  0.63010205620E+02  0.10818166518E+03  0.00000000000E+00 0.  1.
</event>
<event>
12    1  0.1035051E+000  0.1997516E+03  0.7818608E-02  0.1154725E+00
         21   -1    0    0  501  502  0.00000000000E+00  0.00000000000E+00  0.56559016994E+02  0.56559016994E+02  0.00000000000E+00 0.  1.
         21   -1    0    0  502  503 -0.00000000000E+00 -0.00000000000E+00 -0.88135802685E+03  0.88135802685E+03  0.00000000000E+00 0.  1.
         -6    2    1    2    0  503  0.35813117458E+02  0.31906714958E+02 -0.67807414700E+03  0.70688418731E+03  0.19390742016E+03 0.  0.
        -24    2    3    3    0    0 -0.41681386345E+02  0.31648683911E+02 -0.19111423617E+03  0.21377414943E+03  0.80223179545E+02 0.  0.
          6    2    1    2  501    0 -0.35813117458E+02 -0.31906714958E+02 -0.14672486285E+03  0.23103285653E+03  0.17189350650E+03 0.  0.
         24    2    5    5    0    0 -0.89032857270E+01 -0.56620603742E+02 -0.16347408879E+03  0.19056630352E+03  0.79413960163E+02 0.  0.
          5    1    5    5  501    0 -0.26909831731E+02  0.24713888784E+02  0.16749225939E+02  0.40466553006E+02  0.47000000000E+01 0. -1.
        -11    1    6    6    0    0  0.59138096974E+01  0.16168684539E+02 -0.64856961324E+02  0.67103091859E+02  0.00000000000E+00 0.  1.
         12    1    6    6    0    0 -0.14817095424E+02 -0.72789288281E+02 -0.98617127463E+02  0.12346321166E+03  0.00000000000E+00 0. -1.
         -5    1    3    3    0  503  0.77494503803E+02  0.25803104786E+00 -0.48695991083E+03  0.49311003788E+03  0.47000000000E+01 0.  1.
         11    1    4    4    0    0 -0.60463109464E+02  0.39147571622E+02 -0.12114816673E+03  0.14094395437E+03  0.00000000000E+00 0. -1.
        -12    1    4    4    0    0  0.18781723119E+02 -0.74988877115E+01 -0.69966069437E+02  0.72830195061E+02  0.00000000000E+00 0.  1.
</event>
<event>
12    1  0.1035051E+000  0.2413045E+03  0.7818608E-02  0.1118972E+00
         21   -1    0    0  501  502  0.00000000000E+00  0.00000000000E+00  0.14223278088E+03  0.14223278088E+03  0.00000000000E+00 0.  1.
         21   -1    0    0  502  503 -0.00000000000E+00 -0.00000000000E+00 -0.52500447384E+03  0.52500447384E+03  0.00000000000E+00 0.  1.
         -6    2    1    2    0  503 -0.16806674493E+03 -0.17649758681E+02 -0.34594818087E+02  0.24377172981E+03  0.17224955758E+03 0.  0.
        -24    2    3    3    0    0 -0.13367890646E+03  0.19091795555E+02 -0.77927974304E+02  0.17719607608E+03  0.84208868353E+02 0.  0.
          6    2    1    2  501    0  0.16806674493E+03  0.17649758681E+02 -0.34817687486E+03  0.42346552491E+03  0.17186613937E+03 0.  0.
         24    2    5    5    0    0  0.81519299563E+02 -0.48107545583E+01 -0.74667446613E+02  0.13567318259E+03  0.78507613196E+02 0.  0.
          5    1    5    5  501    0  0.86547445365E+02  0.22460513239E+02 -0.27350942825E+03  0.28779234232E+03  0.47000000000E+01 0. -1.
        -13    1    6    6    0    0  0.38793870704E+02  0.27274113635E+02 -0.47246505008E+01  0.47656730911E+02  0.00000000000E+00 0.  1.
         14    1    6    6    0    0  0.42725428859E+02 -0.32084868193E+02 -0.69942796113E+02  0.88016451679E+02  0.00000000000E+00 0. -1.
         -5    1    3    3    0  503 -0.34387838468E+02 -0.36741554236E+02  0.43333156217E+02  0.66575653732E+02  0.47000000000E+01 0.  1.
         13    1    4    4    0    0 -0.94281697897E+02  0.26858746255E+02 -0.10336445241E+02  0.98576228925E+02  0.00000000000E+00 0. -1.
        -14    1    4    4    0    0 -0.39397208563E+02 -0.77669507001E+01 -0.67591529063E+02  0.78619847156E+02  0.00000000000E+00 0.  1.
</event>
<event>
12    1  0.1035051E+000  0.2124480E+03  0.7818608E-02  0.1139823E+00
         21   -1    0    0  501  502  0.00000000000E+00  0.00000000000E+00  0.16144166674E+03  0.16144166674E+03  0.00000000000E+00 0.  1.
         21   -1    0    0  502  503 -0.00000000000E+00 -0.00000000000E+00 -0.39481491455E+03  0.39481491455E+03  0.00000000000E+00 0.  1.
         -6    2    1    2    0  503  0.12275186030E+03  0.15550736372E+02  0.34551704942E+02  0.21432395225E+03  0.17155492294E+03 0.  0.
        -24    2    3    3    0    0  0.89982106052E+02 -0.11545880509E+02  0.87822255771E+02  0.14600173752E+03  0.73305333944E+02 0.  0.
          6    2    1    2  501    0 -0.12275186030E+03 -0.15550736372E+02 -0.26792495275E+03  0.34193262904E+03  0.17269712761E+03 0.  0.
         24    2    5    5    0    0  0.30378703774E+01  0.16223390265E+02 -0.87188761086E+02  0.11940103028E+03  0.79889291677E+02 0.  0.
          5    1    5    5  501    0 -0.12578973068E+03 -0.31774126636E+02 -0.18073619167E+03  0.22253159876E+03  0.47000000000E+01 0. -1.
        -13    1    6    6    0    0  0.10517209961E+02 -0.43375592470E+01 -0.95367204072E+02  0.96043374254E+02  0.00000000000E+00 0.  1.
         14    1    6    6    0    0 -0.74793395838E+01  0.20560949512E+02  0.81784429863E+01  0.23357656028E+02  0.00000000000E+00 0. -1.
         -5    1    3    3    0  503  0.32769754251E+02  0.27096616880E+02 -0.53270550829E+02  0.68322214730E+02  0.47000000000E+01 0.  1.
         11    1    4    4    0    0  0.63255095574E+02 -0.36753204894E+02  0.80061669878E+02  0.10845218379E+03  0.00000000000E+00 0. -1.
        -12    1    4    4    0    0  0.26727010478E+02  0.25207324385E+02  0.77605858924E+01  0.37549553728E+02  0.00000000000E+00 0.  1.
</event>
<event>
12    1  0.1035051E+000  0.1843437E+03  0.7818608E-02  0.1164117E+00
         21   -1    0    0  501  502  0.00000000000E+00  0.00000000000E+00  0.13258654254E+04  0.13258654254E+04  0.00000000000E+00 0. -1.
         21   -1    0    0  502  503 -0.00000000000E+00 -0.00000000000E+00 -0.48582673683E+02  0.48582673683E+02  0.00000000000E+00 0. -1.
         -6    2    1    2    0  503 -0.27868234553E+02 -0.52857554216E+02  0.11119800499E+04  0.11268444345E+04  0.17236063587E+03 0.  0.
        -24    2    3    3    0    0 -0.85192943018E+02 -0.34716053552E+02  0.77363437791E+03  0.78316563103E+03  0.79844931102E+02 0.  0.
          6    2    1    2  501    0  0.27868234553E+02  0.52857554216E+02  0.16530270185E+03  0.24760366455E+03  0.17439045824E+03 0.  0.
         24    2    5    5    0    0  0.15125960413E+02  0.94052111854E+02  0.76936749891E+02  0.14916592486E+03  0.85185768961E+02 0.  0.
          5    1    5    5  501    0  0.12742274140E+02 -0.41194557638E+02  0.88365951957E+02  0.98437739687E+02  0.47000000000E+01 0. -1.
        -13    1    6    6    0    0 -0.34496711290E+02  0.49811214169E+02  0.44618057009E+02  0.75245937818E+02  0.00000000000E+00 0.  1.
         14    1    6    6    0    0  0.49622671704E+02  0.44240897685E+02  0.32318692882E+02  0.73919987044E+02  0.00000000000E+00 0. -1.
         -5    1    3    3    0  503  0.57324708465E+02 -0.18141500664E+02  0.33834567196E+03  0.34367880351E+03  0.47000000000E+01 0.  1.
         11    1    4    4    0    0  0.95998181130E+01 -0.16725352957E+02  0.24804675644E+03  0.24879527190E+03  0.00000000000E+00 0. -1.
        -12    1    4    4    0    0 -0.94792761131E+02 -0.17990700595E+02  0.52558762148E+03  0.53437035913E+03  0.00000000000E+00 0.  1.
</event>
<event>
12    1  0.1035051E+000  0.1909219E+03  0.7818608E-02  0.1158709E+00
         21   -1    0    0  501  502  0.00000000000E+00  0.00000000000E+00  0.44030586126E+03  0.44030586126E+03  0.00000000000E+00 0. -1.
         21   -1    0    0  502  503 -0.00000000000E+00 -0.00000000000E+00 -0.85252027591E+02  0.85252027591E+02  0.00000000000E+00 0. -1.
         -6    2    1    2    0  503 -0.67517592911E+02 -0.35060125325E+01  0.23584103442E+03  0.30047380002E+03  0.17347216926E+03 0.  0.
        -24    2    3    3    0    0 -0.34964679416E+02  0.10555589209E+02  0.24780418317E+03  0.26275606217E+03  0.79371819535E+02 0.  0.
          6    2    1    2  501    0  0.67517592911E+02  0.35060125325E+01  0.11921279926E+03  0.22508408883E+03  0.17855037962E+03 0.  0.
         24    2    5    5    0    0  0.52899661408E+02 -0.65514541566E+02  0.95187405003E+02  0.15040591010E+03  0.80441074020E+02 0.  0.
          5    1    5    5  501    0  0.14617931503E+02  0.69020554098E+02  0.24025394254E+02  0.74678178730E+02  0.47000000000E+01 0. -1.
        -13    1    6    6    0    0  0.41295660830E+02 -0.53467771758E+02  0.15941148769E+02  0.69413647392E+02  0.00000000000E+00 0.  1.
         14    1    6    6    0    0  0.11604000578E+02 -0.12046769807E+02  0.79246256234E+02  0.80992262712E+02  0.00000000000E+00 0. -1.
         -5    1    3    3    0  503 -0.32552913495E+02 -0.14061601742E+02 -0.11963148759E+02  0.37717737853E+02  0.47000000000E+01 0.  1.
         11    1    4    4    0    0  0.11279153912E+01  0.39071847629E+02  0.14411685970E+03  0.14932364421E+03  0.00000000000E+00 0. -1.
        -12    1    4    4    0    0 -0.36092594807E+02 -0.28516258420E+02  0.10368732347E+03  0.11343241795E+03  0.00000000000E+00 0.  1.
</event>
<event>
12    1  0.1035051E+000  0.1935809E+03  0.7818608E-02  0.1155562E+00
         21   -1    0    0  501  502  0.00000000000E+00  0.00000000000E+00  0.32127317882E+03  0.32127317882E+03  0.00000000000E+00 0. -1.
         21   -1    0    0  502  503 -0.00000000000E+00 -0.00000000000E+00 -0.12023142815E+03  0.12023142815E+03  0.00000000000E+00 0. -1.
         -6    2    1    2    0  503  0.52800258673E+02  0.75747205681E+02  0.58702074905E+02  0.20228568175E+03  0.17014128528E+03 0.  0.
        -24    2    3    3    0    0  0.15133195431E+02  0.10419757549E+03  0.84352398515E+01  0.13316928788E+03  0.81097210934E+02 0.  0.
          6    2    1    2  501    0 -0.52800258673E+02 -0.75747205681E+02  0.14233967576E+03  0.23921892522E+03  0.16864045898E+03 0.  0.
         24    2    5    5    0    0 -0.55010745817E+02 -0.11336168721E+03  0.12873656799E+03  0.19888444847E+03  0.84290364948E+02 0.  0.
          5    1    5    5  501    0  0.22104871440E+01  0.37614481524E+02  0.13603107763E+02  0.40334476748E+02  0.47000000000E+01 0. -1.
        -13    1    6    6    0    0  0.98191479450E+01  0.67841534154E+01  0.24041356256E+02  0.26840775223E+02  0.00000000000E+00 0.  1.
         14    1    6    6    0    0 -0.64829893762E+02 -0.12014584062E+03  0.10469521174E+03  0.17204367325E+03  0.00000000000E+00 0. -1.
         -5    1    3    3    0  503  0.37667063243E+02 -0.28450369806E+02  0.50266835054E+02  0.69116393871E+02  0.47000000000E+01 0.  1.
         13    1    4    4    0    0  0.29831653801E+02  0.94130744937E+02  0.31843941386E+02  0.10375240389E+03  0.00000000000E+00 0. -1.
        -14    1    4    4    0    0 -0.14698458370E+02  0.10066830551E+02 -0.23408701535E+02  0.29416883984E+02  0.00000000000E+00 0.  1.
</event>
<event>
12    1  0.1035051E+000  0.1831715E+03  0.7818608E-02  0.1164978E+00
         21   -1    0    0  503  502  0.00000000000E+00  0.00000000000E+00  0.45486280319E+02  0.45486280319E+02  0.00000000000E+00 0.  1.
         21   -1    0    0  501  503 -0.00000000000E+00 -0.00000000000E+00 -0.73412631495E+03  0.73412631495E+03  0.00000000000E+00 0.  1.
          6    2    1    2  501    0  0.30023017064E+02 -0.50299704029E+02 -0.34829433044E+03  0.39352350298E+03  0.17355219676E+03 0.  0.
         24    2    3    3    0    0  0.53213968022E+02  0.86149412615E+01 -0.11477762377E+03  0.15152991230E+03  0.82954612877E+02 0.  0.
         -6    2    1    2    0  502 -0.30023017064E+02  0.50299704029E+02 -0.34034570419E+03  0.38608909228E+03  0.17262139799E+03 0.  0.
        -24    2    5    5    0    0  0.37945530781E+02  0.60822036446E+01 -0.11035161597E+03  0.14217459609E+03  0.80989382762E+02 0.  0.
          5    1    3    3  501    0 -0.23190950958E+02 -0.58914645291E+02 -0.23351670667E+03  0.24199359068E+03  0.47000000000E+01 0. -1.
        -11    1    4    4    0    0  0.71208547382E+02  0.19631685402E+02 -0.10473691774E+03  0.12816349804E+03  0.00000000000E+00 0.  1.
         12    1    4    4    0    0 -0.17994579360E+02 -0.11016744140E+02 -0.10040706031E+02  0.23366414261E+02  0.00000000000E+00 0. -1.
         -5    1    5    5    0  502 -0.67968547846E+02  0.44217500385E+02 -0.22999408822E+03  0.24391449619E+03  0.47000000000E+01 0.  1.
         13    1    6    6    0    0  0.24735703937E+02 -0.11013929401E+02 -0.11658523817E+03  0.11968825944E+03  0.00000000000E+00 0. -1.
        -14    1    6    6    0    0  0.13209826845E+02  0.17096133045E+02  0.62336221968E+01  0.22486336653E+02  0.00000000000E+00 0.  1.
</event>
<event>
12    1  0.1035051E+000  0.1736193E+03  0.7818608E-02  0.1174156E+00
         21   -1    0    0  501  502  0.00000000000E+00  0.00000000000E+00  0.11707494681E+03  0.11707494681E+03  0.00000000000E+00 0.  1.
         21   -1    0    0  502  503 -0.00000000000E+00 -0.00000000000E+00 -0.58243171215E+03  0.58243171215E+03  0.00000000000E+00 0.  1.
         -6    2    1    2    0  503  0.15539617560E+02 -0.46279528316E+01  0.28605716357E+02  0.17596012084E+03  0.17286057808E+03 0.  0.
        -24    2    3    3    0    0  0.34197015233E+02  0.49516207313E+02  0.15582030732E+02  0.11704157577E+03  0.99169754154E+02 0.  0.
          6    2    1    2  501    0 -0.15539617560E+02  0.46279528316E+01 -0.49396248170E+03  0.52354653813E+03  0.17274011290E+03 0.  0.
         24    2    5    5    0    0 -0.48592998234E+02 -0.47199904647E+02 -0.38501124604E+03  0.39836221588E+03  0.76613869456E+02 0.  0.
          5    1    5    5  501    0  0.33053380675E+02  0.51827857478E+02 -0.10895123566E+03  0.12518432225E+03  0.47000000000E+01 0. -1.
        -11    1    6    6    0    0 -0.26958654975E+02  0.12805055332E+02 -0.58439574505E+02  0.65619527493E+02  0.00000000000E+00 0.  1.
         12    1    6    6    0    0 -0.21634343259E+02 -0.60004959978E+02 -0.32657167153E+03  0.33274268839E+03  0.00000000000E+00 0. -1.
         -5    1    3    3    0  503 -0.18657397674E+02 -0.54144160145E+02  0.13023685625E+02  0.58918545069E+02  0.47000000000E+01 0.  1.
         13    1    4    4    0    0 -0.26554066767E+02 -0.11616282582E+02  0.10059126618E+02  0.30679675865E+02  0.00000000000E+00 0. -1.
        -14    1    4    4    0    0  0.60751082000E+02  0.61132489895E+02  0.55229041135E+01  0.86361899903E+02  0.00000000000E+00 0.  1.
</event>
<event>
12    1  0.1035051E+000  0.2119336E+03  0.7818608E-02  0.1140219E+00
         21   -1    0    0  503  502  0.00000000000E+00  0.00000000000E+00  0.60588706547E+03  0.60588706547E+03  0.00000000000E+00 0.  1.
         21   -1    0    0  501  503 -0.00000000000E+00 -0.00000000000E+00 -0.10486077387E+03  0.10486077387E+03  0.00000000000E+00 0.  1.
          6    2    1    2  501    0  0.12201423532E+03  0.20429602627E+02  0.56792457168E+02  0.21854912852E+03  0.17097805736E+03 0.  0.
         24    2    3    3    0    0  0.14174794172E+03  0.49742245729E+02  0.60881851421E+02  0.18266788886E+03  0.84227001574E+02 0.  0.
         -6    2    1    2    0  502 -0.12201423532E+03 -0.20429602627E+02  0.44423383443E+03  0.49219871082E+03  0.17207855471E+03 0.  0.
        -24    2    5    5    0    0 -0.12817173815E+03  0.26690882411E+02  0.25959337861E+03  0.30148310349E+03  0.79768050036E+02 0.  0.
          5    1    3    3  501    0 -0.19733706403E+02 -0.29312643102E+02 -0.40893942527E+01  0.35881239657E+02  0.47000000000E+01 0. -1.
        -11    1    4    4    0    0 -0.25660191789E+01  0.20825473983E+02 -0.47518449397E+01  0.21514294118E+02  0.00000000000E+00 0.  1.
         12    1    4    4    0    0  0.14431396090E+03  0.28916771746E+02  0.65633696360E+02  0.16115359474E+03  0.00000000000E+00 0. -1.
         -5    1    5    5    0  502  0.61575028319E+01 -0.47120485039E+02  0.18464045583E+03  0.19071560733E+03  0.47000000000E+01 0.  1.
         11    1    6    6    0    0 -0.18646344176E+02 -0.21096575833E+02  0.87896226165E+02  0.92295710827E+02  0.00000000000E+00 0. -1.
        -12    1    6    6    0    0 -0.10952539398E+03  0.47787458245E+02  0.17169715244E+03  0.20918739266E+03  0.00000000000E+00 0.  1.
</event>
<event>
12    1  0.1035051E+000  0.2808977E+03  0.7818608E-02  0.1095640E+00
         21   -1    0    0  503  502  0.00000000000E+00  0.00000000000E+00  0.67790622585E+03  0.67790622585E+03  0.00000000000E+00 0.  1.
         21   -1    0    0  501  503 -0.00000000000E+00 -0.00000000000E+00 -0.11507673219E+03  0.11507673219E+03  0.00000000000E+00 0.  1.
          6    2    1    2  501    0  0.70117630953E+02 -0.21049307119E+03  0.28394520066E+03  0.39715475596E+03  0.16698265781E+03 0.  0.
         24    2    3    3    0    0  0.77223890017E+02 -0.11799494441E+03  0.25024771444E+03  0.29834173580E+03  0.80607298911E+02 0.  0.
         -6    2    1    2    0  502 -0.70117630953E+02  0.21049307119E+03  0.27888429300E+03  0.39582820209E+03  0.17227797741E+03 0.  0.
        -24    2    5    5    0    0 -0.38387769503E+02  0.19451118121E+03  0.14413268451E+03  0.25639258647E+03  0.75197787107E+02 0.  0.
          5    1    3    3  501    0 -0.71062590638E+01 -0.92498126780E+02  0.33697486218E+02  0.98813020160E+02  0.47000000000E+01 0. -1.
        -13    1    4    4    0    0  0.55238179066E+02 -0.11397571914E+03  0.24435300756E+03  0.27522738469E+03  0.00000000000E+00 0.  1.
         14    1    4    4    0    0  0.21985710950E+02 -0.40192252716E+01  0.58947068832E+01  0.23114351105E+02  0.00000000000E+00 0. -1.
         -5    1    5    5    0  502 -0.31729861450E+02  0.15981889980E+02  0.13475160849E+03  0.13943561563E+03  0.47000000000E+01 0.  1.
         13    1    6    6    0    0 -0.32180279718E+02  0.11677049141E+03  0.42668235414E+02  0.12841922122E+03  0.00000000000E+00 0. -1.
        -14    1    6    6    0    0 -0.62074897848E+01  0.77740689807E+02  0.10146444910E+03  0.12797336524E+03  0.00000000000E+00 0.  1.
</event>
<event>
12    1  0.1035051E+000  0.1834386E+03  0.7818608E-02  0.1165104E+00
         21   -1    0    0  501  502  0.00000000000E+00  0.00000000000E+00  0.22204664716E+03  0.22204664716E+03  0.00000000000E+00 0.  1.
         21   -1    0    0  502  503 -0.00000000000E+00 -0.00000000000E+00 -0.19002565090E+03  0.19002565090E+03  0.00000000000E+00 0.  1.
         -6    2    1    2    0  503 -0.62210639897E+02 -0.17427867271E+02  0.11123577917E+03  0.21453003471E+03  0.17168530209E+03 0.  0.
        -24    2    3    3    0    0  0.37985482369E+01 -0.40855352530E+02  0.95075655151E+01  0.90930765151E+02  0.80587973358E+02 0.  0.
          6    2    1    2  501    0  0.62210639897E+02  0.17427867271E+02 -0.79214782901E+02  0.19754226335E+03  0.16903866334E+03 0.  0.
         24    2    5    5    0    0  0.10247770117E+03  0.37855128209E+02 -0.50506977813E+02  0.14383065113E+03  0.78750310655E+02 0.  0.
          5    1    5    5  501    0 -0.40267061278E+02 -0.20427260938E+02 -0.28707805088E+02  0.53711612212E+02  0.47000000000E+01 0. -1.
        -11    1    6    6    0    0  0.60795587138E+02  0.24683895132E+02  0.12844843068E+02  0.66860960865E+02  0.00000000000E+00 0.  1.
         12    1    6    6    0    0  0.41682114037E+02  0.13171233077E+02 -0.63351820881E+02  0.76969690270E+02  0.00000000000E+00 0. -1.
         -5    1    3    3    0  503 -0.66009188134E+02  0.23427485258E+02  0.10172821365E+03  0.12359926956E+03  0.47000000000E+01 0.  1.
         11    1    4    4    0    0  0.12414581981E+02 -0.12593301766E+02  0.42865115468E+02  0.46369507430E+02  0.00000000000E+00 0. -1.
        -12    1    4    4    0    0 -0.86160337446E+01 -0.28262050763E+02 -0.33357549953E+02  0.44561257721E+02  0.00000000000E+00 0.  1.
</event>
<event>
12    1  0.1035051E+000  0.1733658E+03  0.7818608E-02  0.1174744E+00
         21   -1    0    0  503  502  0.00000000000E+00  0.00000000000E+00  0.53591430037E+02  0.53591430037E+02  0.00000000000E+00 0. -1.
         21   -1    0    0  501  503 -0.00000000000E+00 -0.00000000000E+00 -0.57121161275E+03  0.57121161275E+03  0.00000000000E+00 0. -1.
          6    2    1    2  501    0  0.17894351895E+01  0.19132126027E+01 -0.20724472505E+03  0.26929125998E+03  0.17193180095E+03 0.  0.
         24    2    3    3    0    0 -0.42392038206E+02  0.33617583359E+02 -0.64822188909E+02  0.11676769289E+03  0.80656996685E+02 0.  0.
         -6    2    1    2    0  502 -0.17894351895E+01 -0.19132126027E+01 -0.31037545767E+03  0.35551178281E+03  0.17334601390E+03 0.  0.
        -24    2    5    5    0    0 -0.15242761416E+02 -0.66384934868E+02 -0.16362616620E+03  0.19459242566E+03  0.80332985177E+02 0.  0.
          5    1    3    3  501    0  0.44181473396E+02 -0.31704370756E+02 -0.14242253614E+03  0.15252356708E+03  0.47000000000E+01 0. -1.
        -11    1    4    4    0    0  0.10615369051E+02  0.10503078383E+02  0.13009070968E+02  0.19804965112E+02  0.00000000000E+00 0.  1.
         12    1    4    4    0    0 -0.53007407258E+02  0.23114504976E+02 -0.77831259878E+02  0.96962727781E+02  0.00000000000E+00 0. -1.
         -5    1    5    5    0  502  0.13453326226E+02  0.64471722265E+02 -0.14674929147E+03  0.16091935715E+03  0.47000000000E+01 0.  1.
         11    1    6    6    0    0 -0.34011082485E+02 -0.71228124597E+02 -0.15377515397E+03  0.17284963825E+03  0.00000000000E+00 0. -1.
        -12    1    6    6    0    0  0.18768321069E+02  0.48431897292E+01 -0.98510122309E+01  0.21742787413E+02  0.00000000000E+00 0.  1.
</event>
<event>
12    1  0.1035051E+000  0.1895025E+03  0.7818608E-02  0.1159293E+00
         21   -1    0    0  501  502  0.00000000000E+00  0.00000000000E+00  0.40216091163E+03  0.40216091163E+03  0.00000000000E+00 0.  1.
         21   -1    0    0  502  503 -0.00000000000E+00 -0.00000000000E+00 -0.88746407247E+02  0.88746407247E+02  0.00000000000E+00 0. -1.
         -6    2    1    2    0  503  0.69882332051E+02  0.26286023815E+02  0.14459495882E+03  0.23836712413E+03  0.17417430456E+03 0.  0.
        -24    2    3    3    0    0  0.89794277465E+02  0.38310299880E+02  0.16464106218E+03  0.20730259380E+03  0.79605242891E+02 0.  0.
          6    2    1    2  501    0 -0.69882332051E+02 -0.26286023815E+02  0.16881954556E+03  0.25254019474E+03  0.17234272719E+03 0.  0.
         24    2    5    5    0    0 -0.11019338344E+03 -0.44908080742E+02  0.12665863032E+03  0.19112851310E+03  0.79551130829E+02 0.  0.
          5    1    5    5  501    0  0.40311051387E+02  0.18622056927E+02  0.42160915236E+02  0.61411681639E+02  0.47000000000E+01 0. -1.
        -11    1    6    6    0    0 -0.57129319919E+02 -0.21441658060E+01  0.10511097314E+03  0.11965230176E+03  0.00000000000E+00 0.  1.
         12    1    6    6    0    0 -0.53064063518E+02 -0.42763914936E+02  0.21547657176E+02  0.71476211339E+02  0.00000000000E+00 0. -1.
         -5    1    3    3    0  503 -0.19911945414E+02 -0.12024276065E+02 -0.20046103361E+02  0.31064530337E+02  0.47000000000E+01 0.  1.
         11    1    4    4    0    0  0.61744262441E+02  0.50627099924E+02  0.64693141676E+02  0.10276507077E+03  0.00000000000E+00 0. -1.
        -12    1    4    4    0    0  0.28050015023E+02 -0.12316800043E+02  0.99947920509E+02  0.10453752302E+03  0.00000000000E+00 0.  1.
</event>
<event>
12    1  0.1035051E+000  0.1893168E+03  0.7818608E-02  0.1159551E+00
         21   -1    0    0  501  502  0.00000000000E+00  0.00000000000E+00  0.14591286263E+03  0.14591286263E+03  0.00000000000E+00 0.  1.
         21   -1    0    0  502  503 -0.00000000000E+00 -0.00000000000E+00 -0.28466965019E+03  0.28466965019E+03  0.00000000000E+00 0.  1.
         -6    2    1    2    0  503 -0.30035825069E+02  0.73728726275E+02  0.13361197961E+02  0.18772304408E+03  0.16947962651E+03 0.  0.
        -24    2    3    3    0    0  0.26368687195E+02  0.94355038692E+02  0.15586210553E+02  0.12744075440E+03  0.80000218320E+02 0.  0.
          6    2    1    2  501    0  0.30035825069E+02 -0.73728726275E+02 -0.15211798552E+03  0.24285946874E+03  0.17176368701E+03 0.  0.
         24    2    5    5    0    0 -0.25905020093E+02 -0.59245028728E+02 -0.15262155365E+03  0.18488103109E+03  0.81893916281E+02 0.  0.
          5    1    5    5  501    0  0.55940845162E+02 -0.14483697547E+02  0.50356812821E+00  0.57978437656E+02  0.47000000000E+01 0. -1.
        -13    1    6    6    0    0 -0.17838328975E+02 -0.19391427252E+02  0.60074099329E+00  0.26355157393E+02  0.00000000000E+00 0.  1.
         14    1    6    6    0    0 -0.80666911180E+01 -0.39853601476E+02 -0.15322229464E+03  0.15852587369E+03  0.00000000000E+00 0. -1.
         -5    1    3    3    0  503 -0.56404512264E+02 -0.20626312417E+02 -0.22250125922E+01  0.60282289678E+02  0.47000000000E+01 0.  1.
         11    1    4    4    0    0  0.74753332618E+00  0.75291448533E+02 -0.21688393011E+02  0.78356540376E+02  0.00000000000E+00 0. -1.
        -12    1    4    4    0    0  0.25621153869E+02  0.19063590160E+02  0.37274603565E+02  0.49084214023E+02  0.00000000000E+00 0.  1.
</event>
<event>
12    1  0.1035051E+000  0.2444778E+03  0.7818608E-02  0.1116902E+00
         21   -1    0    0  503  502  0.00000000000E+00  0.00000000000E+00  0.18982060807E+04  0.18982060807E+04  0.00000000000E+00 0.  1.
         21   -1    0    0  501  503 -0.00000000000E+00 -0.00000000000E+00 -0.68653815591E+02  0.68653815591E+02  0.00000000000E+00 0.  1.
          6    2    1    2  501    0  0.16698364195E+03 -0.48881142992E+02  0.16384940670E+04  0.16565815485E+04  0.17125045012E+03 0.  0.
         24    2    3    3    0    0  0.84547297406E+02 -0.69797813226E+02  0.13233634569E+04  0.13301421983E+04  0.77249261256E+02 0.  0.
         -6    2    1    2    0  502 -0.16698364195E+03  0.48881142992E+02  0.19105819821E+03  0.31027834781E+03  0.17174549543E+03 0.  0.
        -24    2    5    5    0    0 -0.14122653650E+02  0.14780898031E+02  0.97980627604E+02  0.12802897854E+03  0.79832898401E+02 0.  0.
          5    1    3    3  501    0  0.82436344547E+02  0.20916670234E+02  0.31513061002E+03  0.32643935021E+03  0.47000000000E+01 0. -1.
        -13    1    4    4    0    0 -0.89164363453E+01 -0.24458561715E+02  0.15512344016E+03  0.15729273908E+03  0.00000000000E+00 0.  1.
         14    1    4    4    0    0  0.93463733751E+02 -0.45339251511E+02  0.11682400168E+04  0.11728494592E+04  0.00000000000E+00 0. -1.
         -5    1    5    5    0  502 -0.15286098830E+03  0.34100244961E+02  0.93077570602E+02  0.18224936927E+03  0.47000000000E+01 0.  1.
         13    1    6    6    0    0 -0.40999572964E+02 -0.11808477811E+02  0.65580247037E+02  0.78237931548E+02  0.00000000000E+00 0. -1.
        -14    1    6    6    0    0  0.26876919314E+02  0.26589375842E+02  0.32400380567E+02  0.49791046990E+02  0.00000000000E+00 0.  1.
</event>
<event>
12    1  0.1035051E+000  0.2584707E+03  0.7818608E-02  0.1109185E+00
         21   -1    0    0  501  502  0.00000000000E+00  0.00000000000E+00  0.19633127632E+03  0.19633127632E+03  0.00000000000E+00 0.  1.
         21   -1    0    0  502  503 -0.00000000000E+00 -0.00000000000E+00 -0.33090980936E+03  0.33090980936E+03  0.00000000000E+00 0.  1.
         -6    2    1    2    0  503 -0.29339074407E+02 -0.18626013455E+03 -0.73881420800E+02  0.26882255636E+03  0.17678654773E+03 0.  0.
        -24    2    3    3    0    0 -0.81348625726E+00 -0.16440132793E+02 -0.45814391037E+02  0.94287773762E+02  0.80748288705E+02 0.  0.
          6    2    1    2  501    0  0.29339074407E+02  0.18626013455E+03 -0.60697112233E+02  0.25841852932E+03  0.16595896437E+03 0.  0.
         24    2    5    5    0    0  0.42412467538E+02  0.18101876529E+03 -0.93330373803E+02  0.22256597962E+03  0.79110339520E+02 0.  0.
          5    1    5    5  501    0 -0.13073393132E+02  0.52413692580E+01  0.32633261570E+02  0.35852549705E+02  0.47000000000E+01 0. -1.
        -11    1    6    6    0    0  0.62702063492E+02  0.11970353212E+03 -0.46959829212E+02  0.14305841439E+03  0.00000000000E+00 0.  1.
         12    1    6    6    0    0 -0.20289595954E+02  0.61315233170E+02 -0.46370544592E+02  0.79507565227E+02  0.00000000000E+00 0. -1.
         -5    1    3    3    0  503 -0.28525588149E+02 -0.16982000176E+03 -0.28067029763E+02  0.17453478260E+03  0.47000000000E+01 0.  1.
         13    1    4    4    0    0 -0.33498416368E+02 -0.31865910778E+02 -0.24393062481E+02  0.52274292593E+02  0.00000000000E+00 0. -1.
        -14    1    4    4    0    0  0.32684930111E+02  0.15425777986E+02 -0.21421328556E+02  0.42013481169E+02  0.00000000000E+00 0.  1.
</event>
<event>
12    1  0.1035051E+000  0.2986853E+03  0.7818608E-02  0.1086063E+00
         21   -1    0    0  503  502  0.00000000000E+00  0.00000000000E+00  0.10058361638E+04  0.10058361638E+04  0.00000000000E+00 0.  1.
         21   -1    0    0  501  503 -0.00000000000E+00 -0.00000000000E+00 -0.93255390167E+02  0.93255390167E+02  0.00000000000E+00 0. -1.
          6    2    1    2  501    0 -0.22807230034E+03 -0.84741026010E+02  0.32880614915E+03  0.44334335777E+03  0.17100243708E+03 0.  0.
         24    2    3    3    0    0 -0.19333509599E+03 -0.10157847430E+03  0.19119885240E+03  0.30034674540E+03  0.77165539785E+02 0.  0.
         -6    2    1    2    0  502  0.22807230034E+03  0.84741026010E+02  0.58377462446E+03  0.65574819617E+03  0.17324799839E+03 0.  0.
        -24    2    5    5    0    0  0.19402767400E+03  0.93426777218E+02  0.57561666826E+03  0.61937346447E+03  0.76900186772E+02 0.  0.
          5    1    3    3  501    0 -0.34737204351E+02  0.16837448287E+02  0.13760729674E+03  0.14299661237E+03  0.47000000000E+01 0. -1.
        -11    1    4    4    0    0 -0.15746430043E+02 -0.34318495381E+02  0.13008421830E+02  0.39936552465E+02  0.00000000000E+00 0.  1.
         12    1    4    4    0    0 -0.17758866595E+03 -0.67259978917E+02  0.17819043057E+03  0.26041019294E+03  0.00000000000E+00 0. -1.
         -5    1    5    5    0  502  0.34044626347E+02 -0.86857512073E+01  0.81579561915E+01  0.36374731701E+02  0.47000000000E+01 0.  1.
         13    1    6    6    0    0  0.62491708866E+02  0.22867361426E+02  0.28499393138E+03  0.29265965014E+03  0.00000000000E+00 0. -1.
        -14    1    6    6    0    0  0.13153596513E+03  0.70559415792E+02  0.29062273688E+03  0.32671381433E+03  0.00000000000E+00 0.  1.
</event>
<event>
12    1  0.1035051E+000  0.3737823E+03  0.7818608E-02  0.1053319E+00
         21   -1    0    0  503  502  0.00000000000E+00  0.00000000000E+00  0.36160728667E+03  0.36160728667E+03  0.00000000000E+00 0. -1.
         21   -1    0    0  501  503 -0.00000000000E+00 -0.00000000000E+00 -0.82660930002E+03  0.82660930002E+03  0.00000000000E+00 0. -1.
          6    2    1    2  501    0 -0.32157377122E+03  0.81961272472E+02 -0.66631640574E+03  0.76366897515E+03  0.17054445322E+03 0.  0.
         24    2    3    3    0    0 -0.62174570814E+02  0.44279189156E+02 -0.21192517591E+03  0.23907259285E+03  0.80106807572E+02 0.  0.
         -6    2    1    2    0  502  0.32157377122E+03 -0.81961272472E+02  0.20131439240E+03  0.42454761154E+03  0.17200537594E+03 0.  0.
        -24    2    5    5    0    0  0.25381915466E+03 -0.30919195693E+02  0.88373156830E+02  0.28321893660E+03  0.83803289111E+02 0.  0.
          5    1    3    3  501    0 -0.25939920041E+03  0.37682083316E+02 -0.45439122983E+03  0.52459638230E+03  0.47000000000E+01 0. -1.
        -11    1    4    4    0    0 -0.68912385005E+02  0.40905945951E+01 -0.11839928985E+03  0.13705488539E+03  0.00000000000E+00 0.  1.
         12    1    4    4    0    0  0.67378141918E+01  0.40188594561E+02 -0.93525886059E+02  0.10201770746E+03  0.00000000000E+00 0. -1.
         -5    1    5    5    0  502  0.67754616559E+02 -0.51042076779E+02  0.11294123557E+03  0.14132867493E+03  0.47000000000E+01 0.  1.
         13    1    6    6    0    0  0.11641645084E+03 -0.48595908816E-01  0.81717005473E+02  0.14223382639E+03  0.00000000000E+00 0. -1.
        -14    1    6    6    0    0  0.13740270383E+03 -0.30870599784E+02  0.66561513567E+01  0.14098511021E+03  0.00000000000E+00 0.  1.
</event>
<event>
12    1  0.1035051E+000  0.2014279E+03  0.7818608E-02  0.1148703E+00
         21   -1    0    0  503  502  0.00000000000E+00  0.00000000000E+00  0.63483329837E+02  0.63483329837E+02  0.00000000000E+00 0. -1.
         21   -1    0    0  501  503 -0.00000000000E+00 -0.00000000000E+00 -0.65665711896E+03  0.65665711896E+03  0.00000000000E+00 0. -1.
          6    2    1    2  501    0  0.10035132690E+03  0.37999585412E+01 -0.35888659179E+03  0.41116846541E+03  0.17370979444E+03 0.  0.
         24    2    3    3    0    0 -0.17606599815E+02  0.14071257978E+01 -0.13931390939E+03  0.16186132355E+03  0.80490684886E+02 0.  0.
         -6    2    1    2    0  502 -0.10035132690E+03 -0.37999585412E+01 -0.23428719733E+03  0.30897198338E+03  0.17460918415E+03 0.  0.
        -24    2    5    5    0    0 -0.74359425399E+02  0.65794701082E+02 -0.14205265759E+03  0.19044647595E+03  0.78947044509E+02 0.  0.
          5    1    3    3  501    0  0.11795792672E+03  0.23928327434E+01 -0.21957268240E+03  0.24930714186E+03  0.47000000000E+01 0. -1.
        -13    1    4    4    0    0  0.19419674084E+02  0.15394742305E+02 -0.10168150372E+02  0.26786435264E+02  0.00000000000E+00 0.  1.
         14    1    4    4    0    0 -0.37026273899E+02 -0.13987616507E+02 -0.12914575902E+03  0.13507488829E+03  0.00000000000E+00 0. -1.
         -5    1    5    5    0  502 -0.25991901502E+02 -0.69594659623E+02 -0.92234539744E+02  0.11852550744E+03  0.47000000000E+01 0.  1.
         11    1    6    6    0    0  0.13605862460E+02  0.10793116114E+02 -0.45584752205E+02  0.48780943844E+02  0.00000000000E+00 0. -1.
        -12    1    6    6    0    0 -0.87965287859E+02  0.55001584968E+02 -0.96467905382E+02  0.14166553210E+03  0.00000000000E+00 0.  1.
</event>
<event>
12    1  0.1035051E+000  0.2916908E+03  0.7818608E-02  0.1089602E+00
         21   -1    0    0  503  502  0.00000000000E+00  0.00000000000E+00  0.62874517989E+03  0.62874517989E+03  0.00000000000E+00 0. -1.
         21   -1    0    0  501  503 -0.00000000000E+00 -0.00000000000E+00 -0.13890333443E+03  0.13890333443E+03  0.00000000000E+00 0. -1.
          6    2    1    2  501    0  0.20416337979E+03  0.11565316494E+03  0.31090579327E+03  0.42631668824E+03  0.17327771400E+03 0.  0.
         24    2    3    3    0    0  0.16991034205E+03  0.14743132997E+03  0.21994710408E+03  0.32395118864E+03  0.77214782525E+02 0.  0.
         -6    2    1    2    0  502 -0.20416337979E+03 -0.11565316494E+03  0.17893605218E+03  0.34133182608E+03  0.17155455259E+03 0.  0.
        -24    2    5    5    0    0 -0.83641737323E+02 -0.43592552147E+01  0.23322849453E+02  0.11516958452E+03  0.75532341170E+02 0.  0.
          5    1    3    3  501    0  0.34253037741E+02 -0.31778165025E+02  0.90958689195E+02  0.10236549959E+03  0.47000000000E+01 0. -1.
        -11    1    4    4    0    0  0.68355780185E+02  0.58873949422E+02  0.38845582741E+02  0.98222369671E+02  0.00000000000E+00 0.  1.
         12    1    4    4    0    0  0.10155456186E+03  0.88557380545E+02  0.18110152134E+03  0.22572881897E+03  0.00000000000E+00 0. -1.
         -5    1    5    5    0  502 -0.12052164247E+03 -0.11129390973E+03  0.15561320273E+03  0.22616224157E+03  0.47000000000E+01 0.  1.
         11    1    6    6    0    0 -0.82024076857E+02  0.23125630396E+02  0.16500038912E+02  0.86804350407E+02  0.00000000000E+00 0. -1.
        -12    1    6    6    0    0 -0.16176604661E+01 -0.27484885610E+02  0.68228105405E+01  0.28365234109E+02  0.00000000000E+00 0.  1.
</event>
<event>
12    1  0.1035051E+000  0.4031085E+03  0.7818608E-02  0.1042755E+00
         21   -1    0    0  501  502  0.00000000000E+00  0.00000000000E+00  0.21921511666E+03  0.21921511666E+03  0.00000000000E+00 0.  1.
         21   -1    0    0  502  503 -0.00000000000E+00 -0.00000000000E+00 -0.94512459432E+03  0.94512459432E+03  0.00000000000E+00 0. -1.
         -6    2    1    2    0  503  0.80806828879E+02  0.35464028417E+03 -0.92107058210E+02  0.41349752700E+03  0.17377289754E+03 0.  0.
        -24    2    3    3    0    0 -0.16866757474E+01  0.11899123778E+03  0.11791867646E+02  0.14302991681E+03  0.78464956618E+02 0.  0.
          6    2    1    2  501    0 -0.80806828879E+02 -0.35464028417E+03 -0.63380241946E+03  0.75084218398E+03  0.17250798120E+03 0.  0.
         24    2    5    5    0    0 -0.23154250708E+02 -0.10827352149E+03 -0.13666886179E+03  0.19300325948E+03  0.79451907500E+02 0.  0.
          5    1    5    5  501    0 -0.57652578171E+02 -0.24636676268E+03 -0.49713355767E+03  0.55783892449E+03  0.47000000000E+01 0. -1.
        -13    1    6    6    0    0  0.69060437044E+01 -0.10563659855E+03 -0.11098797763E+03  0.15337899326E+03  0.00000000000E+00 0.  1.
         14    1    6    6    0    0 -0.30060294412E+02 -0.26369229387E+01 -0.25680884156E+02  0.39624266224E+02  0.00000000000E+00 0. -1.
         -5    1    3    3    0  503  0.82493504627E+02  0.23564904638E+03 -0.10389892586E+03  0.27046761019E+03  0.47000000000E+01 0.  1.
         13    1    4    4    0    0 -0.30790598843E+01 -0.55946778977E+01  0.17171108071E+02  0.18320152372E+02  0.00000000000E+00 0. -1.
        -14    1    4    4    0    0  0.13923841369E+01  0.12458591568E+03 -0.53792404253E+01  0.12470976444E+03  0.00000000000E+00 0.  1.
</event>
<event>
12    1  0.1035051E+000  0.1739730E+03  0.7818608E-02  0.1174234E+00
         21   -1    0    0  503  502  0.00000000000E+00  0.00000000000E+00  0.41949623549E+03  0.41949623549E+03  0.00000000000E+00 0.  1.
         21   -1    0    0  501  503 -0.00000000000E+00 -0.00000000000E+00 -0.88767229322E+02  0.88767229322E+02  0.00000000000E+00 0.  1.
          6    2    1    2  501    0  0.14428083635E+02 -0.20927277835E+02  0.52223932030E+02  0.17988610932E+03  0.17025143962E+03 0.  0.
         24    2    3    3    0    0  0.19307923889E+02  0.13629119988E+02  0.93861198001E+02  0.12535438104E+03  0.79657061955E+02 0.  0.
         -6    2    1    2    0  502 -0.14428083635E+02  0.20927277835E+02  0.27850507414E+03  0.32837735550E+03  0.17210604500E+03 0.  0.
        -24    2    5    5    0    0 -0.20183414876E+02  0.41101462023E+02  0.28970336661E+03  0.30413661913E+03  0.80463296341E+02 0.  0.
          5    1    3    3  501    0 -0.48798402541E+01 -0.34556397824E+02 -0.41637265971E+02  0.54531728278E+02  0.47000000000E+01 0. -1.
        -11    1    4    4    0    0 -0.11852443847E+01 -0.30740234297E+02  0.54576622280E+02  0.62649616985E+02  0.00000000000E+00 0.  1.
         12    1    4    4    0    0  0.20493168274E+02  0.44369354286E+02  0.39284575721E+02  0.62704764055E+02  0.00000000000E+00 0. -1.
         -5    1    5    5    0  502  0.57553312415E+01 -0.20174184188E+02 -0.11198292466E+02  0.24240736364E+02  0.47000000000E+01 0.  1.
         11    1    6    6    0    0 -0.34718831490E+02 -0.78073595761E+01  0.17523223950E+03  0.17880908781E+03  0.00000000000E+00 0. -1.
        -12    1    6    6    0    0  0.14535416613E+02  0.48908821599E+02  0.11447112711E+03  0.12532753132E+03  0.00000000000E+00 0.  1.
</event>
<event>
12    1  0.1035051E+000  0.2459310E+03  0.7818608E-02  0.1117773E+00
         21   -1    0    0  501  502  0.00000000000E+00  0.00000000000E+00  0.12153537719E+03  0.12153537719E+03  0.00000000000E+00 0. -1.
         21   -1    0    0  502  503 -0.00000000000E+00 -0.00000000000E+00 -0.48060136491E+03  0.48060136491E+03  0.00000000000E+00 0.  1.
         -6    2    1    2    0  503 -0.52901290211E+02  0.15091197952E+03 -0.14300972726E+03  0.27478014153E+03  0.17169557950E+03 0.  0.
        -24    2    3    3    0    0 -0.23748429308E+02  0.51598649269E+02  0.12734845497E+01  0.97149169925E+02  0.78803115125E+02 0.  0.
          6    2    1    2  501    0  0.52901290211E+02 -0.15091197952E+03 -0.21605626047E+03  0.32735660057E+03  0.18683967508E+03 0.  0.
         24    2    5    5    0    0  0.76884467322E+02 -0.12587545082E+03 -0.77803809297E+02  0.18474576365E+03  0.79509207072E+02 0.  0.
          5    1    5    5  501    0 -0.23983177111E+02 -0.25036528693E+02 -0.13825245117E+03  0.14261083692E+03  0.47000000000E+01 0. -1.
        -11    1    6    6    0    0  0.21840598761E+02 -0.45638383857E+01  0.10766141505E+02  0.24773981876E+02  0.00000000000E+00 0.  1.
         12    1    6    6    0    0  0.55043868560E+02 -0.12131161244E+03 -0.88569950801E+02  0.15997178177E+03  0.00000000000E+00 0. -1.
         -5    1    3    3    0  503 -0.29152860903E+02  0.99313330247E+02 -0.14428321181E+03  0.17763097160E+03  0.47000000000E+01 0.  1.
         11    1    4    4    0    0 -0.44961163681E+02  0.56268023552E+02  0.11845208256E+02  0.72992504222E+02  0.00000000000E+00 0. -1.
        -12    1    4    4    0    0  0.21212734373E+02 -0.46693742827E+01 -0.10571723707E+02  0.24156665703E+02  0.00000000000E+00 0.  1.
</event>
<event>
12    1  0.1035051E+000  0.3506392E+03  0.7818608E-02  0.1062462E+00
         21   -1    0    0  501  502  0.00000000000E+00  0.00000000000E+00  0.65186599471E+02  0.65186599471E+02  0.00000000000E+00 0.  1.
         21   -1    0    0  502  503 -0.00000000000E+00 -0.00000000000E+00 -0.18997510662E+04  0.18997510662E+04  0.00000000000E+00 0. -1.
         -6    2    1    2    0  503 -0.51585000874E+02 -0.30090586521E+03 -0.81673746305E+03  0.88840634178E+03  0.17029501616E+03 0.  0.
        -24    2    3    3    0    0  0.26502426830E+02 -0.13527436880E+03 -0.47111945027E+03  0.49724737188E+03  0.79371776744E+02 0.  0.
          6    2    1    2  501    0  0.51585000874E+02  0.30090586521E+03 -0.10178270037E+04  0.10765313239E+04  0.17246022692E+03 0.  0.
         24    2    5    5    0    0  0.23199403671E+02  0.16510641787E+03 -0.35847863493E+03  0.40272898388E+03  0.76716107881E+02 0.  0.
          5    1    5    5  501    0  0.28385597203E+02  0.13579944734E+03 -0.65934836874E+03  0.67380233999E+03  0.47000000000E+01 0. -1.
        -11    1    6    6    0    0  0.11840219209E+02  0.63790629959E+02 -0.22852617849E+03  0.23755767619E+03  0.00000000000E+00 0.  1.
         12    1    6    6    0    0  0.11359184462E+02  0.10131578791E+03 -0.12995245644E+03  0.16517130770E+03  0.00000000000E+00 0. -1.
         -5    1    3    3    0  503 -0.78087427705E+02 -0.16563149641E+03 -0.34561801278E+03  0.39115896989E+03  0.47000000000E+01 0.  1.
         11    1    4    4    0    0  0.35390979121E+01 -0.66631325469E+01  0.79154267497E+00  0.75861115978E+01  0.00000000000E+00 0. -1.
        -12    1    4    4    0    0  0.22963328918E+02 -0.12861123625E+03 -0.47191099294E+03  0.48966126028E+03  0.00000000000E+00 0.  1.
</event>
<event>
12    1  0.1035051E+000  0.1941646E+03  0.7818608E-02  0.1155204E+00
         21   -1    0    0  503  502  0.00000000000E+00  0.00000000000E+00  0.87999385506E+02  0.87999385506E+02  0.00000000000E+00 0.  1.
         21   -1    0    0  501  503 -0.00000000000E+00 -0.00000000000E+00 -0.42472788031E+03  0.42472788031E+03  0.00000000000E+00 0.  1.
          6    2    1    2  501    0  0.39497289138E+02 -0.78140394320E+02 -0.15830272934E+03  0.25051878961E+03  0.17330306621E+03 0.  0.
         24    2    3    3    0    0  0.16900686594E+02 -0.12085269715E+03 -0.11593435130E+03  0.18608186916E+03  0.79339023205E+02 0.  0.
         -6    2    1    2    0  502 -0.39497289138E+02  0.78140394320E+02 -0.17842576546E+03  0.26220847620E+03  0.17103091574E+03 0.  0.
        -24    2    5    5    0    0  0.37396716327E+02  0.96674038187E+01 -0.85001190651E+02  0.12309888026E+03  0.80225674321E+02 0.  0.
          5    1    3    3  501    0  0.22596602544E+02  0.42712302830E+02 -0.42368378039E+02  0.64436920451E+02  0.47000000000E+01 0. -1.
        -11    1    4    4    0    0 -0.31529575553E+02 -0.36106585903E+02 -0.39174758715E+02  0.61906876843E+02  0.00000000000E+00 0.  1.
         12    1    4    4    0    0  0.48430262147E+02 -0.84746111247E+02 -0.76759592585E+02  0.12417499232E+03  0.00000000000E+00 0. -1.
         -5    1    5    5    0  502 -0.76894005465E+02  0.68472990501E+02 -0.93424574813E+02  0.13910959594E+03  0.47000000000E+01 0.  1.
         13    1    6    6    0    0 -0.59723597418E+01  0.36483654785E+02 -0.26448168516E+02  0.45455822127E+02  0.00000000000E+00 0. -1.
        -14    1    6    6    0    0  0.43369076069E+02 -0.26816250967E+02 -0.58553022136E+02  0.77643058133E+02  0.00000000000E+00 0.  1.
</event>
<event>
12    1  0.1035051E+000  0.2915685E+03  0.7818608E-02  0.1089535E+00
         21   -1    0    0  503  502  0.00000000000E+00  0.00000000000E+00  0.32032182327E+03  0.32032182327E+03  0.00000000000E+00 0. -1.
         21   -1    0    0  501  503 -0.00000000000E+00 -0.00000000000E+00 -0.26539133562E+03  0.26539133562E+03  0.00000000000E+00 0. -1.
          6    2    1    2  501    0  0.21294234744E+03 -0.10046302556E+03  0.29318237614E+02  0.29302187545E+03  0.17194475159E+03 0.  0.
         24    2    3    3    0    0  0.13616251897E+03 -0.12618764391E+03  0.52593895233E+02  0.20863737281E+03  0.79371798946E+02 0.  0.
         -6    2    1    2    0  502 -0.21294234744E+03  0.10046302556E+03  0.25612250030E+02  0.29269128343E+03  0.17197365265E+03 0.  0.
        -24    2    5    5    0    0 -0.94015150266E+02 -0.14942174164E+02  0.15162524212E+01  0.12516592579E+03  0.81253263996E+02 0.  0.
          5    1    3    3  501    0  0.76779828471E+02  0.25724618352E+02 -0.23275657618E+02  0.84384502647E+02  0.47000000000E+01 0. -1.
        -13    1    4    4    0    0  0.26786362133E+02  0.63238787905E+01  0.19313265782E+02  0.33622951602E+02  0.00000000000E+00 0.  1.
         14    1    4    4    0    0  0.10937615684E+03 -0.13251152270E+03  0.33280629451E+02  0.17501442121E+03  0.00000000000E+00 0. -1.
         -5    1    5    5    0  502 -0.11892719718E+03  0.11540519972E+03  0.24095997609E+02  0.16752535764E+03  0.47000000000E+01 0.  1.
         11    1    6    6    0    0 -0.10172321852E+03 -0.28010694250E+02 -0.10193214009E+02  0.10600053674E+03  0.00000000000E+00 0. -1.
        -12    1    6    6    0    0  0.77080682510E+01  0.13068520086E+02  0.11709466431E+02  0.19165389051E+02  0.00000000000E+00 0.  1.
</event>
<event>
12    1  0.1035051E+000  0.2662094E+03  0.7818608E-02  0.1105420E+00
         21   -1    0    0  503  502  0.00000000000E+00  0.00000000000E+00  0.24099722143E+04  0.24099722143E+04  0.00000000000E+00 0. -1.
         21   -1    0    0  501  503 -0.00000000000E+00 -0.00000000000E+00 -0.33820068611E+02  0.33820068611E+02  0.00000000000E+00 0. -1.
          6    2    1    2  501    0 -0.19368283973E+03  0.12394434091E+02  0.70527266374E+03  0.75384149542E+03  0.18221088223E+03 0.  0.
         24    2    3    3    0    0 -0.23850215140E+02  0.11101493499E+02  0.35168227963E+03  0.36154945905E+03  0.79658707061E+02 0.  0.
         -6    2    1    2    0  502  0.19368283973E+03 -0.12394434091E+02  0.16708794819E+04  0.16899507875E+04  0.16256923610E+03 0.  0.
        -24    2    5    5    0    0  0.13895575143E+03  0.43124633901E+02  0.90497440405E+03  0.92007410940E+03  0.79932846227E+02 0.  0.
          5    1    3    3  501    0 -0.16983262459E+03  0.12929405919E+01  0.35359038410E+03  0.39229203637E+03  0.47000000000E+01 0. -1.
        -11    1    4    4    0    0 -0.40262431840E+02  0.12617478311E+01  0.33072867607E+03  0.33317279691E+03  0.00000000000E+00 0.  1.
         12    1    4    4    0    0  0.16412216701E+02  0.98397456682E+01  0.20953603558E+02  0.28376662134E+02  0.00000000000E+00 0. -1.
         -5    1    5    5    0  502  0.54727088300E+02 -0.55519067992E+02  0.76590507787E+03  0.76987667805E+03  0.47000000000E+01 0.  1.
         11    1    6    6    0    0  0.73968607684E+01  0.28014247513E+02  0.26250935437E+03  0.26410352657E+03  0.00000000000E+00 0. -1.
        -12    1    6    6    0    0  0.13155889066E+03  0.15110386388E+02  0.64246504968E+03  0.65597058284E+03  0.00000000000E+00 0.  1.
</event>
<event>
12    1  0.1035051E+000  0.2262215E+03  0.7818608E-02  0.1129416E+00
         21   -1    0    0  501  502  0.00000000000E+00  0.00000000000E+00  0.14098762307E+04  0.14098762307E+04  0.00000000000E+00 0. -1.
         21   -1    0    0  502  503 -0.00000000000E+00 -0.00000000000E+00 -0.36256515334E+02  0.36256515334E+02  0.00000000000E+00 0. -1.
         -6    2    1    2    0  503  0.14084107638E+03  0.42843299492E+02  0.66464336214E+03  0.70208756616E+03  0.17176843309E+03 0.  0.
        -24    2    3    3    0    0  0.34954230011E+02  0.73608322968E+02  0.38264099801E+03  0.39925768936E+03  0.79703110041E+02 0.  0.
          6    2    1    2  501    0 -0.14084107638E+03 -0.42843299492E+02  0.70897635318E+03  0.74404517983E+03  0.17112569403E+03 0.  0.
         24    2    5    5    0    0 -0.12984106086E+03  0.18909374671E+02  0.57415279999E+03  0.59527060673E+03  0.86483477974E+02 0.  0.
          5    1    5    5  501    0 -0.11000015529E+02 -0.61752674163E+02  0.13482355319E+03  0.14877457310E+03  0.47000000000E+01 0. -1.
        -11    1    6    6    0    0 -0.92014667061E+02  0.32948929219E+02  0.24691512384E+03  0.26555490820E+03  0.00000000000E+00 0.  1.
         12    1    6    6    0    0 -0.37826393794E+02 -0.14039554548E+02  0.32723767616E+03  0.32971569853E+03  0.00000000000E+00 0. -1.
         -5    1    3    3    0  503  0.10588684637E+03 -0.30765023476E+02  0.28200236413E+03  0.30282987680E+03  0.47000000000E+01 0.  1.
         13    1    4    4    0    0  0.31036804950E+02  0.80705912440E+02  0.21952812477E+03  0.23594347868E+03  0.00000000000E+00 0. -1.
        -14    1    4    4    0    0  0.39174250611E+01 -0.70975894727E+01  0.16311287324E+03  0.16331421068E+03  0.00000000000E+00 0.  1.
</event>
<event>
12    1  0.1035051E+000  0.1787752E+03  0.7818608E-02  0.1169105E+00
         21   -1    0    0  503  502  0.00000000000E+00  0.00000000000E+00  0.10296303777E+03  0.10296303777E+03  0.00000000000E+00 0.  1.
         21   -1    0    0  501  503 -0.00000000000E+00 -0.00000000000E+00 -0.32287752433E+03  0.32287752433E+03  0.00000000000E+00 0.  1.
          6    2    1    2  501    0 -0.47474687333E+02  0.65307168087E+01 -0.66940948372E+02  0.19089697723E+03  0.17223260187E+03 0.  0.
         24    2    3    3    0    0 -0.26314071900E+02 -0.18767294368E+02  0.26564616842E+02  0.91633984421E+02  0.81525864087E+02 0.  0.
         -6    2    1    2    0  502  0.47474687333E+02 -0.65307168087E+01 -0.15297353819E+03  0.23494358487E+03  0.17175880904E+03 0.  0.
        -24    2    5    5    0    0  0.80936776380E+02 -0.13044394355E+02 -0.47937182166E+02  0.12441365460E+03  0.80373291717E+02 0.  0.
          5    1    3    3  501    0 -0.21160615433E+02  0.25298011177E+02 -0.93505565214E+02  0.99262992807E+02  0.47000000000E+01 0. -1.
        -13    1    4    4    0    0 -0.24162271097E+02 -0.50446657746E+02  0.17672651186E+02  0.58660064970E+02  0.00000000000E+00 0.  1.
         14    1    4    4    0    0 -0.21518008029E+01  0.31679363378E+02  0.88919656565E+01  0.32973919452E+02  0.00000000000E+00 0. -1.
         -5    1    5    5    0  502 -0.33462089046E+02  0.65136775461E+01 -0.10503635602E+03  0.11052993027E+03  0.47000000000E+01 0.  1.
         13    1    6    6    0    0  0.66764716821E+02 -0.43806528140E+02 -0.41294564184E+02  0.89898722744E+02  0.00000000000E+00 0. -1.
        -14    1    6    6    0    0  0.14172059559E+02  0.30762133785E+02 -0.66426179815E+01  0.34514931853E+02  0.00000000000E+00 0.  1.
</event>
<event>
12    1  0.1035051E+000  0.1751204E+03  0.7818608E-02  0.1176629E+00
         21   -1    0    0  501  502  0.00000000000E+00  0.00000000000E+00  0.65076985419E+03  0.65076985419E+03  0.00000000000E+00 0. -1.
         21   -1    0    0  502  503 -0.00000000000E+00 -0.00000000000E+00 -0.44523065309E+02  0.44523065309E+02  0.00000000000E+00 0. -1.
         -6    2    1    2    0  503 -0.30245144617E+02  0.74950008122E+01  0.25457594068E+03  0.30899201227E+03  0.17232588391E+03 0.  0.
        -24    2    3    3    0    0  0.48539084951E+02 -0.47751740362E+01  0.15823907055E+03  0.18385051410E+03  0.79890944604E+02 0.  0.
          6    2    1    2  501    0  0.30245144617E+02 -0.74950008122E+01  0.35167084820E+03  0.38630090723E+03  0.15679624243E+03 0.  0.
         24    2    5    5    0    0 -0.11139697347E+02 -0.43736348505E+02  0.13239440017E+03  0.16018060498E+03  0.78055031726E+02 0.  0.
          5    1    5    5  501    0  0.41384841965E+02  0.36241347693E+02  0.21927644804E+03  0.22612030225E+03  0.47000000000E+01 0. -1.
        -11    1    6    6    0    0  0.12867649598E+02 -0.59498073253E+02  0.98065038418E+02  0.11542247999E+03  0.00000000000E+00 0.  1.
         12    1    6    6    0    0 -0.24007346945E+02  0.15761724747E+02  0.34329361749E+02  0.44758124988E+02  0.00000000000E+00 0. -1.
         -5    1    3    3    0  503 -0.78784229568E+02  0.12270174848E+02  0.96336870126E+02  0.12514149817E+03  0.47000000000E+01 0.  1.
         13    1    4    4    0    0  0.33517691045E+01 -0.37348173585E+02  0.55464556009E+02  0.66951007457E+02  0.00000000000E+00 0. -1.
        -14    1    4    4    0    0  0.45187315846E+02  0.32572999549E+02  0.10277451454E+03  0.11689950664E+03  0.00000000000E+00 0.  1.
</event>
<event>
12    1  0.1035051E+000  0.1718669E+03  0.7818608E-02  0.1175956E+00
         21   -1    0    0  503  502  0.00000000000E+00  0.00000000000E+00  0.11225573820E+03  0.11225573820E+03  0.00000000000E+00 0. -1.
         21   -1    0    0  501  503 -0.00000000000E+00 -0.00000000000E+00 -0.44110357779E+03  0.44110357779E+03  0.00000000000E+00 0. -1.
          6    2    1    2  501    0 -0.79774297302E+01 -0.38331726232E+01  0.11395320250E+02  0.17224423960E+03  0.17163884221E+03 0.  0.
         24    2    3    3    0    0  0.65030935157E+01 -0.66059109079E+02  0.28256551999E+02  0.10600117312E+03  0.77664147799E+02 0.  0.
         -6    2    1    2    0  502  0.79774297302E+01  0.38331726232E+01 -0.34024315983E+03  0.38111507639E+03  0.17147874807E+03 0.  0.
        -24    2    5    5    0    0  0.64809856086E+02 -0.15651320490E+02 -0.26879167393E+03  0.28764328923E+03  0.77745846091E+02 0.  0.
          5    1    3    3  501    0 -0.14480523246E+02  0.62225936456E+02 -0.16861231749E+02  0.66243066485E+02  0.47000000000E+01 0. -1.
        -11    1    4    4    0    0 -0.23201719769E+02 -0.34488066562E+02  0.43389898662E+02  0.60086852483E+02  0.00000000000E+00 0.  1.
         12    1    4    4    0    0  0.29704813285E+02 -0.31571042517E+02 -0.15133346663E+02  0.45914320632E+02  0.00000000000E+00 0. -1.
         -5    1    5    5    0  502 -0.56832426356E+02  0.19484493113E+02 -0.71451485900E+02  0.93471787159E+02  0.47000000000E+01 0.  1.
         13    1    6    6    0    0  0.18361189133E+02 -0.12513712398E+01 -0.45416351448E+01  0.18955886846E+02  0.00000000000E+00 0. -1.
        -14    1    6    6    0    0  0.46448666954E+02 -0.14399949250E+02 -0.26425003879E+03  0.26868740238E+03  0.00000000000E+00 0.  1.
</event>
<event>
12    1  0.1035051E+000  0.1884545E+03  0.7818608E-02  0.1160016E+00
         21   -1    0    0  503  502  0.00000000000E+00  0.00000000000E+00  0.21092972311E+03  0.21092972311E+03  0.00000000000E+00 0.  1.
         21   -1    0    0  501  503 -0.00000000000E+00 -0.00000000000E+00 -0.30018483931E+03  0.30018483931E+03  0.00000000000E+00 0.  1.
          6    2    1    2  501    0  0.41130404177E+02  0.63645403612E+02  0.12505689019E+03  0.22617320197E+03  0.17254751217E+03 0.  0.
         24    2    3    3    0    0  0.92236714800E+02  0.64465429482E+02  0.89624080586E+02  0.16380252437E+03  0.78328717673E+02 0.  0.
         -6    2    1    2    0  502 -0.41130404177E+02 -0.63645403612E+02 -0.21431200639E+03  0.28494136046E+03  0.17181238392E+03 0.  0.
        -24    2    5    5    0    0 -0.46495224926E+02 -0.97309861184E+02 -0.10569238428E+03  0.17100107209E+03  0.80246317898E+02 0.  0.
          5    1    3    3  501    0 -0.51106310623E+02 -0.82002586961E+00  0.35432809607E+02  0.62370677602E+02  0.47000000000E+01 0. -1.
        -11    1    4    4    0    0  0.32911790440E+02  0.17808068261E+02  0.79221451490E+02  0.87614791111E+02  0.00000000000E+00 0.  1.
         12    1    4    4    0    0  0.59324924360E+02  0.46657361220E+02  0.10402629096E+02  0.76187733255E+02  0.00000000000E+00 0. -1.
         -5    1    5    5    0  502  0.53648207495E+01  0.33664457572E+02 -0.10861962212E+03  0.11394028837E+03  0.47000000000E+01 0.  1.
         13    1    6    6    0    0 -0.42932749511E+02 -0.85147351403E+01 -0.22249320837E+02  0.49099429455E+02  0.00000000000E+00 0. -1.
        -14    1    6    6    0    0 -0.35624754153E+01 -0.88795126044E+02 -0.83443063439E+02  0.12190164263E+03  0.00000000000E+00 0.  1.
</event>
<event>
12    1  0.1035051E+000  0.1076335E+04  0.7818608E-02  0.9228791E-01
         21   -1    0    0  503  502  0.00000000000E+00  0.00000000000E+00  0.10792517572E+04  0.10792517572E+04  0.00000000000E+00 0.  1.
         21   -1    0    0  501  503 -0.00000000000E+00 -0.00000000000E+00 -0.12703659595E+04  0.12703659595E+04  0.00000000000E+00 0.  1.
          6    2    1    2  501    0 -0.83198583595E+03  0.66026811780E+03  0.36807190896E+03  0.11366926696E+04  0.16863830014E+03 0.  0.
         24    2    3    3    0    0 -0.26340112040E+03  0.25516262725E+03  0.94995941155E+02  0.38703167190E+03  0.79253830467E+02 0.  0.
         -6    2    1    2    0  502  0.83198583595E+03 -0.66026811780E+03 -0.55918611128E+03  0.12129250472E+04  0.17419427216E+03 0.  0.
        -24    2    5    5    0    0  0.62771012986E+03 -0.57116471905E+03 -0.46405061160E+03  0.97055996500E+03  0.79965818428E+02 0.  0.
          5    1    3    3  501    0 -0.56858471554E+03  0.40510549055E+03  0.27307596781E+03  0.74966099766E+03  0.47000000000E+01 0. -1.
        -11    1    4    4    0    0 -0.91565699406E+02  0.72659378053E+02 -0.53738044203E+01  0.11701512851E+03  0.00000000000E+00 0.  1.
         12    1    4    4    0    0 -0.17183542100E+03  0.18250324920E+03  0.10036974558E+03  0.27001654339E+03  0.00000000000E+00 0. -1.
         -5    1    5    5    0  502  0.20427570609E+03 -0.89103398755E+02 -0.95135499684E+02  0.24236508220E+03  0.47000000000E+01 0.  1.
         13    1    6    6    0    0  0.56455941370E+03 -0.49298311989E+03 -0.43190117062E+03  0.86504237427E+03  0.00000000000E+00 0. -1.
        -14    1    6    6    0    0  0.63150716161E+02 -0.78181599154E+02 -0.32149440975E+02  0.10551759073E+03  0.00000000000E+00 0.  1.
</event>
<event>
12    1  0.1035051E+000  0.1903166E+03  0.7818608E-02  0.1158198E+00
         21   -1    0    0  503  502  0.00000000000E+00  0.00000000000E+00  0.38708069949E+02  0.38708069949E+02  0.00000000000E+00 0. -1.
         21   -1    0    0  501  503 -0.00000000000E+00 -0.00000000000E+00 -0.93558724734E+03  0.93558724734E+03  0.00000000000E+00 0. -1.
          6    2    1    2  501    0  0.65365815164E+02 -0.51044017187E+02 -0.45760342217E+03  0.49560196680E+03  0.17129575601E+03 0.  0.
         24    2    3    3    0    0  0.13944927533E+02  0.43164703049E-01 -0.38292614943E+03  0.39142522802E+03  0.79917522142E+02 0.  0.
         -6    2    1    2    0  502 -0.65365815164E+02  0.51044017187E+02 -0.43927575522E+03  0.47869335049E+03  0.17118981628E+03 0.  0.
        -24    2    5    5    0    0 -0.58768074548E+02  0.31092265384E+02 -0.44332405058E+03  0.45678259339E+03  0.87713785960E+02 0.  0.
          5    1    3    3  501    0  0.51420887631E+02 -0.51087181890E+02 -0.74677272743E+02  0.10417673878E+03  0.47000000000E+01 0. -1.
        -13    1    4    4    0    0  0.97522268883E+01 -0.29794741990E+02 -0.32131612338E+03  0.32284188657E+03  0.00000000000E+00 0.  1.
         14    1    4    4    0    0  0.41927006451E+01  0.29837906693E+02 -0.61610026045E+02  0.68583341445E+02  0.00000000000E+00 0. -1.
         -5    1    5    5    0  502 -0.65977406164E+01  0.19951751804E+02  0.40482953654E+01  0.21910757099E+02  0.47000000000E+01 0.  1.
         11    1    6    6    0    0 -0.34132680718E+02  0.57804956577E+02 -0.35472406358E+03  0.36102024068E+03  0.00000000000E+00 0. -1.
        -12    1    6    6    0    0 -0.24635393830E+02 -0.26712691193E+02 -0.88599987003E+02  0.95762352712E+02  0.00000000000E+00 0.  1.
</event>
<event>
12    1  0.1035051E+000  0.2099068E+03  0.7818608E-02  0.1143151E+00
         21   -1    0    0  501  502  0.00000000000E+00  0.00000000000E+00  0.13078651461E+04  0.13078651461E+04  0.00000000000E+00 0.  1.
         21   -1    0    0  502  503 -0.00000000000E+00 -0.00000000000E+00 -0.32726534539E+02  0.32726534539E+02  0.00000000000E+00 0.  1.
         -6    2    1    2    0  503  0.95067798032E+02  0.52668907809E+02  0.57021941357E+03  0.60508373622E+03  0.17077543195E+03 0.  0.
        -24    2    3    3    0    0  0.62993670788E+02 -0.19885031508E+02  0.44385531170E+03  0.45580949199E+03  0.79944594754E+02 0.  0.
          6    2    1    2  501    0 -0.95067798032E+02 -0.52668907809E+02  0.70491919798E+03  0.73550794440E+03  0.17957995581E+03 0.  0.
         24    2    5    5    0    0 -0.11010783054E+03 -0.91942226817E+02  0.61138155738E+03  0.63284355733E+03  0.78271654748E+02 0.  0.
          5    1    5    5  501    0  0.15040032505E+02  0.39273319008E+02  0.93537640599E+02  0.10266438707E+03  0.47000000000E+01 0. -1.
        -11    1    6    6    0    0 -0.18251876476E+02 -0.76931441714E+01  0.18844599754E+02  0.27339246552E+02  0.00000000000E+00 0.  1.
         12    1    6    6    0    0 -0.91855954062E+02 -0.84249082645E+02  0.59253695763E+03  0.60550431078E+03  0.00000000000E+00 0. -1.
         -5    1    3    3    0  503  0.32074127244E+02  0.72553939317E+02  0.12636410187E+03  0.14927424423E+03  0.47000000000E+01 0.  1.
         13    1    4    4    0    0  0.97326033778E+01  0.23992060256E+02  0.53905146983E+02  0.59800563501E+02  0.00000000000E+00 0. -1.
        -14    1    4    4    0    0  0.53261067410E+02 -0.43877091764E+02  0.38995016471E+03  0.39600892849E+03  0.00000000000E+00 0.  1.
</event>
<event>
12    1  0.1035051E+000  0.2231168E+03  0.7818608E-02  0.1131675E+00
         21   -1    0    0  503  502  0.00000000000E+00  0.00000000000E+00  0.24089472078E+03  0.24089472078E+03  0.00000000000E+00 0. -1.
         21   -1    0    0  501  503 -0.00000000000E+00 -0.00000000000E+00 -0.38931588544E+03  0.38931588544E+03  0.00000000000E+00 0. -1.
          6    2    1    2  501    0  0.11647719311E+03  0.78958200411E+02 -0.29037787968E+03  0.36619726238E+03  0.17314672403E+03 0.  0.
         24    2    3    3    0    0  0.11633210561E+03  0.11500018011E+03 -0.21282572802E+03  0.28054989478E+03  0.81579732350E+02 0.  0.
         -6    2    1    2    0  502 -0.11647719311E+03 -0.78958200411E+02  0.14195671502E+03  0.26401334384E+03  0.17248189140E+03 0.  0.
        -24    2    5    5    0    0  0.28079581962E+01 -0.60001480908E+02  0.79662204564E+02  0.12803172534E+03  0.80237108107E+02 0.  0.
          5    1    3    3  501    0  0.14508749780E+00 -0.36041979696E+02 -0.77552151656E+02  0.85647367603E+02  0.47000000000E+01 0. -1.
        -13    1    4    4    0    0  0.27714020024E+02  0.31474793728E+02 -0.86560151810E+01  0.42821211390E+02  0.00000000000E+00 0.  1.
         14    1    4    4    0    0  0.88618085590E+02  0.83525386379E+02 -0.20416971284E+03  0.23772868339E+03  0.00000000000E+00 0. -1.
         -5    1    5    5    0  502 -0.11928515131E+03 -0.18956719504E+02  0.62294510455E+02  0.13598161850E+03  0.47000000000E+01 0.  1.
         11    1    6    6    0    0  0.24413356019E+02 -0.12821354493E+02 -0.56774487559E+01  0.28153729905E+02  0.00000000000E+00 0. -1.
        -12    1    6    6    0    0 -0.21605397823E+02 -0.47180126414E+02  0.85339653320E+02  0.99877995436E+02  0.00000000000E+00 0.  1.
</event>
<event>
12    1  0.1035051E+000  0.2187888E+03  0.7818608E-02  0.1135221E+00
         21   -1    0    0  503  502  0.00000000000E+00  0.00000000000E+00  0.66688273856E+03  0.66688273856E+03  0.00000000000E+00 0.  1.
         21   -1    0    0  501  503 -0.00000000000E+00 -0.00000000000E+00 -0.19981481910E+03  0.19981481910E+03  0.00000000000E+00 0.  1.
          6    2    1    2  501    0  0.82261545559E+02 -0.10615653310E+03 -0.11479869093E+03  0.24505675667E+03  0.16981726400E+03 0.  0.
         24    2    3    3    0    0 -0.10190866288E+02 -0.66441797719E+01 -0.45384607603E+02  0.92444300147E+02  0.79612732285E+02 0.  0.
         -6    2    1    2    0  502 -0.82261545559E+02  0.10615653310E+03  0.58186661039E+03  0.62164080099E+03  0.17272047293E+03 0.  0.
        -24    2    5    5    0    0  0.16694714969E+02  0.37519819495E+02  0.16371865795E+03  0.18647055834E+03  0.79252885155E+02 0.  0.
          5    1    3    3  501    0  0.92452411847E+02 -0.99512353331E+02 -0.69414083324E+02  0.15261245652E+03  0.47000000000E+01 0. -1.
        -13    1    4    4    0    0  0.68164262521E+01 -0.11679212757E+01 -0.65313537923E+02  0.65678656677E+02  0.00000000000E+00 0.  1.
         14    1    4    4    0    0 -0.17007292540E+02 -0.54762584962E+01  0.19928930320E+02  0.26765643469E+02  0.00000000000E+00 0. -1.
         -5    1    5    5    0  502 -0.98956260529E+02  0.68636713608E+02  0.41814795244E+03  0.43517024264E+03  0.47000000000E+01 0.  1.
         11    1    6    6    0    0 -0.23925294664E+02  0.31195200207E+02  0.12081631815E+03  0.12705173345E+03  0.00000000000E+00 0. -1.
        -12    1    6    6    0    0  0.40620009633E+02  0.63246192876E+01  0.42902339797E+02  0.59418824894E+02  0.00000000000E+00 0.  1.
</event>
<event>
12    1  0.1035051E+000  0.1936172E+03  0.7818608E-02  0.1155954E+00
         21   -1    0    0  503  502  0.00000000000E+00  0.00000000000E+00  0.36838020958E+02  0.36838020958E+02  0.00000000000E+00 0.  1.
         21   -1    0    0  501  503 -0.00000000000E+00 -0.00000000000E+00 -0.10093667748E+04  0.10093667748E+04  0.00000000000E+00 0.  1.
          6    2    1    2  501    0  0.85564066691E+02 -0.23677726361E+02 -0.53051679876E+03  0.56364683590E+03  0.16842754411E+03 0.  0.
         24    2    3    3    0    0  0.56601436105E+02  0.44388216176E+02 -0.23865633968E+03  0.26252157279E+03  0.82381377799E+02 0.  0.
         -6    2    1    2    0  502 -0.85564066691E+02  0.23677726361E+02 -0.44201195511E+03  0.48255795989E+03  0.17206327894E+03 0.  0.
        -24    2    5    5    0    0 -0.34406222919E+02 -0.50900095859E+02 -0.27057440454E+03  0.28867165224E+03  0.79663081065E+02 0.  0.
          5    1    3    3  501    0  0.28962630585E+02 -0.68065942537E+02 -0.29186045908E+03  0.30112526311E+03  0.47000000000E+01 0. -1.
        -11    1    4    4    0    0  0.73543109691E+02  0.24213383147E+02 -0.13556925897E+03  0.15612142993E+03  0.00000000000E+00 0.  1.
         12    1    4    4    0    0 -0.16941673585E+02  0.20174833029E+02 -0.10308708071E+03  0.10640014286E+03  0.00000000000E+00 0. -1.
         -5    1    5    5    0  502 -0.51157843772E+02  0.74577822219E+02 -0.17143755057E+03  0.19388630764E+03  0.47000000000E+01 0.  1.
         11    1    6    6    0    0 -0.58676146418E+02 -0.21583124513E+02 -0.16517053777E+03  0.17660698732E+03  0.00000000000E+00 0. -1.
        -12    1    6    6    0    0  0.24269923500E+02 -0.29316971346E+02 -0.10540386677E+03  0.11206466493E+03  0.00000000000E+00 0.  1.
</event>
<event>
12    1  0.1035051E+000  0.2070346E+03  0.7818608E-02  0.1143994E+00
         21   -1    0    0  501  502  0.00000000000E+00  0.00000000000E+00  0.11146974833E+04  0.11146974833E+04  0.00000000000E+00 0. -1.
         21   -1    0    0  502  503 -0.00000000000E+00 -0.00000000000E+00 -0.42609449537E+02  0.42609449537E+02  0.00000000000E+00 0. -1.
         -6    2    1    2    0  503 -0.23317036468E+02 -0.11499401270E+03  0.71825914042E+03  0.74750219040E+03  0.17057556889E+03 0.  0.
        -24    2    3    3    0    0 -0.49851807346E+02 -0.64869269945E+02  0.64274039179E+03  0.65294133541E+03  0.80770980933E+02 0.  0.
          6    2    1    2  501    0  0.23317036468E+02  0.11499401270E+03  0.35382889330E+03  0.40980474240E+03  0.17022847591E+03 0.  0.
         24    2    5    5    0    0 -0.47996075927E+02  0.81895320407E+02  0.18795498384E+03  0.22618195713E+03  0.82587741043E+02 0.  0.
          5    1    5    5  501    0  0.71313112394E+02  0.33098692297E+02  0.16587390946E+03  0.18362278527E+03  0.47000000000E+01 0. -1.
        -11    1    6    6    0    0  0.14789242171E+02  0.27741406229E+02  0.10208391391E+03  0.10681494644E+03  0.00000000000E+00 0.  1.
         12    1    6    6    0    0 -0.62785318098E+02  0.54153914178E+02  0.85871069926E+02  0.11936701068E+03  0.00000000000E+00 0. -1.
         -5    1    3    3    0  503  0.26534770878E+02 -0.50124742759E+02  0.75518748628E+02  0.94560854990E+02  0.47000000000E+01 0.  1.
         13    1    4    4    0    0 -0.21239089735E+01 -0.19140284113E+02  0.42388082865E+03  0.42431806273E+03  0.00000000000E+00 0. -1.
        -14    1    4    4    0    0 -0.47727898372E+02 -0.45728985832E+02  0.21885956315E+03  0.22862327267E+03  0.00000000000E+00 0.  1.
</event>
<event>
12    1  0.1035051E+000  0.5320066E+03  0.7818608E-02  0.1005754E+00
         21   -1    0    0  501  502  0.00000000000E+00  0.00000000000E+00  0.29403012681E+03  0.29403012681E+03  0.00000000000E+00 0.  1.
         21   -1    0    0  502  503 -0.00000000000E+00 -0.00000000000E+00 -0.99832171024E+03  0.99832171024E+03  0.00000000000E+00 0.  1.
         -6    2    1    2    0  503  0.50185124344E+03 -0.36753786413E+02 -0.47474520132E+03  0.71293612581E+03  0.17230612861E+03 0.  0.
        -24    2    3    3    0    0  0.25907591486E+03 -0.39212445823E+02 -0.16699552727E+03  0.32091845140E+03  0.80269550609E+02 0.  0.
          6    2    1    2  501    0 -0.50185124344E+03  0.36753786413E+02 -0.22954638211E+03  0.57941571125E+03  0.17270064719E+03 0.  0.
         24    2    5    5    0    0 -0.14481656794E+03  0.93565627947E+00 -0.25985221931E+02  0.16684337348E+03  0.78668708598E+02 0.  0.
          5    1    5    5  501    0 -0.35703467550E+03  0.35818130134E+02 -0.20356116018E+03  0.41257233777E+03  0.47000000000E+01 0. -1.
        -13    1    6    6    0    0 -0.52333398235E+01 -0.11443040326E+02 -0.23538844336E+02  0.26690976195E+02  0.00000000000E+00 0.  1.
         14    1    6    6    0    0 -0.13958322812E+03  0.12378696605E+02 -0.24463775953E+01  0.14015239728E+03  0.00000000000E+00 0. -1.
         -5    1    3    3    0  503  0.24277532858E+03  0.24586594098E+01 -0.30774967405E+03  0.39201767441E+03  0.47000000000E+01 0.  1.
         13    1    4    4    0    0  0.77791922460E+02 -0.96472257011E+01 -0.96140265693E+02  0.12404677687E+03  0.00000000000E+00 0. -1.
        -14    1    4    4    0    0  0.18128399240E+03 -0.29565220122E+02 -0.70855261576E+02  0.19687167453E+03  0.00000000000E+00 0.  1.
</event>
<event>
12    1  0.1035051E+000  0.2976448E+03  0.7818608E-02  0.1086514E+00
         21   -1    0    0  501  502  0.00000000000E+00  0.00000000000E+00  0.24762477921E+03  0.24762477921E+03  0.00000000000E+00 0.  1.
         21   -1    0    0  502  503 -0.00000000000E+00 -0.00000000000E+00 -0.35717528918E+03  0.35717528918E+03  0.00000000000E+00 0.  1.
         -6    2    1    2    0  503  0.24158765637E+03  0.22770695564E+02 -0.46536516166E+02  0.30055811202E+03  0.17113278784E+03 0.  0.
        -24    2    3    3    0    0  0.10096699820E+03  0.25153143997E+02  0.38517592267E+02  0.13613142036E+03  0.78874224676E+02 0.  0.
          6    2    1    2  501    0 -0.24158765637E+03 -0.22770695564E+02 -0.63013993799E+02  0.30424195637E+03  0.17236387184E+03 0.  0.
         24    2    5    5    0    0 -0.23074734282E+03 -0.51719996436E+02 -0.19511155995E+02  0.25066806986E+03  0.80836265314E+02 0.  0.
          5    1    5    5  501    0 -0.10840313550E+02  0.28949300872E+02 -0.43502837803E+02  0.53573886510E+02  0.47000000000E+01 0. -1.
        -11    1    6    6    0    0 -0.27223071527E+02 -0.30686847548E+02  0.13977030205E+02  0.43337461960E+02  0.00000000000E+00 0.  1.
         12    1    6    6    0    0 -0.20352427130E+03 -0.21033148888E+02 -0.33488186200E+02  0.20733060790E+03  0.00000000000E+00 0. -1.
         -5    1    3    3    0  503  0.14062065818E+03 -0.23824484338E+01 -0.85054108433E+02  0.16442669165E+03  0.47000000000E+01 0.  1.
         13    1    4    4    0    0  0.10973199530E+03  0.30651316699E+02  0.21096237844E+02  0.11586917303E+03  0.00000000000E+00 0. -1.
        -14    1    4    4    0    0 -0.87649970980E+01 -0.54981727018E+01  0.17421354423E+02  0.20262247336E+02  0.00000000000E+00 0.  1.
</event>
<event>
12    1  0.1035051E+000  0.2649892E+03  0.7818608E-02  0.1104182E+00
         21   -1    0    0  503  502  0.00000000000E+00  0.00000000000E+00  0.92738518606E+03  0.92738518606E+03  0.00000000000E+00 0. -1.
         21   -1    0    0  501  503 -0.00000000000E+00 -0.00000000000E+00 -0.12985683951E+03  0.12985683951E+03  0.00000000000E+00 0. -1.
          6    2    1    2  501    0 -0.19532949584E+03  0.49999648344E+02  0.74008999649E+03  0.78609915296E+03  0.17194504529E+03 0.  0.
         24    2    3    3    0    0 -0.82886119066E+02  0.73251981200E+02  0.50559792977E+03  0.52496163493E+03  0.87860628758E+02 0.  0.
         -6    2    1    2    0  502  0.19532949584E+03 -0.49999648344E+02  0.57438350058E+02  0.27114287260E+03  0.17194684214E+03 0.  0.
        -24    2    5    5    0    0  0.39691041249E+02  0.83260853768E+00  0.58987317458E+02  0.10733891603E+03  0.80411860326E+02 0.  0.
          5    1    3    3  501    0 -0.11244337678E+03 -0.23252332855E+02  0.23449206673E+03  0.26113751803E+03  0.47000000000E+01 0. -1.
        -13    1    4    4    0    0 -0.90008735878E+02  0.36893342954E+02  0.42877716504E+03  0.43967322929E+03  0.00000000000E+00 0.  1.
         14    1    4    4    0    0  0.71226168121E+01  0.36358638246E+02  0.76820764723E+02  0.85288405648E+02  0.00000000000E+00 0. -1.
         -5    1    5    5    0  502  0.15563845459E+03 -0.50832256882E+02 -0.15489673996E+01  0.16380395657E+03  0.47000000000E+01 0.  1.
         13    1    6    6    0    0  0.59474913401E+02 -0.32819750922E+00  0.18541785960E+02  0.62299043847E+02  0.00000000000E+00 0. -1.
        -14    1    6    6    0    0 -0.19783872152E+02  0.11608060469E+01  0.40445531498E+02  0.45039872182E+02  0.00000000000E+00 0.  1.
</event>
<event>
12    1  0.1035051E+000  0.2132029E+03  0.7818608E-02  0.1141059E+00
         21   -1    0    0  501  502  0.00000000000E+00  0.00000000000E+00  0.14706844805E+03  0.14706844805E+03  0.00000000000E+00 0.  1.
         21   -1    0    0  502  503 -0.00000000000E+00 -0.00000000000E+00 -0.36184291551E+03  0.36184291551E+03  0.00000000000E+00 0.  1.
         -6    2    1    2    0  503  0.79742713110E+02 -0.98436317712E+02 -0.21911618795E+03  0.30572433906E+03  0.17148428130E+03 0.  0.
        -24    2    3    3    0    0 -0.41506935082E+01  0.23678302074E+01 -0.54452784094E+02  0.95163881041E+02  0.77898804116E+02 0.  0.
          6    2    1    2  501    0 -0.79742713110E+02  0.98436317712E+02  0.43417204909E+01  0.20318702451E+03  0.15880021238E+03 0.  0.
         24    2    5    5    0    0 -0.58341794517E+02  0.38599032859E+01 -0.29704055039E+02  0.10030893007E+03  0.75900505441E+02 0.  0.
          5    1    5    5  501    0 -0.21400918593E+02  0.94576414426E+02  0.34045775530E+02  0.10287809443E+03  0.47000000000E+01 0. -1.
        -11    1    6    6    0    0 -0.59788607541E+02 -0.46488836560E+01 -0.50112269058E+02  0.78150682793E+02  0.00000000000E+00 0.  1.
         12    1    6    6    0    0  0.14468130244E+01  0.85087869419E+01  0.20408214018E+02  0.22158247281E+02  0.00000000000E+00 0. -1.
         -5    1    3    3    0  503  0.83893406618E+02 -0.10080414792E+03 -0.16466340386E+03  0.21056045802E+03  0.47000000000E+01 0.  1.
         11    1    4    4    0    0 -0.31051458388E+01  0.38576034265E+02 -0.14741303430E+02  0.41413263300E+02  0.00000000000E+00 0. -1.
        -12    1    4    4    0    0 -0.10455476694E+01 -0.36208204058E+02 -0.39711480665E+02  0.53750617742E+02  0.00000000000E+00 0.  1.
</event>
<event>
12    1  0.1035051E+000  0.2329286E+03  0.7818608E-02  0.1124763E+00
         21   -1    0    0  503  502  0.00000000000E+00  0.00000000000E+00  0.54218162422E+03  0.54218162422E+03  0.00000000000E+00 0.  1.
         21   -1    0    0  501  503 -0.00000000000E+00 -0.00000000000E+00 -0.10353430038E+03  0.10353430038E+03  0.00000000000E+00 0.  1.
          6    2    1    2  501    0 -0.12917005945E+03  0.87791409267E+02  0.15726431686E+03  0.28104767303E+03  0.17281057074E+03 0.  0.
         24    2    3    3    0    0 -0.12118413175E+03  0.11000964853E+03  0.77769255022E+02  0.19798757398E+03  0.79770331993E+02 0.  0.
         -6    2    1    2    0  502  0.12917005945E+03 -0.87791409267E+02  0.28138300698E+03  0.36466825157E+03  0.17150598033E+03 0.  0.
        -24    2    5    5    0    0  0.66338148164E+02 -0.20980387132E+02  0.50734266077E+02  0.11640932740E+03  0.78334150946E+02 0.  0.
          5    1    3    3  501    0 -0.79859276941E+01 -0.22218239263E+02  0.79495061840E+02  0.83060099049E+02  0.47000000000E+01 0. -1.
        -11    1    4    4    0    0 -0.39434436183E+02  0.21492239667E+02 -0.13426542715E+02  0.46874973838E+02  0.00000000000E+00 0.  1.
         12    1    4    4    0    0 -0.81749695568E+02  0.88517408863E+02  0.91195797737E+02  0.15111260014E+03  0.00000000000E+00 0. -1.
         -5    1    5    5    0  502  0.62831911282E+02 -0.66811022136E+02  0.23064874090E+03  0.24825892418E+03  0.47000000000E+01 0.  1.
         13    1    6    6    0    0  0.51989869966E+02 -0.36886076203E+02  0.64708209027E+02  0.90833262146E+02  0.00000000000E+00 0. -1.
        -14    1    6    6    0    0  0.14348278198E+02  0.15905689072E+02 -0.13973942950E+02  0.25576065250E+02  0.00000000000E+00 0.  1.
</event>
<event>
12    1  0.1035051E+000  0.1872610E+03  0.7818608E-02  0.1164657E+00
         21   -1    0    0  501  502  0.00000000000E+00  0.00000000000E+00  0.55144694186E+02  0.55144694186E+02  0.00000000000E+00 0. -1.
         21   -1    0    0  502  503 -0.00000000000E+00 -0.00000000000E+00 -0.87480827293E+03  0.87480827293E+03  0.00000000000E+00 0. -1.
         -6    2    1    2    0  503  0.69030601964E+02 -0.30065924902E+02 -0.13050455252E+03  0.21580534341E+03  0.15450347623E+03 0.  0.
        -24    2    3    3    0    0 -0.17586591360E+02 -0.19408749973E+02 -0.74479947971E+02  0.11199320600E+03  0.79430647550E+02 0.  0.
          6    2    1    2  501    0 -0.69030601964E+02  0.30065924902E+02 -0.68915902622E+03  0.71414762370E+03  0.17145693680E+03 0.  0.
         24    2    5    5    0    0 -0.73985933278E+02  0.69340405498E+02 -0.62696926465E+03  0.64027816737E+03  0.81139772277E+02 0.  0.
          5    1    5    5  501    0  0.49553313138E+01 -0.39274480596E+02 -0.62189761572E+02  0.73869456333E+02  0.47000000000E+01 0. -1.
        -11    1    6    6    0    0 -0.39760324168E+02  0.83054930495E+02 -0.41147459438E+03  0.42165192597E+03  0.00000000000E+00 0.  1.
         12    1    6    6    0    0 -0.34225609110E+02 -0.13714524997E+02 -0.21549467027E+03  0.21862624140E+03  0.00000000000E+00 0. -1.
         -5    1    3    3    0  503  0.86617193325E+02 -0.10657174929E+02 -0.56024604552E+02  0.10381213740E+03  0.47000000000E+01 0.  1.
         11    1    4    4    0    0  0.10547574711E+02  0.15943101165E+02  0.57103566182E+01  0.19950989443E+02  0.00000000000E+00 0. -1.
        -12    1    4    4    0    0 -0.28134166072E+02 -0.35351851139E+02 -0.80190304589E+02  0.92042216562E+02  0.00000000000E+00 0.  1.
</event>
<event>
12    1  0.1035051E+000  0.4916734E+03  0.7818608E-02  0.1016004E+00
         21   -1    0    0  501  502  0.00000000000E+00  0.00000000000E+00  0.19989692113E+03  0.19989692113E+03  0.00000000000E+00 0.  1.
         21   -1    0    0  502  503 -0.00000000000E+00 -0.00000000000E+00 -0.13964425206E+04  0.13964425206E+04  0.00000000000E+00 0. -1.
         -6    2    1    2    0  503  0.17259448852E+03  0.42672088945E+03 -0.89147106250E+03  0.10180684649E+04  0.17280963215E+03 0.  0.
        -24    2    3    3    0    0  0.10984131373E+03  0.23667948521E+03 -0.64597950284E+03  0.70130058120E+03  0.80316213687E+02 0.  0.
          6    2    1    2  501    0 -0.17259448852E+03 -0.42672088945E+03 -0.30507453700E+03  0.57827097688E+03  0.17160208220E+03 0.  0.
         24    2    5    5    0    0 -0.15565399132E+03 -0.43611973329E+03 -0.30064166810E+03  0.55784895353E+03  0.79884013294E+02 0.  0.
          5    1    5    5  501    0 -0.16940497205E+02  0.93988438383E+01 -0.44328688991E+01  0.20422023350E+02  0.47000000000E+01 0. -1.
        -11    1    6    6    0    0 -0.79262278243E+02 -0.11443408152E+03 -0.84732139512E+02  0.16296380958E+03  0.00000000000E+00 0.  1.
         12    1    6    6    0    0 -0.76391713076E+02 -0.32168565176E+03 -0.21590952859E+03  0.39488514395E+03  0.00000000000E+00 0. -1.
         -5    1    3    3    0  503  0.62753174797E+02  0.19004140424E+03 -0.24549155966E+03  0.31676788369E+03  0.47000000000E+01 0.  1.
         11    1    4    4    0    0  0.96825821258E+02  0.23225003134E+03 -0.55614366145E+03  0.61041878157E+03  0.00000000000E+00 0. -1.
        -12    1    4    4    0    0  0.13015492468E+02  0.44294538649E+01 -0.89835841390E+02  0.90881799630E+02  0.00000000000E+00 0.  1.
</event>
<event>
12    1  0.1035051E+000  0.2362129E+03  0.7818608E-02  0.1122389E+00
         21   -1    0    0  501  502  0.00000000000E+00  0.00000000000E+00  0.12966616524E+03  0.12966616524E+03  0.00000000000E+00 0. -1.
         21   -1    0    0  502  503 -0.00000000000E+00 -0.00000000000E+00 -0.43340581193E+03  0.43340581193E+03  0.00000000000E+00 0. -1.
         -6    2    1    2    0  503 -0.10743335653E+03 -0.12059260746E+03 -0.17762367441E+03  0.29554476366E+03  0.17237179161E+03 0.  0.
        -24    2    3    3    0    0 -0.49703929836E+01 -0.29918444145E+02 -0.11787111256E+03  0.14616966051E+03  0.80945366574E+02 0.  0.
          6    2    1    2  501    0  0.10743335653E+03  0.12059260746E+03 -0.12611597228E+03  0.26752721351E+03  0.17199147779E+03 0.  0.
         24    2    5    5    0    0  0.22027194565E+01  0.51448224302E+01 -0.54243887272E+02  0.95511619298E+02  0.78413958857E+02 0.  0.
          5    1    5    5  501    0  0.10523063708E+03  0.11544778503E+03 -0.71872085012E+02  0.17201559421E+03  0.47000000000E+01 0. -1.
        -11    1    6    6    0    0  0.24425957038E+02  0.31618189101E+02 -0.44060174777E+02  0.59478031748E+02  0.00000000000E+00 0.  1.
         12    1    6    6    0    0 -0.22223237582E+02 -0.26473366671E+02 -0.10183712495E+02  0.36033587549E+02  0.00000000000E+00 0. -1.
         -5    1    3    3    0  503 -0.10246296355E+03 -0.90674163320E+02 -0.59752561844E+02  0.14937510315E+03  0.47000000000E+01 0.  1.
         13    1    4    4    0    0  0.15874429008E+02 -0.51553616593E+02 -0.91388042293E+02  0.10612043702E+03  0.00000000000E+00 0. -1.
        -14    1    4    4    0    0 -0.20844821991E+02  0.21635172449E+02 -0.26483070271E+02  0.40049223485E+02  0.00000000000E+00 0.  1.
</event>
<event>
12    1  0.1035051E+000  0.2096762E+03  0.7818608E-02  0.1142002E+00
         21   -1    0    0  503  502  0.00000000000E+00  0.00000000000E+00  0.58027388795E+02  0.58027388795E+02  0.00000000000E+00 0. -1.
         21   -1    0    0  501  503 -0.00000000000E+00 -0.00000000000E+00 -0.75558428547E+03  0.75558428547E+03  0.00000000000E+00 0. -1.
          6    2    1    2  501    0 -0.37416198821E+02 -0.10553709208E+03 -0.36566737284E+03  0.42151718263E+03  0.17727396299E+03 0.  0.
         24    2    3    3    0    0 -0.56588886846E+02 -0.13288519066E+02 -0.29033204904E+03  0.30079066441E+03  0.52947504605E+02 0.  0.
         -6    2    1    2    0  502  0.37416198821E+02  0.10553709208E+03 -0.33188952383E+03  0.39209449163E+03  0.17620835564E+03 0.  0.
        -24    2    5    5    0    0 -0.72235513145E+01  0.56100118834E+02 -0.68913797411E+02  0.12077356670E+03  0.81472326064E+02 0.  0.
          5    1    3    3  501    0  0.19172688024E+02 -0.92248573018E+02 -0.75335323806E+02  0.12072651823E+03  0.47000000000E+01 0. -1.
        -13    1    4    4    0    0 -0.35556545296E+02 -0.48207640837E+00 -0.64778412415E+02  0.73896840434E+02  0.00000000000E+00 0.  1.
         14    1    4    4    0    0 -0.21032341550E+02 -0.12806442658E+02 -0.22555363662E+03  0.22689382397E+03  0.00000000000E+00 0. -1.
         -5    1    5    5    0  502  0.44639750136E+02  0.49436973250E+02 -0.26297572642E+03  0.27132092493E+03  0.47000000000E+01 0.  1.
         13    1    6    6    0    0  0.33996252997E+01 -0.20973806500E+02 -0.12274418327E+02  0.24538120477E+02  0.00000000000E+00 0. -1.
        -14    1    6    6    0    0 -0.10623176614E+02  0.77073925334E+02 -0.56639379084E+02  0.96235446228E+02  0.00000000000E+00 0.  1.
</event>
<event>
12    1  0.1035051E+000  0.2539341E+03  0.7818608E-02  0.1112324E+00
         21   -1    0    0  503  502  0.00000000000E+00  0.00000000000E+00  0.23522832231E+03  0.23522832231E+03  0.00000000000E+00 0.  1.
         21   -1    0    0  501  503 -0.00000000000E+00 -0.00000000000E+00 -0.30156824440E+03  0.30156824440E+03  0.00000000000E+00 0.  1.
          6    2    1    2  501    0  0.38455518648E+02  0.17394389066E+03  0.61962126310E+02  0.25229011173E+03  0.16755802389E+03 0.  0.
         24    2    3    3    0    0 -0.38545124595E+02  0.11746252167E+03  0.21915006120E+02  0.14863150892E+03  0.79548018968E+02 0.  0.
         -6    2    1    2    0  502 -0.38455518648E+02 -0.17394389066E+03 -0.12830204840E+03  0.28450645498E+03  0.18096188354E+03 0.  0.
        -24    2    5    5    0    0 -0.95239779740E+02 -0.10949649080E+03 -0.67137922067E+02  0.17895523516E+03  0.80357815242E+02 0.  0.
          5    1    3    3  501    0  0.77000643243E+02  0.56481368983E+02  0.40047120190E+02  0.10365860281E+03  0.47000000000E+01 0. -1.
        -11    1    4    4    0    0  0.84173055385E+01  0.37681122554E+02 -0.23827252798E+02  0.45370210550E+02  0.00000000000E+00 0.  1.
         12    1    4    4    0    0 -0.46962430134E+02  0.79781399118E+02  0.45742258918E+02  0.10326129837E+03  0.00000000000E+00 0. -1.
         -5    1    5    5    0  502  0.56784261092E+02 -0.64447399853E+02 -0.61164126328E+02  0.10555121982E+03  0.47000000000E+01 0.  1.
         11    1    6    6    0    0 -0.78174555540E+02 -0.11434008295E+03 -0.77189745214E+02  0.15856598774E+03  0.00000000000E+00 0. -1.
        -12    1    6    6    0    0 -0.17065224200E+02  0.48435921464E+01  0.10051823147E+02  0.20389247422E+02  0.00000000000E+00 0.  1.
</event>
<event>
12    1  0.1035051E+000  0.1759215E+03  0.7818608E-02  0.1172239E+00
         21   -1    0    0  503  502  0.00000000000E+00  0.00000000000E+00  0.38003376913E+02  0.38003376913E+02  0.00000000000E+00 0. -1.
         21   -1    0    0  501  503 -0.00000000000E+00 -0.00000000000E+00 -0.96529030974E+03  0.96529030974E+03  0.00000000000E+00 0. -1.
          6    2    1    2  501    0 -0.20089180797E+02 -0.36720544662E+02 -0.25824771431E+03  0.31151204660E+03  0.16910322187E+03 0.  0.
         24    2    3    3    0    0 -0.28656228766E+02 -0.62906003804E+02 -0.25999651849E+03  0.28350810229E+03  0.89444450216E+02 0.  0.
         -6    2    1    2    0  502  0.20089180797E+02  0.36720544662E+02 -0.66903921851E+03  0.69178164004E+03  0.17086950580E+03 0.  0.
        -24    2    5    5    0    0 -0.44705013682E+02  0.65746948645E+01 -0.22455231439E+03  0.24156196274E+03  0.76724670633E+02 0.  0.
          5    1    3    3  501    0  0.85670479691E+01  0.26185459142E+02  0.17488041750E+01  0.28003944319E+02  0.47000000000E+01 0. -1.
        -13    1    4    4    0    0 -0.21039289565E+02 -0.59965943008E+00 -0.60229944148E+01  0.21892641654E+02  0.00000000000E+00 0.  1.
         14    1    4    4    0    0 -0.76169392008E+01 -0.62306344374E+02 -0.25397352407E+03  0.26161546063E+03  0.00000000000E+00 0. -1.
         -5    1    5    5    0  502  0.64794194479E+02  0.30145849798E+02 -0.44448690412E+03  0.45021967730E+03  0.47000000000E+01 0.  1.
         11    1    6    6    0    0 -0.43110748347E+02  0.75811544058E+01 -0.23086280820E+03  0.23497584288E+03  0.00000000000E+00 0. -1.
        -12    1    6    6    0    0 -0.15942653347E+01 -0.10064595413E+01  0.63104938087E+01  0.65861198649E+01  0.00000000000E+00 0.  1.
</event>
<event>
12    1  0.1035051E+000  0.2119580E+03  0.7818608E-02  0.1140476E+00
         21   -1    0    0  501  502  0.00000000000E+00  0.00000000000E+00  0.92739645859E+03  0.92739645859E+03  0.00000000000E+00 0.  1.
         21   -1    0    0  502  503 -0.00000000000E+00 -0.00000000000E+00 -0.50525273989E+02  0.50525273989E+02  0.00000000000E+00 0.  1.
         -6    2    1    2    0  503 -0.10837951155E+03  0.55534027316E+02  0.54718650098E+03  0.58598019270E+03  0.17067387812E+03 0.  0.
        -24    2    3    3    0    0 -0.61858221117E+02  0.54268799828E+01  0.14198115218E+03  0.17501982798E+03  0.81347415849E+02 0.  0.
          6    2    1    2  501    0  0.10837951155E+03 -0.55534027316E+02  0.32968468362E+03  0.39194153988E+03  0.17348208367E+03 0.  0.
         24    2    5    5    0    0  0.10298015697E+03  0.23143204342E+02  0.18861104112E+03  0.23025319020E+03  0.79384419943E+02 0.  0.
          5    1    5    5  501    0  0.53993545738E+01 -0.78677231658E+02  0.14107364250E+03  0.16168834968E+03  0.47000000000E+01 0. -1.
        -13    1    6    6    0    0  0.28672218947E+02  0.24133887371E+02  0.13090683664E+03  0.13616585672E+03  0.00000000000E+00 0.  1.
         14    1    6    6    0    0  0.74307938025E+02 -0.99068302846E+00  0.57704204480E+02  0.94087333478E+02  0.00000000000E+00 0. -1.
         -5    1    3    3    0  503 -0.46521290429E+02  0.50107147333E+02  0.40520534880E+03  0.41096036472E+03  0.47000000000E+01 0.  1.
         13    1    4    4    0    0 -0.59920534272E+02  0.32173151130E+02  0.12759251019E+03  0.14458710432E+03  0.00000000000E+00 0. -1.
        -14    1    4    4    0    0 -0.19376868448E+01 -0.26746271148E+02  0.14388641991E+02  0.30432723653E+02  0.00000000000E+00 0.  1.
</event>
<event>
12    1  0.1035051E+000  0.2126063E+03  0.7818608E-02  0.1139645E+00
         21   -1    0    0  501  502  0.00000000000E+00  0.00000000000E+00  0.67780729552E+03  0.67780729552E+03  0.00000000000E+00 0. -1.
         21   -1    0    0  502  503 -0.00000000000E+00 -0.00000000000E+00 -0.78900297032E+02  0.78900297032E+02  0.00000000000E+00 0.  1.
         -6    2    1    2    0  503  0.71236352396E+02  0.10221039215E+03  0.14975227450E+03  0.26005227370E+03  0.17227843503E+03 0.  0.
        -24    2    3    3    0    0  0.20480521322E+02 -0.58293136819E+01  0.10247681242E+03  0.13157740558E+03  0.79735085908E+02 0.  0.
          6    2    1    2  501    0 -0.71236352396E+02 -0.10221039215E+03  0.44915472399E+03  0.49665531885E+03  0.17147873772E+03 0.  0.
         24    2    5    5    0    0 -0.57431582312E+02  0.10167502434E+02  0.23451186746E+03  0.25393529757E+03  0.78009964888E+02 0.  0.
          5    1    5    5  501    0 -0.13804770085E+02 -0.11237789458E+03  0.21464285653E+03  0.24272002127E+03  0.47000000000E+01 0. -1.
        -11    1    6    6    0    0  0.62050103257E+01 -0.11834560550E+02  0.42370898715E+01  0.14018270476E+02  0.00000000000E+00 0.  1.
         12    1    6    6    0    0 -0.63636592638E+02  0.22002062984E+02  0.23027477759E+03  0.23991702710E+03  0.00000000000E+00 0. -1.
         -5    1    3    3    0  503  0.50755831074E+02  0.10803970583E+03  0.47275462076E+02  0.12847486812E+03  0.47000000000E+01 0.  1.
         11    1    4    4    0    0  0.10919239804E+02  0.17468959560E+02  0.10431195672E+03  0.10632675421E+03  0.00000000000E+00 0. -1.
        -12    1    4    4    0    0  0.95612815184E+01 -0.23298273242E+02 -0.18351442971E+01  0.25250651377E+02  0.00000000000E+00 0.  1.
</event>
<event>
12    1  0.1035051E+000  0.1813382E+03  0.7818608E-02  0.1166638E+00
         21   -1    0    0  503  502  0.00000000000E+00  0.00000000000E+00  0.56231686400E+03  0.56231686400E+03  0.00000000000E+00 0.  1.
         21   -1    0    0  501  503 -0.00000000000E+00 -0.00000000000E+00 -0.58315811625E+02  0.58315811625E+02  0.00000000000E+00 0.  1.
          6    2    1    2  501    0 -0.30160015496E+02 -0.47438684633E+02  0.25458205773E+03  0.31256291371E+03  0.17240503349E+03 0.  0.
         24    2    3    3    0    0 -0.53477976779E+02 -0.62302074513E+02  0.26044693906E+03  0.28390746902E+03  0.77649213840E+02 0.  0.
         -6    2    1    2    0  502  0.30160015496E+02  0.47438684633E+02  0.24941899465E+03  0.30806976192E+03  0.17186357376E+03 0.  0.
        -24    2    5    5    0    0  0.10832047409E+02  0.73809372206E+01  0.32127088902E+02  0.86222842223E+02  0.78932991799E+02 0.  0.
          5    1    3    3  501    0  0.23317961283E+02  0.14863389880E+02 -0.58648813298E+01  0.28655444686E+02  0.47000000000E+01 0. -1.
        -11    1    4    4    0    0 -0.17473890920E+02 -0.73000146487E+02  0.18434887289E+03  0.19904488234E+03  0.00000000000E+00 0.  1.
         12    1    4    4    0    0 -0.36004085859E+02  0.10698071974E+02  0.76098066170E+02  0.84862586676E+02  0.00000000000E+00 0. -1.
         -5    1    5    5    0  502  0.19327968087E+02  0.40057747412E+02  0.21729190574E+03  0.22184691970E+03  0.47000000000E+01 0.  1.
         13    1    6    6    0    0 -0.70058625238E+01  0.87034765260E+01  0.55600023527E+02  0.56711508792E+02  0.00000000000E+00 0. -1.
        -14    1    6    6    0    0  0.17837909933E+02 -0.13225393054E+01 -0.23472934624E+02  0.29511333431E+02  0.00000000000E+00 0.  1.
</event>
<event>
12    1  0.1035051E+000  0.1904704E+03  0.7818608E-02  0.1158168E+00
         21   -1    0    0  501  502  0.00000000000E+00  0.00000000000E+00  0.21359943516E+04  0.21359943516E+04  0.00000000000E+00 0.  1.
         21   -1    0    0  502  503 -0.00000000000E+00 -0.00000000000E+00 -0.21823800487E+02  0.21823800487E+02  0.00000000000E+00 0.  1.
         -6    2    1    2    0  503  0.55890834056E+02  0.54600818672E+02  0.15690963214E+04  0.15806145119E+04  0.17370646131E+03 0.  0.
        -24    2    3    3    0    0 -0.19854287711E+02  0.82955162550E+01  0.41446855670E+03  0.42256923235E+03  0.79483100735E+02 0.  0.
          6    2    1    2  501    0 -0.55890834056E+02 -0.54600818672E+02  0.54507422967E+03  0.57720364013E+03  0.17306961490E+03 0.  0.
         24    2    5    5    0    0  0.33960594455E+02 -0.66678127315E+01  0.21930884361E+03  0.23585919677E+03  0.79595289502E+02 0.  0.
          5    1    5    5  501    0 -0.89851428511E+02 -0.47933005941E+02  0.32576538606E+03  0.34134444336E+03  0.47000000000E+01 0. -1.
        -11    1    6    6    0    0  0.33751704493E+02  0.31763662660E+02  0.94269270469E+02  0.10504667142E+03  0.00000000000E+00 0.  1.
         12    1    6    6    0    0  0.20888996160E+00 -0.38431475392E+02  0.12503957314E+03  0.13081252534E+03  0.00000000000E+00 0. -1.
         -5    1    3    3    0  503  0.75745121768E+02  0.46305302417E+02  0.11546277647E+04  0.11580452796E+04  0.47000000000E+01 0.  1.
         11    1    4    4    0    0 -0.22058978281E+02  0.12931620104E+02  0.41632556318E+03  0.41711005728E+03  0.00000000000E+00 0. -1.
        -12    1    4    4    0    0  0.22046905697E+01 -0.46361038487E+01 -0.18570064807E+01  0.54591750726E+01  0.00000000000E+00 0.  1.
</event>
<event>
12    1  0.1035051E+000  0.2034192E+03  0.7818608E-02  0.1147257E+00
         21   -1    0    0  503  502  0.00000000000E+00  0.00000000000E+00  0.73672588772E+02  0.73672588772E+02  0.00000000000E+00 0.  1.
         21   -1    0    0  501  503 -0.00000000000E+00 -0.00000000000E+00 -0.55681011411E+03  0.55681011411E+03  0.00000000000E+00 0.  1.
          6    2    1    2  501    0  0.10681307337E+02  0.10443149425E+03 -0.23893232822E+03  0.31379613215E+03  0.17423928307E+03 0.  0.
         24    2    3    3    0    0  0.35331414368E+02  0.40840205193E+02 -0.22302558278E+03  0.24360642941E+03  0.81776834563E+02 0.  0.
         -6    2    1    2    0  502 -0.10681307337E+02 -0.10443149425E+03 -0.24420519712E+03  0.31668657074E+03  0.17214580584E+03 0.  0.
        -24    2    5    5    0    0  0.20889048025E+02 -0.18682855549E+01 -0.56305746141E+02  0.10025137768E+03  0.80250600372E+02 0.  0.
          5    1    3    3  501    0 -0.24650107030E+02  0.63591289056E+02 -0.15906745439E+02  0.70189702741E+02  0.47000000000E+01 0. -1.
        -13    1    4    4    0    0  0.10275284842E+02 -0.78360701387E+01  0.10262312472E+01  0.12962971279E+02  0.00000000000E+00 0.  1.
         14    1    4    4    0    0  0.25056129526E+02  0.48676275332E+02 -0.22405181403E+03  0.23064345813E+03  0.00000000000E+00 0. -1.
         -5    1    5    5    0  502 -0.31570355362E+02 -0.10256320869E+03 -0.18789945098E+03  0.21643519306E+03  0.47000000000E+01 0.  1.
         11    1    6    6    0    0  0.25274651869E+02 -0.28094273583E+02 -0.62419215706E+02  0.72967490875E+02  0.00000000000E+00 0. -1.
        -12    1    6    6    0    0 -0.43856038435E+01  0.26225988028E+02  0.61134695650E+01  0.27283886806E+02  0.00000000000E+00 0.  1.
</event>
<event>
12    1  0.1035051E+000  0.2284645E+03  0.7818608E-02  0.1127966E+00
         21   -1    0    0  503  502  0.00000000000E+00  0.00000000000E+00  0.19694118627E+03  0.19694118627E+03  0.00000000000E+00 0. -1.
         21   -1    0    0  501  503 -0.00000000000E+00 -0.00000000000E+00 -0.27258854235E+03  0.27258854235E+03  0.00000000000E+00 0. -1.
          6    2    1    2  501    0 -0.80866041862E+02  0.12530803268E+03 -0.80880966768E+02  0.24235873388E+03  0.17307398800E+03 0.  0.
         24    2    3    3    0    0 -0.57718853027E+02  0.15790760200E+03 -0.55580918617E+02  0.19481184432E+03  0.81216620270E+02 0.  0.
         -6    2    1    2    0  502  0.80866041862E+02 -0.12530803268E+03  0.52336106801E+01  0.22717099474E+03  0.17128295417E+03 0.  0.
        -24    2    5    5    0    0 -0.16347372969E+02 -0.40918072668E+02  0.28282023283E+02  0.96306818218E+02  0.80830718915E+02 0.  0.
          5    1    3    3  501    0 -0.23147188835E+02 -0.32599569317E+02 -0.25300048151E+02  0.47546889562E+02  0.47000000000E+01 0. -1.
        -11    1    4    4    0    0 -0.22693845176E+02  0.40352244124E+02  0.20327127243E+02  0.50561905786E+02  0.00000000000E+00 0.  1.
         12    1    4    4    0    0 -0.35025007851E+02  0.11755535787E+03 -0.75908045860E+02  0.14424993853E+03  0.00000000000E+00 0. -1.
         -5    1    5    5    0  502  0.97213414831E+02 -0.84389960012E+02 -0.23048412603E+02  0.13086417652E+03  0.47000000000E+01 0.  1.
         11    1    6    6    0    0 -0.41487853354E+02 -0.92152875816E+01 -0.64467625579E+01  0.42985163122E+02  0.00000000000E+00 0. -1.
        -12    1    6    6    0    0  0.25140480384E+02 -0.31702785087E+02  0.34728785841E+02  0.53321655096E+02  0.00000000000E+00 0.  1.
</event>
<event>
12    1  0.1035051E+000  0.2158203E+03  0.7818608E-02  0.1137099E+00
         21   -1    0    0  503  502  0.00000000000E+00  0.00000000000E+00  0.10605633906E+03  0.10605633906E+03  0.00000000000E+00 0.  1.
         21   -1    0    0  501  503 -0.00000000000E+00 -0.00000000000E+00 -0.44489386263E+03  0.44489386263E+03  0.00000000000E+00 0. -1.
          6    2    1    2  501    0  0.80805261657E+02 -0.10208703985E+03 -0.13660574472E+03  0.25542027363E+03  0.17212534002E+03 0.  0.
         24    2    3    3    0    0  0.62011451702E+02 -0.26097710671E+01 -0.23942720287E+02  0.10388156119E+03  0.79786551829E+02 0.  0.
         -6    2    1    2    0  502 -0.80805261657E+02  0.10208703985E+03 -0.20223177885E+03  0.29552992806E+03  0.17172359180E+03 0.  0.
        -24    2    5    5    0    0 -0.61605130950E+02  0.16404803994E+02 -0.17597450036E+03  0.20376051466E+03  0.80541994061E+02 0.  0.
          5    1    3    3  501    0  0.18793809955E+02 -0.99477268781E+02 -0.11266302443E+03  0.15153871245E+03  0.47000000000E+01 0. -1.
        -13    1    4    4    0    0  0.12082562441E+02 -0.30235066731E+02 -0.32706782511E+02  0.46150635939E+02  0.00000000000E+00 0.  1.
         14    1    4    4    0    0  0.49928889261E+02  0.27625295663E+02  0.87640622244E+01  0.57730925248E+02  0.00000000000E+00 0. -1.
         -5    1    5    5    0  502 -0.19200130707E+02  0.85682235854E+02 -0.26257278497E+02  0.91769413391E+02  0.47000000000E+01 0.  1.
         11    1    6    6    0    0 -0.25051220431E+02 -0.21955459737E+02 -0.12806095674E+03  0.13232238850E+03  0.00000000000E+00 0. -1.
        -12    1    6    6    0    0 -0.36553910519E+02  0.38360263731E+02 -0.47913543611E+02  0.71438126159E+02  0.00000000000E+00 0.  1.
</event>
<event>
12    1  0.1035051E+000  0.2005564E+03  0.7818608E-02  0.1149569E+00
         21   -1    0    0  501  502  0.00000000000E+00  0.00000000000E+00  0.64256403887E+02  0.64256403887E+02  0.00000000000E+00 0.  1.
         21   -1    0    0  502  503 -0.00000000000E+00 -0.00000000000E+00 -0.66805926217E+03  0.66805926217E+03  0.00000000000E+00 0.  1.
         -6    2    1    2    0  503  0.86135621182E+02 -0.53174375446E+02 -0.20431017855E+03  0.28530641511E+03  0.17149414568E+03 0.  0.
        -24    2    3    3    0    0  0.25871813494E+02  0.34630082280E+02 -0.11136705462E+03  0.14387847021E+03  0.80186033713E+02 0.  0.
          6    2    1    2  501    0 -0.86135621182E+02  0.53174375446E+02 -0.39949267973E+03  0.44700925094E+03  0.17313581325E+03 0.  0.
         24    2    5    5    0    0 -0.10289148864E+03 -0.11494278446E+02 -0.29219389429E+03  0.32052639342E+03  0.81493068087E+02 0.  0.
          5    1    5    5  501    0  0.16755867460E+02  0.64668653892E+02 -0.10729878543E+03  0.12648285752E+03  0.47000000000E+01 0. -1.
        -13    1    6    6    0    0  0.39169481824E+01 -0.22005991379E+02 -0.75044894287E+02  0.78302888185E+02  0.00000000000E+00 0.  1.
         14    1    6    6    0    0 -0.10680843682E+03  0.10511712933E+02 -0.21714900001E+03  0.24222350524E+03  0.00000000000E+00 0. -1.
         -5    1    3    3    0  503  0.60263807688E+02 -0.87804457726E+02 -0.92943123930E+02  0.14142794490E+03  0.47000000000E+01 0.  1.
         11    1    4    4    0    0  0.54390539663E+02  0.21879033857E+02 -0.83434274913E+02  0.10197206067E+03  0.00000000000E+00 0. -1.
        -12    1    4    4    0    0 -0.28518726169E+02  0.12751048423E+02 -0.27932779711E+02  0.41906409540E+02  0.00000000000E+00 0.  1.
</event>
<event>
12    1  0.1035051E+000  0.2396778E+03  0.7818608E-02  0.1120029E+00
         21   -1    0    0  503  502  0.00000000000E+00  0.00000000000E+00  0.57078462574E+02  0.57078462574E+02  0.00000000000E+00 0.  1.
         21   -1    0    0  501  503 -0.00000000000E+00 -0.00000000000E+00 -0.10521884756E+04  0.10521884756E+04  0.00000000000E+00 0.  1.
          6    2    1    2  501    0 -0.15882072047E+03  0.48587192195E+02 -0.38108169159E+03  0.45011882164E+03  0.17262375687E+03 0.  0.
         24    2    3    3    0    0 -0.99829769752E+02 -0.40124800160E+02 -0.20648122336E+03  0.24552858884E+03  0.77934650942E+02 0.  0.
         -6    2    1    2    0  502  0.15882072047E+03 -0.48587192195E+02 -0.61402832147E+03  0.65914811657E+03  0.17280255643E+03 0.  0.
        -24    2    5    5    0    0  0.18544925994E+03 -0.32092047443E+02 -0.49003510462E+03  0.53117320989E+03  0.81174180738E+02 0.  0.
          5    1    3    3  501    0 -0.58990950718E+02  0.88711992355E+02 -0.17460046823E+03  0.20459023280E+03  0.47000000000E+01 0. -1.
        -13    1    4    4    0    0 -0.35196672954E+02 -0.48566653186E+02 -0.14056403257E+03  0.15282595605E+03  0.00000000000E+00 0.  1.
         14    1    4    4    0    0 -0.64633096798E+02  0.84418530251E+01 -0.65917190790E+02  0.92702632788E+02  0.00000000000E+00 0. -1.
         -5    1    5    5    0  502 -0.26628539474E+02 -0.16495144752E+02 -0.12399321685E+03  0.12797490668E+03  0.47000000000E+01 0.  1.
         13    1    6    6    0    0  0.78850135920E+02 -0.12293589867E+02 -0.31769476991E+03  0.32756441063E+03  0.00000000000E+00 0. -1.
        -14    1    6    6    0    0  0.10659912402E+03 -0.19798457576E+02 -0.17234033472E+03  0.20360879926E+03  0.00000000000E+00 0.  1.
</event>
<event>
12    1  0.1035051E+000  0.2814897E+03  0.7818608E-02  0.1095308E+00
         21   -1    0    0  501  502  0.00000000000E+00  0.00000000000E+00  0.48508658790E+02  0.48508658790E+02  0.00000000000E+00 0.  1.
         21   -1    0    0  502  503 -0.00000000000E+00 -0.00000000000E+00 -0.19866644475E+04  0.19866644475E+04  0.00000000000E+00 0.  1.
         -6    2    1    2    0  503 -0.10865658781E+03  0.19429430023E+03 -0.52464357942E+03  0.59390518915E+03  0.16708069635E+03 0.  0.
        -24    2    3    3    0    0 -0.34479780660E+01  0.12347054003E+03 -0.33577529681E+03  0.36635700799E+03  0.78838724913E+02 0.  0.
          6    2    1    2  501    0  0.10865658781E+03 -0.19429430023E+03 -0.14135122093E+04  0.14412679171E+04  0.17227859411E+03 0.  0.
         24    2    5    5    0    0  0.85934584905E+02 -0.15599827305E+03 -0.70107298891E+03  0.72742297050E+03  0.76945618129E+02 0.  0.
          5    1    5    5  501    0  0.22722002908E+02 -0.38296027182E+02 -0.71243922037E+03  0.71384494663E+03  0.47000000000E+01 0. -1.
        -13    1    6    6    0    0  0.46335157934E+02 -0.17632026220E+02 -0.20366245338E+03  0.20960970905E+03  0.00000000000E+00 0.  1.
         14    1    6    6    0    0  0.39599426971E+02 -0.13836624683E+03 -0.49741053553E+03  0.51781326145E+03  0.00000000000E+00 0. -1.
         -5    1    3    3    0  503 -0.10520860975E+03  0.70823760201E+02 -0.18886828261E+03  0.22754818116E+03  0.47000000000E+01 0.  1.
         13    1    4    4    0    0 -0.26436081573E+02  0.11065277573E+03 -0.22054760346E+03  0.24816153726E+03  0.00000000000E+00 0. -1.
        -14    1    4    4    0    0  0.22988103507E+02  0.12817764299E+02 -0.11522769335E+03  0.11819547073E+03  0.00000000000E+00 0.  1.
</event>
<event>
12    1  0.1035051E+000  0.2678334E+03  0.7818608E-02  0.1102545E+00
         21   -1    0    0  501  502  0.00000000000E+00  0.00000000000E+00  0.57560224903E+03  0.57560224903E+03  0.00000000000E+00 0.  1.
         21   -1    0    0  502  503 -0.00000000000E+00 -0.00000000000E+00 -0.15356063705E+03  0.15356063705E+03  0.00000000000E+00 0.  1.
         -6    2    1    2    0  503  0.57325672871E+02 -0.19707949515E+03  0.52554767033E+02  0.27281298354E+03  0.17186727516E+03 0.  0.
        -24    2    3    3    0    0 -0.30332848944E+02 -0.13552810267E+03  0.21117072742E+02  0.16108559663E+03  0.78833307314E+02 0.  0.
          6    2    1    2  501    0 -0.57325672871E+02  0.19707949515E+03  0.36948684494E+03  0.45634990254E+03  0.17207017402E+03 0.  0.
         24    2    5    5    0    0 -0.93392280212E+01  0.13571206049E+03  0.12982107513E+03  0.20429746327E+03  0.79868375513E+02 0.  0.
          5    1    5    5  501    0 -0.47986444849E+02  0.61367434665E+02  0.23966576981E+03  0.25205243928E+03  0.47000000000E+01 0. -1.
        -11    1    6    6    0    0 -0.44494313515E+02  0.82810357081E+02  0.72122914097E+02  0.11848634484E+03  0.00000000000E+00 0.  1.
         12    1    6    6    0    0  0.35155085494E+02  0.52901703408E+02  0.57698161036E+02  0.85811118431E+02  0.00000000000E+00 0. -1.
         -5    1    3    3    0  503  0.87658521815E+02 -0.61551392483E+02  0.31437694291E+02  0.11172738691E+03  0.47000000000E+01 0.  1.
         13    1    4    4    0    0  0.34473923280E+00 -0.11882374299E+03  0.34417592304E+02  0.12370841282E+03  0.00000000000E+00 0. -1.
        -14    1    4    4    0    0 -0.30677588177E+02 -0.16704359680E+02 -0.13300519562E+02  0.37377183807E+02  0.00000000000E+00 0.  1.
</event>
<event>
12    1  0.1035051E+000  0.2574813E+03  0.7818608E-02  0.1108728E+00
         21   -1    0    0  501  502  0.00000000000E+00  0.00000000000E+00  0.23595761319E+03  0.23595761319E+03  0.00000000000E+00 0.  1.
         21   -1    0    0  502  503 -0.00000000000E+00 -0.00000000000E+00 -0.58190856158E+03  0.58190856158E+03  0.00000000000E+00 0.  1.
         -6    2    1    2    0  503 -0.18245902901E+03 -0.55241417737E+02  0.12138880598E+03  0.28429042105E+03  0.17246127038E+03 0.  0.
        -24    2    3    3    0    0 -0.19878052073E+03 -0.76989939298E+02  0.10138067383E+03  0.25020516567E+03  0.82966485556E+02 0.  0.
          6    2    1    2  501    0  0.18245902901E+03  0.55241417737E+02 -0.46733975437E+03  0.53357575372E+03  0.17307145186E+03 0.  0.
         24    2    5    5    0    0  0.48796770362E+02  0.65064757976E+02 -0.14497479357E+03  0.18442914362E+03  0.79886611619E+02 0.  0.
          5    1    5    5  501    0  0.13366225864E+03 -0.98233402393E+01 -0.32236496079E+03  0.34914661010E+03  0.47000000000E+01 0. -1.
        -13    1    6    6    0    0  0.54559388352E+02  0.98070243953E+01 -0.51358457681E+02  0.75568483909E+02  0.00000000000E+00 0.  1.
         14    1    6    6    0    0 -0.57626179902E+01  0.55257733581E+02 -0.93616335893E+02  0.10886065971E+03  0.00000000000E+00 0. -1.
         -5    1    3    3    0  503  0.16321491721E+02  0.21748521562E+02  0.20008132152E+02  0.34085255380E+02  0.47000000000E+01 0.  1.
         11    1    4    4    0    0 -0.98191212370E+02 -0.79944588889E+02  0.42234546329E+02  0.13347811949E+03  0.00000000000E+00 0. -1.
        -12    1    4    4    0    0 -0.10058930836E+03  0.29546495904E+01  0.59146127504E+02  0.11672704618E+03  0.00000000000E+00 0.  1.
</event>
<event>
12    1  0.1035051E+000  0.3666888E+03  0.7818608E-02  0.1055986E+00
         21   -1    0    0  503  502  0.00000000000E+00  0.00000000000E+00  0.43291475274E+03  0.43291475274E+03  0.00000000000E+00 0. -1.
         21   -1    0    0  501  503 -0.00000000000E+00 -0.00000000000E+00 -0.39102363545E+03  0.39102363545E+03  0.00000000000E+00 0.  1.
          6    2    1    2  501    0  0.29258821111E+03 -0.13845046919E+03 -0.16608716334E+03  0.40254888975E+03  0.17229123342E+03 0.  0.
         24    2    3    3    0    0  0.28500611521E+03 -0.16265948432E+03 -0.16161986932E+03  0.37636470926E+03  0.88559689845E+02 0.  0.
         -6    2    1    2    0  502 -0.29258821111E+03  0.13845046919E+03  0.20797828064E+03  0.42138949844E+03  0.17186550114E+03 0.  0.
        -24    2    5    5    0    0 -0.28466184510E+03  0.15104226383E+03  0.15548750234E+03  0.36662863307E+03  0.79962864403E+02 0.  0.
          5    1    3    3  501    0  0.75820958910E+01  0.24209015135E+02 -0.44672940216E+01  0.26184180488E+02  0.47000000000E+01 0. -1.
        -13    1    4    4    0    0  0.16240099711E+03 -0.69532724175E+02 -0.42500432491E+02  0.18170077148E+03  0.00000000000E+00 0.  1.
         14    1    4    4    0    0  0.12260511810E+03 -0.93126760149E+02 -0.11911943683E+03  0.19466393778E+03  0.00000000000E+00 0. -1.
         -5    1    5    5    0  502 -0.79263660074E+01 -0.12591794638E+02  0.52490778295E+02  0.54760865372E+02  0.47000000000E+01 0.  1.
         11    1    6    6    0    0 -0.70575886952E+02  0.17706546419E+01  0.25509776496E+02  0.75065569563E+02  0.00000000000E+00 0. -1.
        -12    1    6    6    0    0 -0.21408595815E+03  0.14927160918E+03  0.12997772584E+03  0.29156306350E+03  0.00000000000E+00 0.  1.
</event>
<event>
12    1  0.1035051E+000  0.1765874E+03  0.7818608E-02  0.1171737E+00
         21   -1    0    0  503  502  0.00000000000E+00  0.00000000000E+00  0.66633720812E+03  0.66633720812E+03  0.00000000000E+00 0. -1.
         21   -1    0    0  501  503 -0.00000000000E+00 -0.00000000000E+00 -0.49843034185E+02  0.49843034185E+02  0.00000000000E+00 0. -1.
          6    2    1    2  501    0  0.24700904110E+02 -0.28033062645E+02  0.40347628372E+03  0.43948597286E+03  0.17017291662E+03 0.  0.
         24    2    3    3    0    0 -0.46470006792E+02  0.69701307511E+01  0.21330991586E+03  0.23338924904E+03  0.82227593345E+02 0.  0.
         -6    2    1    2    0  502 -0.24700904110E+02  0.28033062645E+02  0.21301789021E+03  0.27669426944E+03  0.17258942588E+03 0.  0.
        -24    2    5    5    0    0 -0.60921582030E+02  0.68169762947E+02  0.11752568476E+03  0.16685919525E+03  0.75307029714E+02 0.  0.
          5    1    3    3  501    0  0.71170910903E+02 -0.35003193396E+02  0.19016636786E+03  0.20609672383E+03  0.47000000000E+01 0. -1.
        -11    1    4    4    0    0 -0.14068591539E+02 -0.26627260945E+02  0.15878028526E+03  0.16161099988E+03  0.00000000000E+00 0.  1.
         12    1    4    4    0    0 -0.32401415253E+02  0.33597391696E+02  0.54529630598E+02  0.71778249159E+02  0.00000000000E+00 0. -1.
         -5    1    5    5    0  502  0.36220677920E+02 -0.40136700302E+02  0.95492205451E+02  0.10983507419E+03  0.47000000000E+01 0.  1.
         13    1    6    6    0    0  0.52298961933E+01  0.17624682517E+02  0.66996833254E+02  0.69473425957E+02  0.00000000000E+00 0. -1.
        -14    1    6    6    0    0 -0.66151478224E+02  0.50545080430E+02  0.50528851509E+02  0.97385769297E+02  0.00000000000E+00 0.  1.
</event>
<event>
12    1  0.1035051E+000  0.2128389E+03  0.7818608E-02  0.1139419E+00
         21   -1    0    0  501  502  0.00000000000E+00  0.00000000000E+00  0.45559382980E+03  0.45559382980E+03  0.00000000000E+00 0. -1.
         21   -1    0    0  502  503 -0.00000000000E+00 -0.00000000000E+00 -0.18547799613E+03  0.18547799613E+03  0.00000000000E+00 0. -1.
         -6    2    1    2    0  503  0.58966636348E+02  0.11052924211E+03  0.35355584467E+03  0.41246160981E+03  0.17154902127E+03 0.  0.
        -24    2    3    3    0    0  0.82270934761E+02  0.49979847989E+02  0.30055445407E+03  0.32855358362E+03  0.91367311097E+02 0.  0.
          6    2    1    2  501    0 -0.58966636348E+02 -0.11052924211E+03 -0.83440011003E+02  0.22861021613E+03  0.17206573720E+03 0.  0.
         24    2    5    5    0    0  0.17236098735E+02 -0.22586196181E+02  0.12823909883E+01  0.84593510285E+02  0.79669304617E+02 0.  0.
          5    1    5    5  501    0 -0.76202735083E+02 -0.87943045932E+02 -0.84722401991E+02  0.14401670584E+03  0.47000000000E+01 0. -1.
        -11    1    6    6    0    0  0.14211232371E+02 -0.37750241039E+02  0.31147521136E+02  0.50962808959E+02  0.00000000000E+00 0.  1.
         12    1    6    6    0    0  0.30248663643E+01  0.15164044858E+02 -0.29865130148E+02  0.33630701327E+02  0.00000000000E+00 0. -1.
         -5    1    3    3    0  503 -0.23304298413E+02  0.60549394124E+02  0.53001390605E+02  0.83908026192E+02  0.47000000000E+01 0.  1.
         11    1    4    4    0    0 -0.18590310167E+02  0.14636885959E+01  0.67314575197E+02  0.69849796352E+02  0.00000000000E+00 0. -1.
        -12    1    4    4    0    0  0.10086124493E+03  0.48516159393E+02  0.23323987887E+03  0.25870378727E+03  0.00000000000E+00 0.  1.
</event>
<event>
12    1  0.1035051E+000  0.3060310E+03  0.7818608E-02  0.1082885E+00
         21   -1    0    0  503  502  0.00000000000E+00  0.00000000000E+00  0.15066889892E+03  0.15066889892E+03  0.00000000000E+00 0. -1.
         21   -1    0    0  501  503 -0.00000000000E+00 -0.00000000000E+00 -0.63053057163E+03  0.63053057163E+03  0.00000000000E+00 0. -1.
          6    2    1    2  501    0 -0.75982442027E+02 -0.24159107747E+03 -0.16992834023E+03  0.34563818486E+03  0.16263620079E+03 0.  0.
         24    2    3    3    0    0 -0.10073155092E+03 -0.12868832415E+03 -0.13366680330E+03  0.22440890144E+03  0.76059257263E+02 0.  0.
         -6    2    1    2    0  502  0.75982442027E+02  0.24159107747E+03 -0.30993333247E+03  0.43556128569E+03  0.17180041562E+03 0.  0.
        -24    2    5    5    0    0  0.84593980805E+02  0.17607329398E+03 -0.30274066628E+03  0.36892373622E+03  0.79340189596E+02 0.  0.
          5    1    3    3  501    0  0.24749108897E+02 -0.11290275331E+03 -0.36261536936E+02  0.12122928342E+03  0.47000000000E+01 0. -1.
        -11    1    4    4    0    0 -0.76907708344E+02 -0.53321178744E+02 -0.39802081118E+02  0.10169635867E+03  0.00000000000E+00 0.  1.
         12    1    4    4    0    0 -0.23823842580E+02 -0.75367145410E+02 -0.93864722180E+02  0.12271254277E+03  0.00000000000E+00 0. -1.
         -5    1    5    5    0  502 -0.86115387782E+01  0.65517783487E+02 -0.71926661987E+01  0.66637549477E+02  0.47000000000E+01 0.  1.
         11    1    6    6    0    0  0.91211492881E+02  0.10401825545E+03 -0.19244408369E+03  0.23701067328E+03  0.00000000000E+00 0. -1.
        -12    1    6    6    0    0 -0.66175120752E+01  0.72055038530E+02 -0.11029658259E+03  0.13191306294E+03  0.00000000000E+00 0.  1.
</event>
<event>
12    1  0.1035051E+000  0.1744369E+03  0.7818608E-02  0.1173444E+00
         21   -1    0    0  501  502  0.00000000000E+00  0.00000000000E+00  0.12645361456E+03  0.12645361456E+03  0.00000000000E+00 0.  1.
         21   -1    0    0  502  503 -0.00000000000E+00 -0.00000000000E+00 -0.25858373975E+03  0.25858373975E+03  0.00000000000E+00 0.  1.
         -6    2    1    2    0  503 -0.91648072021E+01 -0.28068528408E+02 -0.11780536012E+03  0.21001328993E+03  0.17133488582E+03 0.  0.
        -24    2    3    3    0    0  0.63369554999E+02 -0.34603359605E+02 -0.78016079335E+02  0.12689160453E+03  0.69295581890E+02 0.  0.
          6    2    1    2  501    0  0.91648072021E+01  0.28068528408E+02 -0.14324765067E+02  0.17502406437E+03  0.17191971451E+03 0.  0.
         24    2    5    5    0    0 -0.10378509623E+02 -0.47513835533E+02  0.12950243400E+02  0.92195017180E+02  0.77245934260E+02 0.  0.
          5    1    5    5  501    0  0.19543316826E+02  0.75582363941E+02 -0.27275008467E+02  0.82829047190E+02  0.47000000000E+01 0. -1.
        -11    1    6    6    0    0  0.10576905512E+02 -0.43998701879E+02 -0.22750737834E+02  0.50649311636E+02  0.00000000000E+00 0.  1.
         12    1    6    6    0    0 -0.20955415135E+02 -0.35151336539E+01  0.35700981234E+02  0.41545705544E+02  0.00000000000E+00 0. -1.
         -5    1    3    3    0  503 -0.72534362201E+02  0.65348311969E+01 -0.39789280785E+02  0.83121685402E+02  0.47000000000E+01 0.  1.
         11    1    4    4    0    0  0.10624513687E+02 -0.44669571121E+02 -0.29917158004E+02  0.54802255594E+02  0.00000000000E+00 0. -1.
        -12    1    4    4    0    0  0.52745041312E+02  0.10066211515E+02 -0.48098921331E+02  0.72089348939E+02  0.00000000000E+00 0.  1.
</event>
<event>
12    1  0.1035051E+000  0.2147340E+03  0.7818608E-02  0.1138030E+00
         21   -1    0    0  503  502  0.00000000000E+00  0.00000000000E+00  0.19806765221E+03  0.19806765221E+03  0.00000000000E+00 0. -1.
         21   -1    0    0  501  503 -0.00000000000E+00 -0.00000000000E+00 -0.30033231028E+03  0.30033231028E+03  0.00000000000E+00 0. -1.
          6    2    1    2  501    0 -0.91608733464E+02 -0.89423386466E+02  0.67887874940E+02  0.22442447568E+03  0.17137350911E+03 0.  0.
         24    2    3    3    0    0  0.20055098392E+01 -0.74935687129E+02  0.72198040894E+02  0.12948140056E+03  0.77029193867E+02 0.  0.
         -6    2    1    2    0  502  0.91608733464E+02  0.89423386466E+02 -0.17015253301E+03  0.27397548682E+03  0.17240064036E+03 0.  0.
        -24    2    5    5    0    0  0.94562437592E+02  0.42411699461E+02 -0.18305356132E+03  0.22491073761E+03  0.79595393894E+02 0.  0.
          5    1    3    3  501    0 -0.93614243303E+02 -0.14487699337E+02 -0.43101659547E+01  0.94943075112E+02  0.47000000000E+01 0. -1.
        -13    1    4    4    0    0 -0.20333352457E+02 -0.54379836482E+02  0.81801253192E+01  0.58630421184E+02  0.00000000000E+00 0.  1.
         14    1    4    4    0    0  0.22338862296E+02 -0.20555850646E+02  0.64017915575E+02  0.70850979380E+02  0.00000000000E+00 0. -1.
         -5    1    5    5    0  502 -0.29537041281E+01  0.47011687004E+02  0.12901028309E+02  0.49064749205E+02  0.47000000000E+01 0.  1.
         13    1    6    6    0    0  0.62922134657E+02 -0.40751573999E+01 -0.14174186734E+03  0.15513400303E+03  0.00000000000E+00 0. -1.
        -14    1    6    6    0    0  0.31640302934E+02  0.46486856861E+02 -0.41311693974E+02  0.69776734587E+02  0.00000000000E+00 0.  1.
</event>
<event>
12    1  0.1035051E+000  0.1946852E+03  0.7818608E-02  0.1156391E+00
         21   -1    0    0  503  502  0.00000000000E+00  0.00000000000E+00  0.90309961451E+03  0.90309961451E+03  0.00000000000E+00 0. -1.
         21   -1    0    0  501  503 -0.00000000000E+00 -0.00000000000E+00 -0.40951220604E+02  0.40951220604E+02  0.00000000000E+00 0. -1.
          6    2    1    2  501    0  0.63804038088E+02 -0.22886039939E+02  0.36890048333E+03  0.41712094278E+03  0.18250366627E+03 0.  0.
         24    2    3    3    0    0  0.11370427567E+03 -0.43937863291E+01  0.29147268612E+03  0.32305101700E+03  0.80359599101E+02 0.  0.
         -6    2    1    2    0  502 -0.63804038088E+02  0.22886039939E+02  0.49324791057E+03  0.52692989233E+03  0.17253082058E+03 0.  0.
        -24    2    5    5    0    0 -0.33218096502E+02 -0.89853654196E+01  0.96794132628E+02  0.12799509271E+03  0.76350906478E+02 0.  0.
          5    1    3    3  501    0 -0.49900237585E+02 -0.18492253610E+02  0.77427797216E+02  0.94069925780E+02  0.47000000000E+01 0. -1.
        -13    1    4    4    0    0  0.63168465119E+02  0.30142638875E+02  0.20856639843E+03  0.21999721866E+03  0.00000000000E+00 0.  1.
         14    1    4    4    0    0  0.50535810555E+02 -0.34536425205E+02  0.82906287687E+02  0.10305379834E+03  0.00000000000E+00 0. -1.
         -5    1    5    5    0  502 -0.30585941586E+02  0.31871405358E+02  0.39645377794E+03  0.39893479962E+03  0.47000000000E+01 0.  1.
         11    1    6    6    0    0 -0.14928603621E+02 -0.36936441784E+02  0.82591426700E+02  0.91697915473E+02  0.00000000000E+00 0. -1.
        -12    1    6    6    0    0 -0.18289492881E+02  0.27951076365E+02  0.14202705928E+02  0.36297177238E+02  0.00000000000E+00 0.  1.
</event>
<event>
12    1  0.1035051E+000  0.3346897E+03  0.7818608E-02  0.1069090E+00
         21   -1    0    0  503  502  0.00000000000E+00  0.00000000000E+00  0.35648155978E+03  0.35648155978E+03  0.00000000000E+00 0.  1.
         21   -1    0    0  501  503 -0.00000000000E+00 -0.00000000000E+00 -0.33501902078E+03  0.33501902078E+03  0.00000000000E+00 0.  1.
          6    2    1    2  501    0 -0.24526990224E+03  0.14837607485E+03  0.97036182925E+02  0.34838462491E+03  0.17257763918E+03 0.  0.
         24    2    3    3    0    0 -0.15729148627E+03  0.16797263629E+03  0.58858398612E+02  0.25038533863E+03  0.79202831495E+02 0.  0.
         -6    2    1    2    0  502  0.24526990224E+03 -0.14837607485E+03 -0.75573643928E+02  0.34311595565E+03  0.17275531492E+03 0.  0.
        -24    2    5    5    0    0  0.26244219549E+03 -0.12025133886E+03 -0.77384934885E+02  0.30978040099E+03  0.81481152544E+02 0.  0.
          5    1    3    3  501    0 -0.87978415972E+02 -0.19596561444E+02  0.38177784313E+02  0.97999286285E+02  0.47000000000E+01 0. -1.
        -13    1    4    4    0    0  0.23563711343E+01  0.27542377604E+02 -0.56061432388E+01  0.28205742164E+02  0.00000000000E+00 0.  1.
         14    1    4    4    0    0 -0.15964785741E+03  0.14043025869E+03  0.64464541851E+02  0.22217959647E+03  0.00000000000E+00 0. -1.
         -5    1    5    5    0  502 -0.17172293245E+02 -0.28124735992E+02  0.18112909575E+01  0.33335554665E+02  0.47000000000E+01 0.  1.
         13    1    6    6    0    0  0.14269191572E+03 -0.22011997108E+02 -0.47823780317E+02  0.15209413136E+03  0.00000000000E+00 0. -1.
        -14    1    6    6    0    0  0.11975027977E+03 -0.98239341748E+02 -0.29561154569E+02  0.15768626963E+03  0.00000000000E+00 0.  1.
</event>
<event>
12    1  0.1035051E+000  0.2238740E+03  0.7818608E-02  0.1131057E+00
         21   -1    0    0  501  502  0.00000000000E+00  0.00000000000E+00  0.24476523759E+02  0.24476523759E+02  0.00000000000E+00 0. -1.
         21   -1    0    0  502  503 -0.00000000000E+00 -0.00000000000E+00 -0.21233210231E+04  0.21233210231E+04  0.00000000000E+00 0. -1.
         -6    2    1    2    0  503 -0.86826630533E+02  0.11317439091E+03 -0.12537558526E+04  0.12735582156E+04  0.17233538224E+03 0.  0.
        -24    2    3    3    0    0 -0.87100112123E+02  0.14650576463E+03 -0.11152518662E+04  0.11310222569E+04  0.79838912264E+02 0.  0.
          6    2    1    2  501    0  0.86826630533E+02 -0.11317439091E+03 -0.84508864674E+03  0.87423933129E+03  0.17254646043E+03 0.  0.
         24    2    5    5    0    0  0.42037560268E+02  0.63388502196E+01 -0.44836925148E+03  0.45746859792E+03  0.80219666651E+02 0.  0.
          5    1    5    5  501    0  0.44789070264E+02 -0.11951324113E+03 -0.39671939526E+03  0.41677073337E+03  0.47000000000E+01 0. -1.
        -13    1    6    6    0    0 -0.13173331276E+02  0.33470263179E+00 -0.12792466311E+02  0.18365616709E+02  0.00000000000E+00 0.  1.
         14    1    6    6    0    0  0.55210891545E+02  0.60041475879E+01 -0.43557678517E+03  0.43910298121E+03  0.00000000000E+00 0. -1.
         -5    1    3    3    0  503  0.27348159012E+00 -0.33331373724E+02 -0.13850398640E+03  0.14253595867E+03  0.47000000000E+01 0.  1.
         13    1    4    4    0    0 -0.35107210404E+02  0.11585834012E+03 -0.87357372445E+03  0.88192217528E+03  0.00000000000E+00 0. -1.
        -14    1    4    4    0    0 -0.51992901719E+02  0.30647424511E+02 -0.24167814175E+03  0.24910008161E+03  0.00000000000E+00 0.  1.
</event>
<event>
12    1  0.1035051E+000  0.1927311E+03  0.7818608E-02  0.1156170E+00
         21   -1    0    0  503  502  0.00000000000E+00  0.00000000000E+00  0.12185800547E+04  0.12185800547E+04  0.00000000000E+00 0. -1.
         21   -1    0    0  501  503 -0.00000000000E+00 -0.00000000000E+00 -0.31548136943E+02  0.31548136943E+02  0.00000000000E+00 0. -1.
          6    2    1    2  501    0  0.37980435038E+02  0.79555103279E+02  0.71499064297E+03  0.74051123438E+03  0.17138769151E+03 0.  0.
         24    2    3    3    0    0 -0.11409259274E+02  0.97492305073E+02  0.60688693485E+03  0.62022163872E+03  0.82025658836E+02 0.  0.
         -6    2    1    2    0  502 -0.37980435038E+02 -0.79555103279E+02  0.47204127479E+03  0.50961695726E+03  0.17063103506E+03 0.  0.
        -24    2    5    5    0    0  0.95111237945E+01 -0.13969910677E+02  0.10210858300E+03  0.13089654311E+03  0.80138145689E+02 0.  0.
          5    1    3    3  501    0  0.49389694313E+02 -0.17937201794E+02  0.10810370813E+03  0.12028959566E+03  0.47000000000E+01 0. -1.
        -11    1    4    4    0    0 -0.47825562353E+01  0.38700391483E+02  0.46309153051E+03  0.46473041516E+03  0.00000000000E+00 0.  1.
         12    1    4    4    0    0 -0.66267030391E+01  0.58791913590E+02  0.14379540434E+03  0.15549122356E+03  0.00000000000E+00 0. -1.
         -5    1    5    5    0  502 -0.47491558833E+02 -0.65585192603E+02  0.36993269178E+03  0.37872041416E+03  0.47000000000E+01 0.  1.
         13    1    6    6    0    0  0.19376553685E+02 -0.23317612647E+02  0.11072767461E+03  0.11480322215E+03  0.00000000000E+00 0. -1.
        -14    1    6    6    0    0 -0.98654298908E+01  0.93477019703E+01 -0.86190916102E+01  0.16093320951E+02  0.00000000000E+00 0.  1.
</event>
<event>
12    1  0.1035051E+000  0.1978583E+03  0.7818608E-02  0.1151726E+00
         21   -1    0    0  501  502  0.00000000000E+00  0.00000000000E+00  0.57407885262E+03  0.57407885262E+03  0.00000000000E+00 0. -1.
         21   -1    0    0  502  503 -0.00000000000E+00 -0.00000000000E+00 -0.68547803145E+02  0.68547803145E+02  0.00000000000E+00 0. -1.
         -6    2    1    2    0  503 -0.79967661025E+02  0.53796072179E+02  0.22258659373E+03  0.29781322517E+03  0.17279780435E+03 0.  0.
        -24    2    3    3    0    0  0.13817558576E+02 -0.72087514861E+01  0.12571339168E+03  0.14974647265E+03  0.79857737265E+02 0.  0.
          6    2    1    2  501    0  0.79967661025E+02 -0.53796072179E+02  0.28294445574E+03  0.34481343059E+03  0.17190082225E+03 0.  0.
         24    2    5    5    0    0  0.11850577829E+03 -0.18913582406E+02  0.21966658856E+03  0.26278811103E+03  0.80017736036E+02 0.  0.
          5    1    5    5  501    0 -0.38538117261E+02 -0.34882489773E+02  0.63277867182E+02  0.82025319566E+02  0.47000000000E+01 0. -1.
        -11    1    6    6    0    0  0.43273927081E+02  0.29396417491E+02  0.10568758137E+03  0.11792644734E+03  0.00000000000E+00 0.  1.
         12    1    6    6    0    0  0.75231851205E+02 -0.48309999897E+02  0.11397900719E+03  0.14486166368E+03  0.00000000000E+00 0. -1.
         -5    1    3    3    0  503 -0.93785219601E+02  0.61004823666E+02  0.96873202045E+02  0.14806675252E+03  0.47000000000E+01 0.  1.
         11    1    4    4    0    0 -0.98245854514E+01  0.31292759459E+02  0.32567422274E+02  0.46221166876E+02  0.00000000000E+00 0. -1.
        -12    1    4    4    0    0  0.23642144027E+02 -0.38501510945E+02  0.93145969410E+02  0.10352530578E+03  0.00000000000E+00 0.  1.
</event>
<event>
12    1  0.1035051E+000  0.2637337E+03  0.7818608E-02  0.1104924E+00
         21   -1    0    0  503  502  0.00000000000E+00  0.00000000000E+00  0.93260760964E+02  0.93260760964E+02  0.00000000000E+00 0. -1.
         21   -1    0    0  501  503 -0.00000000000E+00 -0.00000000000E+00 -0.13042605786E+04  0.13042605786E+04  0.00000000000E+00 0. -1.
          6    2    1    2  501    0  0.19873621041E+03  0.26522645926E+02 -0.10627429209E+04  0.10949728739E+04  0.17129958134E+03 0.  0.
         24    2    3    3    0    0  0.36989298728E+02 -0.24564410334E+02 -0.41489518591E+03  0.42527090399E+03  0.82132259301E+02 0.  0.
         -6    2    1    2    0  502 -0.19873621041E+03 -0.26522645926E+02 -0.14825689673E+03  0.30254846566E+03  0.17133573641E+03 0.  0.
        -24    2    5    5    0    0 -0.13988055358E+03 -0.84326815951E+02 -0.10444937170E+03  0.20902574296E+03  0.78131356135E+02 0.  0.
          5    1    3    3  501    0  0.16174691168E+03  0.51087056260E+02 -0.64784773499E+03  0.66970196990E+03  0.47000000000E+01 0. -1.
        -11    1    4    4    0    0  0.46907654307E+02 -0.23826194438E+02 -0.41136713801E+03  0.41471790148E+03  0.00000000000E+00 0.  1.
         12    1    4    4    0    0 -0.99183555791E+01 -0.73821589665E+00 -0.35280479015E+01  0.10553002516E+02  0.00000000000E+00 0. -1.
         -5    1    5    5    0  502 -0.58855656829E+02  0.57804170025E+02 -0.43807525033E+02  0.93522722707E+02  0.47000000000E+01 0.  1.
         13    1    6    6    0    0 -0.49308735331E+02 -0.25144256210E+02 -0.81349562356E+02  0.98393781795E+02  0.00000000000E+00 0. -1.
        -14    1    6    6    0    0 -0.90571818252E+02 -0.59182559740E+02 -0.23099809341E+02  0.11063196116E+03  0.00000000000E+00 0.  1.
</event>
<event>
12    1  0.1035051E+000  0.2288067E+03  0.7818608E-02  0.1127690E+00
         21   -1    0    0  503  502  0.00000000000E+00  0.00000000000E+00  0.27694758367E+03  0.27694758367E+03  0.00000000000E+00 0. -1.
         21   -1    0    0  501  503 -0.00000000000E+00 -0.00000000000E+00 -0.28402558396E+03  0.28402558396E+03  0.00000000000E+00 0. -1.
          6    2    1    2  501    0 -0.14557047478E+03  0.33452951002E+02  0.15948620808E+03  0.27890562316E+03  0.17332810794E+03 0.  0.
         24    2    3    3    0    0 -0.17309920644E+03  0.11465818011E+02  0.11776323461E+03  0.22409539054E+03  0.79093390259E+02 0.  0.
         -6    2    1    2    0  502  0.14557047478E+03 -0.33452951002E+02 -0.16656420838E+03  0.28206754447E+03  0.17178067724E+03 0.  0.
        -24    2    5    5    0    0  0.58001357372E+02  0.41526895102E+02 -0.44935471085E+02  0.11441920007E+03  0.77355777480E+02 0.  0.
          5    1    3    3  501    0  0.27528731664E+02  0.21987132992E+02  0.41722973471E+02  0.54810232616E+02  0.47000000000E+01 0. -1.
        -11    1    4    4    0    0 -0.55048897239E+02 -0.21593303344E+02  0.82373548204E+01  0.59703482737E+02  0.00000000000E+00 0.  1.
         12    1    4    4    0    0 -0.11805030920E+03  0.33059121355E+02  0.10952587979E+03  0.16439190780E+03  0.00000000000E+00 0. -1.
         -5    1    5    5    0  502  0.87569117403E+02 -0.74979846105E+02 -0.12162873729E+03  0.16764834440E+03  0.47000000000E+01 0.  1.
         13    1    6    6    0    0  0.16757888459E+01 -0.20927969082E+02 -0.67430216888E+01  0.22051224447E+02  0.00000000000E+00 0. -1.
        -14    1    6    6    0    0  0.56325568526E+02  0.62454864184E+02 -0.38192449397E+02  0.92367975624E+02  0.00000000000E+00 0.  1.
</event>
<event>
12    1  0.1035051E+000  0.1782400E+03  0.7818608E-02  0.1169966E+00
         21   -1    0    0  503  502  0.00000000000E+00  0.00000000000E+00  0.85433493542E+02  0.85433493542E+02  0.00000000000E+00 0.  1.
         21   -1    0    0  501  503 -0.00000000000E+00 -0.00000000000E+00 -0.12984799126E+04  0.12984799126E+04  0.00000000000E+00 0.  1.
          6    2    1    2  501    0  0.33366041977E+02 -0.30946019231E+02 -0.19913221778E+02  0.17754019337E+03  0.17044950865E+03 0.  0.
         24    2    3    3    0    0  0.50363253762E+02 -0.77980021805E+02 -0.33324705684E+02  0.12554922774E+03  0.77683533955E+02 0.  0.
         -6    2    1    2    0  502 -0.33366041977E+02  0.30946019231E+02 -0.11931331973E+04  0.12063732128E+04  0.17233268166E+03 0.  0.
        -24    2    5    5    0    0 -0.26063001067E+02  0.87651358325E+02 -0.81857838848E+03  0.82745076070E+03  0.79007231636E+02 0.  0.
          5    1    3    3  501    0 -0.16997211785E+02  0.47034002575E+02  0.13411483906E+02  0.51990965631E+02  0.47000000000E+01 0. -1.
        -11    1    4    4    0    0  0.25982638368E+02  0.55628405869E+01 -0.27632832197E+02  0.38335572348E+02  0.00000000000E+00 0.  1.
         12    1    4    4    0    0  0.24380615394E+02 -0.83542862392E+02 -0.56918734867E+01  0.87213655396E+02  0.00000000000E+00 0. -1.
         -5    1    5    5    0  502 -0.73030409097E+01 -0.56705339095E+02 -0.37455480883E+03  0.37892245210E+03  0.47000000000E+01 0.  1.
         13    1    6    6    0    0  0.13224258251E+02  0.48305745996E+02 -0.19250822981E+03  0.19891642629E+03  0.00000000000E+00 0. -1.
        -14    1    6    6    0    0 -0.39287259318E+02  0.39345612329E+02 -0.62607015867E+03  0.62853433441E+03  0.00000000000E+00 0.  1.
</event>
<event>
12    1  0.1035051E+000  0.3038128E+03  0.7818608E-02  0.1083362E+00
         21   -1    0    0  501  502  0.00000000000E+00  0.00000000000E+00  0.37596513878E+03  0.37596513878E+03  0.00000000000E+00 0.  1.
         21   -1    0    0  502  503 -0.00000000000E+00 -0.00000000000E+00 -0.24674963914E+03  0.24674963914E+03  0.00000000000E+00 0.  1.
         -6    2    1    2    0  503  0.34450903362E+02  0.24770929965E+03  0.87379882615E+02  0.31612888307E+03  0.17249772448E+03 0.  0.
        -24    2    3    3    0    0 -0.37330790241E+02  0.86210071032E+02 -0.25637732707E+01  0.11776920064E+03  0.70973568586E+02 0.  0.
          6    2    1    2  501    0 -0.34450903362E+02 -0.24770929965E+03  0.41835617027E+02  0.30658589485E+03  0.17233087417E+03 0.  0.
         24    2    5    5    0    0 -0.75919198870E+02 -0.15774903360E+03 -0.13406732846E+02  0.19306815959E+03  0.80293781830E+02 0.  0.
          5    1    5    5  501    0  0.41468295508E+02 -0.89960266050E+02  0.55242349873E+02  0.11351773526E+03  0.47000000000E+01 0. -1.
        -11    1    6    6    0    0  0.61873304573E+01 -0.53383272361E+02  0.17886077093E+02  0.56638931663E+02  0.00000000000E+00 0.  1.
         12    1    6    6    0    0 -0.82106529327E+02 -0.10436576124E+03 -0.31292809939E+02  0.13642922792E+03  0.00000000000E+00 0. -1.
         -5    1    3    3    0  503  0.71781693603E+02  0.16149922862E+03  0.89943655885E+02  0.19835968244E+03  0.47000000000E+01 0.  1.
         13    1    4    4    0    0 -0.13600143415E+02  0.91095965694E+02 -0.94289156516E+01  0.92586950036E+02  0.00000000000E+00 0. -1.
        -14    1    4    4    0    0 -0.23730646826E+02 -0.48858946615E+01  0.68651423808E+01  0.25182250601E+02  0.00000000000E+00 0.  1.
</event>
<event>
12    1  0.1035051E+000  0.1891722E+03  0.7818608E-02  0.1159384E+00
         21   -1    0    0  501  502  0.00000000000E+00  0.00000000000E+00  0.24901405042E+03  0.24901405042E+03  0.00000000000E+00 0. -1.
         21   -1    0    0  502  503 -0.00000000000E+00 -0.00000000000E+00 -0.15977356759E+03  0.15977356759E+03  0.00000000000E+00 0. -1.
         -6    2    1    2    0  503  0.23578293978E+02 -0.74847770077E+02  0.11066536049E+03  0.21916415055E+03  0.17212779624E+03 0.  0.
        -24    2    3    3    0    0  0.37172554245E+02  0.22510061527E+02  0.54048260907E+02  0.10562588716E+03  0.79668763470E+02 0.  0.
          6    2    1    2  501    0 -0.23578293978E+02  0.74847770077E+02 -0.21424877659E+02  0.18962346747E+03  0.17128896462E+03 0.  0.
         24    2    5    5    0    0 -0.35957981875E+02  0.99935371813E+02 -0.57704650461E+02  0.14356962563E+03  0.77474871539E+02 0.  0.
          5    1    5    5  501    0  0.12379687897E+02 -0.25087601736E+02  0.36279772802E+02  0.46053841836E+02  0.47000000000E+01 0. -1.
        -11    1    6    6    0    0  0.87201391084E+01  0.83330564041E+02 -0.35807444441E+02  0.91116391538E+02  0.00000000000E+00 0.  1.
         12    1    6    6    0    0 -0.44678120983E+02  0.16604807772E+02 -0.21897206020E+02  0.52453234097E+02  0.00000000000E+00 0. -1.
         -5    1    3    3    0  503 -0.13594260267E+02 -0.97357831604E+02  0.56617099582E+02  0.11353826338E+03  0.47000000000E+01 0.  1.
         11    1    4    4    0    0 -0.15895116362E+02  0.40220101555E+01 -0.10939759013E+02  0.19710647303E+02  0.00000000000E+00 0. -1.
        -12    1    4    4    0    0  0.53067670606E+02  0.18488051371E+02  0.64988019920E+02  0.85915239860E+02  0.00000000000E+00 0.  1.
</event>
<event>
12    1  0.1035051E+000  0.1946287E+03  0.7818608E-02  0.1155101E+00
         21   -1    0    0  503  502  0.00000000000E+00  0.00000000000E+00  0.14183807527E+03  0.14183807527E+03  0.00000000000E+00 0. -1.
         21   -1    0    0  501  503 -0.00000000000E+00 -0.00000000000E+00 -0.27976668883E+03  0.27976668883E+03  0.00000000000E+00 0. -1.
          6    2    1    2  501    0 -0.11026819418E+02  0.86065061538E+02 -0.12201636452E+03  0.22971361015E+03  0.17421700236E+03 0.  0.
         24    2    3    3    0    0  0.19428661661E+02  0.10988585806E+03 -0.47584292687E+02  0.14570652716E+03  0.80707821491E+02 0.  0.
         -6    2    1    2    0  502  0.11026819418E+02 -0.86065061538E+02 -0.15912249039E+02  0.19189115395E+03  0.17041194128E+03 0.  0.
        -24    2    5    5    0    0 -0.26561846727E+02 -0.37681713068E+02  0.47594866188E+02  0.10352204218E+03  0.79536775945E+02 0.  0.
          5    1    3    3  501    0 -0.30455481079E+02 -0.23820796524E+02 -0.74432071835E+02  0.84007082990E+02  0.47000000000E+01 0. -1.
        -11    1    4    4    0    0  0.18195820438E+02  0.82177838080E+02  0.70216798230E+01  0.84460576249E+02  0.00000000000E+00 0.  1.
         12    1    4    4    0    0  0.12328412237E+01  0.27708019982E+02 -0.54605972510E+02  0.61245950908E+02  0.00000000000E+00 0. -1.
         -5    1    5    5    0  502  0.37588666145E+02 -0.48383348471E+02 -0.63507115227E+02  0.88369111777E+02  0.47000000000E+01 0.  1.
         13    1    6    6    0    0  0.27529756463E+02 -0.20102000036E+02  0.10703163017E+02  0.35728638303E+02  0.00000000000E+00 0. -1.
        -14    1    6    6    0    0 -0.54091603191E+02 -0.17579713032E+02  0.36891703171E+02  0.67793403874E+02  0.00000000000E+00 0.  1.
</event>
<event>
12    1  0.1035051E+000  0.3728388E+03  0.7818608E-02  0.1053624E+00
         21   -1    0    0  501  502  0.00000000000E+00  0.00000000000E+00  0.32539911126E+03  0.32539911126E+03  0.00000000000E+00 0.  1.
         21   -1    0    0  502  503 -0.00000000000E+00 -0.00000000000E+00 -0.42876828510E+03  0.42876828510E+03  0.00000000000E+00 0.  1.
         -6    2    1    2    0  503 -0.33704738734E+02 -0.32894582502E+03 -0.75481159240E+02  0.38028705696E+03  0.17198684566E+03 0.  0.
        -24    2    3    3    0    0  0.40286484718E+02 -0.17129654741E+03 -0.67875336480E+02  0.20590834720E+03  0.82617662385E+02 0.  0.
          6    2    1    2  501    0  0.33704738734E+02  0.32894582502E+03 -0.27888014603E+02  0.37388033940E+03  0.17224227594E+03 0.  0.
         24    2    5    5    0    0  0.67912011594E+02  0.19361434747E+03 -0.66176867221E+02  0.22906020072E+03  0.77399230838E+02 0.  0.
          5    1    5    5  501    0 -0.34207272859E+02  0.13533147755E+03  0.38288852619E+02  0.14482013868E+03  0.47000000000E+01 0. -1.
        -13    1    6    6    0    0 -0.11812308524E+01  0.71441037600E+02 -0.51209702311E+02  0.87907057569E+02  0.00000000000E+00 0.  1.
         14    1    6    6    0    0  0.69093242446E+02  0.12217330987E+03 -0.14967164911E+02  0.14115314315E+03  0.00000000000E+00 0. -1.
         -5    1    3    3    0  503 -0.73991223452E+02 -0.15764927760E+03 -0.76058227599E+01  0.17437870976E+03  0.47000000000E+01 0.  1.
         11    1    4    4    0    0  0.55903921496E+01 -0.15589387590E+03 -0.48969646001E+02  0.16349978366E+03  0.00000000000E+00 0. -1.
        -12    1    4    4    0    0  0.34696092568E+02 -0.15402671517E+02 -0.18905690479E+02  0.42408563544E+02  0.00000000000E+00 0.  1.
</event>
<event>
12    1  0.1035051E+000  0.2070848E+03  0.7818608E-02  0.1143939E+00
         21   -1    0    0  501  502  0.00000000000E+00  0.00000000000E+00  0.14695267037E+03  0.14695267037E+03  0.00000000000E+00 0.  1.
         21   -1    0    0  502  503 -0.00000000000E+00 -0.00000000000E+00 -0.66654923171E+03  0.66654923171E+03  0.00000000000E+00 0.  1.
         -6    2    1    2    0  503  0.89547417962E+02 -0.71576046105E+02  0.45363962294E+02  0.21178392552E+03  0.17219951102E+03 0.  0.
        -24    2    3    3    0    0  0.11671137617E+03 -0.10124924751E+03  0.29727504118E+02  0.16836770354E+03  0.59924983484E+02 0.  0.
          6    2    1    2  501    0 -0.89547417962E+02  0.71576046105E+02 -0.56496052363E+03  0.60171797656E+03  0.17245944340E+03 0.  0.
         24    2    5    5    0    0 -0.51006827424E+02  0.70682174309E+02 -0.54444535725E+03  0.55779602103E+03  0.84368168405E+02 0.  0.
          5    1    5    5  501    0 -0.38540590538E+02  0.89387179549E+00 -0.20515166381E+02  0.43921955528E+02  0.47000000000E+01 0. -1.
        -11    1    6    6    0    0 -0.38788878295E+02 -0.65233334506E+01 -0.12213068121E+03  0.12830835613E+03  0.00000000000E+00 0.  1.
         12    1    6    6    0    0 -0.12217949130E+02  0.77205507760E+02 -0.42231467604E+03  0.42948766491E+03  0.00000000000E+00 0. -1.
         -5    1    3    3    0  503 -0.27163958205E+02  0.29673201407E+02  0.15636458176E+02  0.43416221984E+02  0.47000000000E+01 0.  1.
         11    1    4    4    0    0  0.78470430851E+02 -0.82030652384E+02  0.46129259737E+02  0.12253385268E+03  0.00000000000E+00 0. -1.
        -12    1    4    4    0    0  0.38240945316E+02 -0.19218595128E+02 -0.16401755619E+02  0.45833850861E+02  0.00000000000E+00 0.  1.
</event>
<event>
12    1  0.1035051E+000  0.1831143E+03  0.7818608E-02  0.1164995E+00
         21   -1    0    0  503  502  0.00000000000E+00  0.00000000000E+00  0.44674211204E+02  0.44674211204E+02  0.00000000000E+00 0. -1.
         21   -1    0    0  501  503 -0.00000000000E+00 -0.00000000000E+00 -0.14987513537E+04  0.14987513537E+04  0.00000000000E+00 0. -1.
          6    2    1    2  501    0  0.13600932857E+01  0.63760150286E+02 -0.17997957472E+03  0.25623658315E+03  0.17087226987E+03 0.  0.
         24    2    3    3    0    0 -0.46335269450E+02 -0.34501992007E+01 -0.12318238191E+03  0.15603633457E+03  0.83753074111E+02 0.  0.
         -6    2    1    2    0  502 -0.13600932857E+01 -0.63760150286E+02 -0.12740975677E+04  0.12871889817E+04  0.17164980605E+03 0.  0.
        -24    2    5    5    0    0 -0.11112696496E+02  0.19354623387E+02 -0.89639508039E+03  0.90029825061E+03  0.80713731315E+02 0.  0.
          5    1    3    3  501    0  0.47695362736E+02  0.67210349487E+02 -0.56797192806E+02  0.10020024858E+03  0.47000000000E+01 0. -1.
        -13    1    4    4    0    0 -0.44392898970E+02  0.30989334880E+02 -0.44343376273E+02  0.69981450217E+02  0.00000000000E+00 0.  1.
         14    1    4    4    0    0 -0.19423704806E+01 -0.34439534081E+02 -0.78839005641E+02  0.86054884354E+02  0.00000000000E+00 0. -1.
         -5    1    5    5    0  502  0.97526032101E+01 -0.83114773673E+02 -0.37770248735E+03  0.38689073112E+03  0.47000000000E+01 0.  1.
         11    1    6    6    0    0  0.52870837680E+01  0.47536787467E+02 -0.64960487545E+03  0.65136333457E+03  0.00000000000E+00 0. -1.
        -12    1    6    6    0    0 -0.16399780264E+02 -0.28182164080E+02 -0.24679020494E+03  0.24893491604E+03  0.00000000000E+00 0.  1.
</event>
<event>
12    1  0.1035051E+000  0.3938047E+03  0.7818608E-02  0.1046328E+00
         21   -1    0    0  503  502  0.00000000000E+00  0.00000000000E+00  0.55186469092E+03  0.55186469092E+03  0.00000000000E+00 0.  1.
         21   -1    0    0  501  503 -0.00000000000E+00 -0.00000000000E+00 -0.30766094766E+03  0.30766094766E+03  0.00000000000E+00 0.  1.
          6    2    1    2  501    0 -0.34721582927E+03  0.65484406386E+02 -0.12044815941E+02  0.38969004301E+03  0.16390915915E+03 0.  0.
         24    2    3    3    0    0 -0.13672715767E+03  0.71023572066E+02  0.14643156253E+02  0.17739190103E+03  0.86687952407E+02 0.  0.
         -6    2    1    2    0  502  0.34721582927E+03 -0.65484406386E+02  0.25624855920E+03  0.46983559557E+03  0.17388249826E+03 0.  0.
        -24    2    5    5    0    0  0.35640703415E+03 -0.58352578171E+02  0.26436800486E+03  0.45489047533E+03  0.81264415223E+02 0.  0.
          5    1    3    3  501    0 -0.21048867160E+03 -0.55391656798E+01 -0.26687972194E+02  0.21229814198E+03  0.47000000000E+01 0. -1.
        -11    1    4    4    0    0 -0.30508023885E+02 -0.20332119407E+02  0.18835762177E+01  0.36710794874E+02  0.00000000000E+00 0.  1.
         12    1    4    4    0    0 -0.10621913378E+03  0.91355691472E+02  0.12759580036E+02  0.14068110615E+03  0.00000000000E+00 0. -1.
         -5    1    5    5    0  502 -0.91912048862E+01 -0.71318282147E+01 -0.81194456673E+01  0.14945120237E+02  0.47000000000E+01 0.  1.
         11    1    6    6    0    0  0.12791378320E+03 -0.18057280875E+02  0.14419037410E+03  0.19359459008E+03  0.00000000000E+00 0. -1.
        -12    1    6    6    0    0  0.22849325095E+03 -0.40295297296E+02  0.12017763076E+03  0.26129588525E+03  0.00000000000E+00 0.  1.
</event>
<event>
12    1  0.1035051E+000  0.5087206E+03  0.7818608E-02  0.1011552E+00
         21   -1    0    0  501  502  0.00000000000E+00  0.00000000000E+00  0.81332907159E+03  0.81332907159E+03  0.00000000000E+00 0. -1.
         21   -1    0    0  502  503 -0.00000000000E+00 -0.00000000000E+00 -0.32680518050E+03  0.32680518050E+03  0.00000000000E+00 0.  1.
         -6    2    1    2    0  503 -0.44335886467E+03 -0.18088641245E+03  0.14937077760E+03  0.52983194953E+03  0.17065546709E+03 0.  0.
        -24    2    3    3    0    0 -0.29220230720E+03 -0.78123159602E+02  0.15023482656E+03  0.34698931888E+03  0.79659700623E+02 0.  0.
          6    2    1    2  501    0  0.44335886467E+03  0.18088641245E+03  0.33715311349E+03  0.61030230257E+03  0.17178388019E+03 0.  0.
         24    2    5    5    0    0  0.29180159070E+03  0.52697782848E+02  0.17196841440E+03  0.35201949853E+03  0.80120953170E+02 0.  0.
          5    1    5    5  501    0  0.15155727397E+03  0.12818862960E+03  0.16518469908E+03  0.25828280404E+03  0.47000000000E+01 0. -1.
        -11    1    6    6    0    0  0.21031072853E+02 -0.17100572349E+02  0.20679771389E+02  0.34093819743E+02  0.00000000000E+00 0.  1.
         12    1    6    6    0    0  0.27077051785E+03  0.69798355196E+02  0.15128864302E+03  0.31792567878E+03  0.00000000000E+00 0. -1.
         -5    1    3    3    0  503 -0.15115655747E+03 -0.10276325285E+03 -0.86404896003E+00  0.18284263065E+03  0.47000000000E+01 0.  1.
         13    1    4    4    0    0 -0.18894740663E+03 -0.87100266981E+02  0.11367630829E+03  0.23708623336E+03  0.00000000000E+00 0. -1.
        -14    1    4    4    0    0 -0.10325490057E+03  0.89771073796E+01  0.36558518267E+02  0.10990308552E+03  0.00000000000E+00 0.  1.
</event>
<event>
12    1  0.1035051E+000  0.2819093E+03  0.7818608E-02  0.1094847E+00
         21   -1    0    0  501  502  0.00000000000E+00  0.00000000000E+00  0.51082758645E+02  0.51082758645E+02  0.00000000000E+00 0. -1.
         21   -1    0    0  502  503 -0.00000000000E+00 -0.00000000000E+00 -0.15478603457E+04  0.15478603457E+04  0.00000000000E+00 0. -1.
         -6    2    1    2    0  503 -0.20919001881E+03  0.76726032770E+02 -0.74556670078E+03  0.79708377658E+03  0.17270058920E+03 0.  0.
        -24    2    3    3    0    0 -0.52636382156E+02 -0.17220915542E+02 -0.17603509763E+03  0.19898394609E+03  0.74425174149E+02 0.  0.
          6    2    1    2  501    0  0.20919001881E+03 -0.76726032770E+02 -0.75121088627E+03  0.80185932775E+03  0.17033272668E+03 0.  0.
         24    2    5    5    0    0  0.13368473405E+03 -0.52438981816E+02 -0.66241044488E+03  0.68270179647E+03  0.81686537934E+02 0.  0.
          5    1    5    5  501    0  0.75505284764E+02 -0.24287050954E+02 -0.88800441387E+02  0.11915753128E+03  0.47000000000E+01 0. -1.
        -13    1    6    6    0    0 -0.33819189826E+01 -0.65743231331E+01 -0.15312987777E+03  0.15330824690E+03  0.00000000000E+00 0.  1.
         14    1    6    6    0    0  0.13706665303E+03 -0.45864658683E+02 -0.50928056711E+03  0.52939354957E+03  0.00000000000E+00 0. -1.
         -5    1    3    3    0  503 -0.15655363666E+03  0.93946948313E+02 -0.56953160315E+03  0.59809983049E+03  0.47000000000E+01 0.  1.
         13    1    4    4    0    0 -0.50313039991E+02 -0.29405143277E+02 -0.17718945296E+03  0.18652658439E+03  0.00000000000E+00 0. -1.
        -14    1    4    4    0    0 -0.23233421646E+01  0.12184227735E+02  0.11543553330E+01  0.12457361701E+02  0.00000000000E+00 0.  1.
</event>
<event>
12    1  0.1035051E+000  0.2172828E+03  0.7818608E-02  0.1135935E+00
         21   -1    0    0  501  502  0.00000000000E+00  0.00000000000E+00  0.17597360710E+04  0.17597360710E+04  0.00000000000E+00 0. -1.
         21   -1    0    0  502  503 -0.00000000000E+00 -0.00000000000E+00 -0.43019425466E+02  0.43019425466E+02  0.00000000000E+00 0. -1.
         -6    2    1    2    0  503  0.12119494135E+03 -0.56305765260E+02  0.14113800466E+04  0.14279992597E+04  0.17125915149E+03 0.  0.
        -24    2    3    3    0    0  0.11512405714E+03 -0.45714731594E+02  0.65984233335E+03  0.67634771147E+03  0.81920307115E+02 0.  0.
          6    2    1    2  501    0 -0.12119494135E+03  0.56305765260E+02  0.30533659894E+03  0.37475623670E+03  0.17132788821E+03 0.  0.
         24    2    5    5    0    0  0.70391871142E-01  0.40995977026E+02  0.98610701746E+02  0.13455349477E+03  0.81852900797E+02 0.  0.
          5    1    5    5  501    0 -0.12126533322E+03  0.15309788234E+02  0.20672589719E+03  0.24020274193E+03  0.47000000000E+01 0. -1.
        -13    1    6    6    0    0 -0.19169484308E+02  0.59075991287E+02  0.83718362504E+02  0.10424109600E+03  0.00000000000E+00 0.  1.
         14    1    6    6    0    0  0.19239876180E+02 -0.18080014261E+02  0.14892339242E+02  0.30312398770E+02  0.00000000000E+00 0. -1.
         -5    1    3    3    0  503  0.60708842154E+01 -0.10591033666E+02  0.75153771322E+03  0.75165154828E+03  0.47000000000E+01 0.  1.
         13    1    4    4    0    0  0.58563223661E+02 -0.53122274370E+02  0.50852668281E+03  0.51463677903E+03  0.00000000000E+00 0. -1.
        -14    1    4    4    0    0  0.56560833477E+02  0.74075427758E+01  0.15131565054E+03  0.16171093244E+03  0.00000000000E+00 0.  1.
</event>
<event>
12    1  0.1035051E+000  0.7508896E+03  0.7818608E-02  0.9634058E-01
         21   -1    0    0  503  502  0.00000000000E+00  0.00000000000E+00  0.51051521270E+03  0.51051521270E+03  0.00000000000E+00 0. -1.
         21   -1    0    0  501  503 -0.00000000000E+00 -0.00000000000E+00 -0.12160709851E+04  0.12160709851E+04  0.00000000000E+00 0.  1.
          6    2    1    2  501    0  0.62113919107E+03  0.38515587209E+03 -0.90830042162E+02  0.75636318557E+03  0.17226790603E+03 0.  0.
         24    2    3    3    0    0  0.36900602704E+03  0.25818505071E+03 -0.11836232722E+03  0.47268583610E+03  0.81223708004E+02 0.  0.
         -6    2    1    2    0  502 -0.62113919107E+03 -0.38515587209E+03 -0.61472573027E+03  0.97022301225E+03  0.17113161476E+03 0.  0.
        -24    2    5    5    0    0 -0.33990004722E+03 -0.29301322849E+03 -0.37596960893E+03  0.58994377501E+03  0.72744186464E+02 0.  0.
          5    1    3    3  501    0  0.25213316403E+03  0.12697082137E+03  0.27532285060E+02  0.28367734947E+03  0.47000000000E+01 0. -1.
        -13    1    4    4    0    0  0.28793586725E+03  0.23803055159E+03 -0.88071076531E+02  0.38382563965E+03  0.00000000000E+00 0.  1.
         14    1    4    4    0    0  0.81070159795E+02  0.20154499127E+02 -0.30291250691E+02  0.88860196447E+02  0.00000000000E+00 0. -1.
         -5    1    5    5    0  502 -0.28123914385E+03 -0.92142643597E+02 -0.23875612134E+03  0.38027923724E+03  0.47000000000E+01 0.  1.
         11    1    6    6    0    0  0.23866086319E+01 -0.34629900940E+01 -0.11213315903E+02  0.11976086785E+02  0.00000000000E+00 0. -1.
        -12    1    6    6    0    0 -0.34228665585E+03 -0.28955023840E+03 -0.36475629303E+03  0.57796768822E+03  0.00000000000E+00 0.  1.
</event>
<event>
12    1  0.1035051E+000  0.1940986E+03  0.7818608E-02  0.1155579E+00
         21   -1    0    0  501  502  0.00000000000E+00  0.00000000000E+00  0.18148745672E+03  0.18148745672E+03  0.00000000000E+00 0. -1.
         21   -1    0    0  502  503 -0.00000000000E+00 -0.00000000000E+00 -0.22896337615E+03  0.22896337615E+03  0.00000000000E+00 0. -1.
         -6    2    1    2    0  503  0.69135483164E+02 -0.47411544481E+02 -0.91802154689E+02  0.21471350507E+03  0.17506194352E+03 0.  0.
        -24    2    3    3    0    0  0.56441125211E+02  0.39893708041E+02 -0.43591923878E+02  0.11406724236E+03  0.79586251300E+02 0.  0.
          6    2    1    2  501    0 -0.69135483164E+02  0.47411544481E+02  0.44326235249E+02  0.19573732780E+03  0.17123293136E+03 0.  0.
         24    2    5    5    0    0 -0.82322853369E+02  0.69972851228E+02  0.75990330084E+02  0.15441391801E+03  0.79974219058E+02 0.  0.
          5    1    5    5  501    0  0.13187370204E+02 -0.22561306746E+02 -0.31664094835E+02  0.41323409791E+02  0.47000000000E+01 0. -1.
        -13    1    6    6    0    0 -0.67259709183E+02  0.49922730802E+02  0.10662961469E+02  0.84438417071E+02  0.00000000000E+00 0.  1.
         14    1    6    6    0    0 -0.15063144185E+02  0.20050120426E+02  0.65327368615E+02  0.69975500941E+02  0.00000000000E+00 0. -1.
         -5    1    3    3    0  503  0.12694357953E+02 -0.87305252523E+02 -0.48210230811E+02  0.10064626271E+03  0.47000000000E+01 0.  1.
         11    1    4    4    0    0  0.40660228343E+02 -0.13753288834E+00 -0.56073480935E+02  0.69264048022E+02  0.00000000000E+00 0. -1.
        -12    1    4    4    0    0  0.15780896868E+02  0.40031240930E+02  0.12481557058E+02  0.44803194338E+02  0.00000000000E+00 0.  1.
</event>
<event>
12    1  0.1035051E+000  0.2891225E+03  0.7818608E-02  0.1090862E+00
         21   -1    0    0  501  502  0.00000000000E+00  0.00000000000E+00  0.22778484845E+03  0.22778484845E+03  0.00000000000E+00 0.  1.
         21   -1    0    0  502  503 -0.00000000000E+00 -0.00000000000E+00 -0.37982313069E+03  0.37982313069E+03  0.00000000000E+00 0.  1.
         -6    2    1    2    0  503  0.13529644455E+03 -0.18878053152E+03 -0.19070010095E+02  0.28975068231E+03  0.17218761751E+03 0.  0.
        -24    2    3    3    0    0  0.32386716685E+01 -0.86674576689E+02 -0.31879592200E+02  0.12226618516E+03  0.80060854330E+02 0.  0.
          6    2    1    2  501    0 -0.13529644455E+03  0.18878053152E+03 -0.13296827214E+03  0.31785729683E+03  0.17149193206E+03 0.  0.
         24    2    5    5    0    0 -0.10178127402E+03  0.47078151161E+02 -0.95441179856E+02  0.16741393901E+03  0.79640618450E+02 0.  0.
          5    1    5    5  501    0 -0.33515170537E+02  0.14170238036E+03 -0.37527092286E+02  0.15044335782E+03  0.47000000000E+01 0. -1.
        -13    1    6    6    0    0  0.11536060577E+02  0.49944556249E+01  0.12328373627E+01  0.12631119056E+02  0.00000000000E+00 0.  1.
         14    1    6    6    0    0 -0.11331733459E+03  0.42083695536E+02 -0.96674017218E+02  0.15478281996E+03  0.00000000000E+00 0. -1.
         -5    1    3    3    0  503  0.13205777288E+03 -0.10210595483E+03  0.12809582105E+02  0.16748449715E+03  0.47000000000E+01 0.  1.
         11    1    4    4    0    0  0.33555830730E+02 -0.76529107808E+02 -0.11492207740E+02  0.84349089839E+02  0.00000000000E+00 0. -1.
        -12    1    4    4    0    0 -0.30317159062E+02 -0.10145468881E+02 -0.20387384460E+02  0.37917095320E+02  0.00000000000E+00 0.  1.
</event>
<event>
12    1  0.1035051E+000  0.1905969E+03  0.7818608E-02  0.1158138E+00
         21   -1    0    0  503  502  0.00000000000E+00  0.00000000000E+00  0.51595792994E+03  0.51595792994E+03  0.00000000000E+00 0.  1.
         21   -1    0    0  501  503 -0.00000000000E+00 -0.00000000000E+00 -0.74779404440E+02  0.74779404440E+02  0.00000000000E+00 0.  1.
          6    2    1    2  501    0  0.69961846048E+02  0.40866690622E+02  0.29430319996E+03  0.35011409654E+03  0.17146650049E+03 0.  0.
         24    2    3    3    0    0  0.49040875275E+02  0.92063277339E+02  0.21321040820E+03  0.25184452656E+03  0.84180359421E+02 0.  0.
         -6    2    1    2    0  502 -0.69961846048E+02 -0.40866690622E+02  0.14687532555E+03  0.24062323784E+03  0.17251792669E+03 0.  0.
        -24    2    5    5    0    0  0.23238624635E+02 -0.46873370937E+02  0.57887300605E+02  0.11153657499E+03  0.79701451745E+02 0.  0.
          5    1    3    3  501    0  0.20920970773E+02 -0.51196586717E+02  0.81092791760E+02  0.98269569985E+02  0.47000000000E+01 0. -1.
        -13    1    4    4    0    0 -0.22178278014E+02  0.21668008827E+02  0.75118160077E+02  0.81265715991E+02  0.00000000000E+00 0.  1.
         14    1    4    4    0    0  0.71219153289E+02  0.70395268513E+02  0.13809224812E+03  0.17057881057E+03  0.00000000000E+00 0. -1.
         -5    1    5    5    0  502 -0.93200470682E+02  0.60066803149E+01  0.88988024941E+02  0.12908666285E+03  0.47000000000E+01 0.  1.
         13    1    6    6    0    0  0.35465885276E+02  0.39322213884E+01  0.45515890289E+02  0.57835868216E+02  0.00000000000E+00 0. -1.
        -14    1    6    6    0    0 -0.12227260641E+02 -0.50805592326E+02  0.12371410316E+02  0.53700706770E+02  0.00000000000E+00 0.  1.
</event>
<event>
12    1  0.1035051E+000  0.3410276E+03  0.7818608E-02  0.1066476E+00
         21   -1    0    0  503  502  0.00000000000E+00  0.00000000000E+00  0.47058239440E+03  0.47058239440E+03  0.00000000000E+00 0.  1.
         21   -1    0    0  501  503 -0.00000000000E+00 -0.00000000000E+00 -0.25272567142E+03  0.25272567142E+03  0.00000000000E+00 0.  1.
          6    2    1    2  501    0 -0.26570534885E+03 -0.12586117468E+03  0.16622237348E+03  0.37839369744E+03  0.17062105707E+03 0.  0.
         24    2    3    3    0    0 -0.23161305036E+03 -0.13948454263E+03  0.91487450941E+02  0.29499537840E+03  0.74510246749E+02 0.  0.
         -6    2    1    2    0  502  0.26570534885E+03  0.12586117468E+03  0.51634349504E+02  0.34491436838E+03  0.17279886507E+03 0.  0.
        -24    2    5    5    0    0  0.67568452424E+02  0.69931430450E+02  0.56521522679E+02  0.13892325092E+03  0.81541930264E+02 0.  0.
          5    1    3    3  501    0 -0.34092298490E+02  0.13623367952E+02  0.74734922540E+02  0.83398319034E+02  0.47000000000E+01 0. -1.
        -11    1    4    4    0    0 -0.11995863737E+03 -0.52656348487E+02  0.91330604101E+01  0.13132470639E+03  0.00000000000E+00 0.  1.
         12    1    4    4    0    0 -0.11165441299E+03 -0.86828194146E+02  0.82354390530E+02  0.16367067202E+03  0.00000000000E+00 0. -1.
         -5    1    5    5    0  502  0.19813689642E+03  0.55929744231E+02 -0.48871731758E+01  0.20599111747E+03  0.47000000000E+01 0.  1.
         11    1    6    6    0    0  0.72283520242E+02  0.75259693975E+02  0.25941220859E+02  0.10752616321E+03  0.00000000000E+00 0. -1.
        -12    1    6    6    0    0 -0.47150678182E+01 -0.53282635249E+01  0.30580301821E+02  0.31397087702E+02  0.00000000000E+00 0.  1.
</event>
<event>
12    1  0.1035051E+000  0.1965855E+03  0.7818608E-02  0.1154618E+00
         21   -1    0    0  501  502  0.00000000000E+00  0.00000000000E+00  0.14765002428E+04  0.14765002428E+04  0.00000000000E+00 0. -1.
         21   -1    0    0  502  503 -0.00000000000E+00 -0.00000000000E+00 -0.25422246237E+02  0.25422246237E+02  0.00000000000E+00 0. -1.
         -6    2    1    2    0  503  0.75713597939E+02 -0.36051426959E+02  0.83837632135E+03  0.86111597714E+03  0.17780218105E+03 0.  0.
        -24    2    3    3    0    0 -0.27164094425E+02 -0.21423619995E+02  0.44856105893E+03  0.45766112075E+03  0.83963196369E+02 0.  0.
          6    2    1    2  501    0 -0.75713597939E+02  0.36051426959E+02  0.61270167518E+03  0.64080651186E+03  0.16792078067E+03 0.  0.
         24    2    5    5    0    0 -0.97162331637E+02 -0.20016282263E+02  0.42653295725E+03  0.44514221331E+03  0.79875254003E+02 0.  0.
          5    1    5    5  501    0  0.21448733698E+02  0.56067709223E+02  0.18616871793E+03  0.19566429856E+03  0.47000000000E+01 0. -1.
        -13    1    6    6    0    0 -0.11345779266E+02 -0.25492022882E+01  0.21605527375E+01  0.11827642520E+02  0.00000000000E+00 0.  1.
         14    1    6    6    0    0 -0.85816552371E+02 -0.17467079975E+02  0.42437240451E+03  0.43331457079E+03  0.00000000000E+00 0. -1.
         -5    1    3    3    0  503  0.10287769236E+03 -0.14627806965E+02  0.38981526242E+03  0.40345485638E+03  0.47000000000E+01 0.  1.
         13    1    4    4    0    0  0.13039490625E+02 -0.38290979102E+02  0.13048626663E+03  0.13661219995E+03  0.00000000000E+00 0. -1.
        -14    1    4    4    0    0 -0.40203585050E+02  0.16867359108E+02  0.31807479229E+03  0.32104892080E+03  0.00000000000E+00 0.  1.
</event>
<event>
12    1  0.1035051E+000  0.5411703E+03  0.7818608E-02  0.1003564E+00
         21   -1    0    0  503  502  0.00000000000E+00  0.00000000000E+00  0.99771544449E+03  0.99771544449E+03  0.00000000000E+00 0. -1.
         21   -1    0    0  501  503 -0.00000000000E+00 -0.00000000000E+00 -0.33710383804E+03  0.33710383804E+03  0.00000000000E+00 0. -1.
          6    2    1    2  501    0  0.12601080222E+03  0.49808939433E+03  0.57035566014E+03  0.78617419972E+03  0.16968360622E+03 0.  0.
         24    2    3    3    0    0  0.15094657653E+03  0.43030835311E+03  0.52861993629E+03  0.70262766756E+03  0.79350201347E+02 0.  0.
         -6    2    1    2    0  502 -0.12601080222E+03 -0.49808939433E+03  0.90255946306E+02  0.54864508281E+03  0.16998095194E+03 0.  0.
        -24    2    5    5    0    0 -0.84194065061E+02 -0.27455325496E+03  0.11387182199E+03  0.31996004898E+03  0.83303725606E+02 0.  0.
          5    1    3    3  501    0 -0.24935774309E+02  0.67781041228E+02  0.41735723851E+02  0.83546532159E+02  0.47000000000E+01 0. -1.
        -11    1    4    4    0    0  0.15522072279E+01  0.95678828045E+02  0.94123700222E+02  0.13422413504E+03  0.00000000000E+00 0.  1.
         12    1    4    4    0    0  0.14939436931E+03  0.33462952506E+03  0.43449623607E+03  0.56840353252E+03  0.00000000000E+00 0. -1.
         -5    1    5    5    0  502 -0.41816737164E+02 -0.22353613938E+03 -0.23615875683E+02  0.22868503383E+03  0.47000000000E+01 0.  1.
         11    1    6    6    0    0 -0.78498235771E+02 -0.26160582374E+03  0.12649713150E+03  0.30100017328E+03  0.00000000000E+00 0. -1.
        -12    1    6    6    0    0 -0.56958292896E+01 -0.12947431213E+02 -0.12625309510E+02  0.18959875700E+02  0.00000000000E+00 0.  1.
</event>
<event>
12    1  0.1035051E+000  0.2349853E+03  0.7818608E-02  0.1123194E+00
         21   -1    0    0  501  502  0.00000000000E+00  0.00000000000E+00  0.20530597439E+03  0.20530597439E+03  0.00000000000E+00 0. -1.
         21   -1    0    0  502  503 -0.00000000000E+00 -0.00000000000E+00 -0.26955391478E+03  0.26955391478E+03  0.00000000000E+00 0. -1.
         -6    2    1    2    0  503  0.89292491763E+02  0.13269049533E+03 -0.20053533449E+02  0.23575482062E+03  0.17204149095E+03 0.  0.
        -24    2    3    3    0    0  0.12997408790E+03  0.10351425408E+03 -0.18479338222E+02  0.18544763020E+03  0.80255051450E+02 0.  0.
          6    2    1    2  501    0 -0.89292491763E+02 -0.13269049533E+03 -0.44194406947E+02  0.23910506855E+03  0.17215740345E+03 0.  0.
         24    2    5    5    0    0 -0.97426772963E+02 -0.16109273364E+03 -0.38972504277E+02  0.20873712592E+03  0.81298749827E+02 0.  0.
          5    1    5    5  501    0  0.81342812000E+01  0.28402238316E+02 -0.52219026698E+01  0.30367942629E+02  0.47000000000E+01 0. -1.
        -11    1    6    6    0    0 -0.99749819137E+02 -0.12415836386E+03 -0.54880763550E+02  0.16845540639E+03  0.00000000000E+00 0.  1.
         12    1    6    6    0    0  0.23230461737E+01 -0.36934369787E+02  0.15908259273E+02  0.40281719529E+02  0.00000000000E+00 0. -1.
         -5    1    3    3    0  503 -0.40681596136E+02  0.29176241243E+02 -0.15741952269E+01  0.50307190419E+02  0.47000000000E+01 0.  1.
         11    1    4    4    0    0  0.17726059661E+02 -0.80003356225E-01 -0.27184848696E+02  0.32453591331E+02  0.00000000000E+00 0. -1.
        -12    1    4    4    0    0  0.11224802824E+03  0.10359425744E+03  0.87055104737E+01  0.15299403887E+03  0.00000000000E+00 0.  1.
</event>
<event>
12    1  0.1035051E+000  0.1900078E+03  0.7818608E-02  0.1158611E+00
         21   -1    0    0  501  502  0.00000000000E+00  0.00000000000E+00  0.37042980073E+03  0.37042980073E+03  0.00000000000E+00 0. -1.
         21   -1    0    0  502  503 -0.00000000000E+00 -0.00000000000E+00 -0.99626741278E+02  0.99626741278E+02  0.00000000000E+00 0. -1.
         -6    2    1    2    0  503 -0.60412400226E+02  0.52743230128E+02  0.17301375638E+03  0.25697608261E+03  0.17225400057E+03 0.  0.
        -24    2    3    3    0    0 -0.10113728597E+03  0.62599636217E+02  0.15563780022E+03  0.21137258590E+03  0.79421534517E+02 0.  0.
          6    2    1    2  501    0  0.60412400226E+02 -0.52743230128E+02  0.97789303077E+02  0.21308045940E+03  0.17149060603E+03 0.  0.
         24    2    5    5    0    0  0.18042170309E+02 -0.88930279607E+02  0.30377736259E+02  0.12549536778E+03  0.81192154387E+02 0.  0.
          5    1    5    5  501    0  0.42370229916E+02  0.36187049479E+02  0.67411566818E+02  0.87585091620E+02  0.47000000000E+01 0. -1.
        -11    1    6    6    0    0  0.16037704195E+02 -0.67505138692E+02  0.58033080916E+02  0.90454354159E+02  0.00000000000E+00 0.  1.
         12    1    6    6    0    0  0.20044661146E+01 -0.21425140915E+02 -0.27655344657E+02  0.35041013623E+02  0.00000000000E+00 0. -1.
         -5    1    3    3    0  503  0.40724885741E+02 -0.98564060893E+01  0.17375956154E+02  0.45603496707E+02  0.47000000000E+01 0.  1.
         11    1    4    4    0    0 -0.62997082214E+02  0.39809168902E+02  0.14880161922E+03  0.16641912204E+03  0.00000000000E+00 0. -1.
        -12    1    4    4    0    0 -0.38140203753E+02  0.22790467316E+02  0.68361810002E+01  0.44953463865E+02  0.00000000000E+00 0.  1.
</event>
<event>
12    1  0.1035051E+000  0.2855282E+03  0.7818608E-02  0.1093293E+00
         21   -1    0    0  501  502  0.00000000000E+00  0.00000000000E+00  0.14841560834E+03  0.14841560834E+03  0.00000000000E+00 0.  1.
         21   -1    0    0  502  503 -0.00000000000E+00 -0.00000000000E+00 -0.54115945106E+03  0.54115945106E+03  0.00000000000E+00 0.  1.
         -6    2    1    2    0  503  0.87845025847E+02  0.20963332829E+03 -0.20167016007E+03  0.34601214327E+03  0.16550126566E+03 0.  0.
        -24    2    3    3    0    0  0.31595589367E+02  0.55535040631E+02 -0.13744506484E+03  0.16978151534E+03  0.76499641163E+02 0.  0.
          6    2    1    2  501    0 -0.87845025847E+02 -0.20963332829E+03 -0.19107368265E+03  0.34356291613E+03  0.17281042862E+03 0.  0.
         24    2    5    5    0    0 -0.34089328181E+02 -0.50420426291E+02 -0.19222138072E+02  0.10316019865E+03  0.81044643938E+02 0.  0.
          5    1    5    5  501    0 -0.53755697666E+02 -0.15921290200E+03 -0.17185154458E+03  0.24040271747E+03  0.47000000000E+01 0. -1.
        -13    1    6    6    0    0 -0.10452088621E+02  0.14947801011E+02 -0.27667214804E+02  0.33138462346E+02  0.00000000000E+00 0.  1.
         14    1    6    6    0    0 -0.23637239560E+02 -0.65368227302E+02  0.84450767329E+01  0.70021736309E+02  0.00000000000E+00 0. -1.
         -5    1    3    3    0  503  0.56249436480E+02  0.15409828766E+03 -0.64225095228E+02  0.17623062793E+03  0.47000000000E+01 0.  1.
         11    1    4    4    0    0  0.10917194587E+02 -0.14831361916E+02 -0.61955189231E+01  0.19430359972E+02  0.00000000000E+00 0. -1.
        -12    1    4    4    0    0  0.20678394780E+02  0.70366402547E+02 -0.13124954591E+03  0.15035115537E+03  0.00000000000E+00 0.  1.
</event>
<event>
12    1  0.1035051E+000  0.2223649E+03  0.7818608E-02  0.1132400E+00
         21   -1    0    0  503  502  0.00000000000E+00  0.00000000000E+00  0.39654851766E+03  0.39654851766E+03  0.00000000000E+00 0.  1.
         21   -1    0    0  501  503 -0.00000000000E+00 -0.00000000000E+00 -0.12911434582E+03  0.12911434582E+03  0.00000000000E+00 0.  1.
          6    2    1    2  501    0 -0.90871902901E+02 -0.10401699892E+03  0.80362101997E+02  0.23507359222E+03  0.17240733024E+03 0.  0.
         24    2    3    3    0    0  0.15320097717E+02 -0.64015546195E+02  0.16574972986E+02  0.10481329496E+03  0.79864895426E+02 0.  0.
         -6    2    1    2    0  502  0.90871902901E+02  0.10401699892E+03  0.18707206984E+03  0.29058927127E+03  0.17426682548E+03 0.  0.
        -24    2    5    5    0    0  0.54110020455E+02  0.10048978462E+03  0.56028767609E+02  0.15436036721E+03  0.87531760175E+02 0.  0.
          5    1    3    3  501    0 -0.10619200062E+03 -0.40001452726E+02  0.63787129011E+02  0.13026029726E+03  0.47000000000E+01 0. -1.
        -11    1    4    4    0    0 -0.41211253743E+01 -0.73516303504E+02 -0.55820389574E+01  0.73843007212E+02  0.00000000000E+00 0.  1.
         12    1    4    4    0    0  0.19441223091E+02  0.95007573087E+01  0.22157011943E+02  0.30970287744E+02  0.00000000000E+00 0. -1.
         -5    1    5    5    0  502  0.36761882445E+02  0.35272143055E+01  0.13104330223E+03  0.13622890406E+03  0.47000000000E+01 0.  1.
         13    1    6    6    0    0  0.43467554485E+01  0.42163953215E+02  0.64545019498E+02  0.77218862823E+02  0.00000000000E+00 0. -1.
        -14    1    6    6    0    0  0.49763265007E+02  0.58325831400E+02 -0.85162518893E+01  0.77141504386E+02  0.00000000000E+00 0.  1.
</event>
<event>
12    1  0.1035051E+000  0.1906179E+03  0.7818608E-02  0.1158080E+00
         21   -1    0    0  503  502  0.00000000000E+00  0.00000000000E+00  0.40997713805E+03  0.40997713805E+03  0.00000000000E+00 0.  1.
         21   -1    0    0  501  503 -0.00000000000E+00 -0.00000000000E+00 -0.15988024569E+03  0.15988024569E+03  0.00000000000E+00 0.  1.
          6    2    1    2  501    0 -0.40154520263E+02  0.69296942796E+02 -0.65784489936E+02  0.20091807535E+03  0.17212211394E+03 0.  0.
         24    2    3    3    0    0 -0.63063267776E+02 -0.11801467683E+02 -0.18378439373E+02  0.10411318640E+03  0.79909562424E+02 0.  0.
         -6    2    1    2    0  502  0.40154520263E+02 -0.69296942796E+02  0.31588138230E+03  0.36893930839E+03  0.17297604982E+03 0.  0.
        -24    2    5    5    0    0  0.15860405245E+02 -0.52707844715E+02  0.59872961195E+02  0.11120338952E+03  0.75840312559E+02 0.  0.
          5    1    3    3  501    0  0.22908747513E+02  0.81098410479E+02 -0.47406050563E+02  0.96804888951E+02  0.47000000000E+01 0. -1.
        -13    1    4    4    0    0  0.19276364332E+01 -0.31913923448E+01 -0.36027836229E+02  0.36220239517E+02  0.00000000000E+00 0.  1.
         14    1    4    4    0    0 -0.64990904209E+02 -0.86100753377E+01  0.17649396856E+02  0.67892946884E+02  0.00000000000E+00 0. -1.
         -5    1    5    5    0  502  0.24294115018E+02 -0.16589098081E+02  0.25600842110E+03  0.25773591887E+03  0.47000000000E+01 0.  1.
         11    1    6    6    0    0  0.34543149790E+02 -0.20623817787E+02  0.62118157343E+02  0.74008354455E+02  0.00000000000E+00 0. -1.
        -12    1    6    6    0    0 -0.18682744545E+02 -0.32084026928E+02 -0.22451961471E+01  0.37195035063E+02  0.00000000000E+00 0.  1.
</event>
<event>
12    1  0.1035051E+000  0.1975785E+03  0.7818608E-02  0.1152433E+00
         21   -1    0    0  503  502  0.00000000000E+00  0.00000000000E+00  0.28148233590E+03  0.28148233590E+03  0.00000000000E+00 0. -1.
         21   -1    0    0  501  503 -0.00000000000E+00 -0.00000000000E+00 -0.16637790291E+03  0.16637790291E+03  0.00000000000E+00 0. -1.
          6    2    1    2  501    0 -0.87884603549E+02 -0.40522959378E+02 -0.36781076935E+02  0.20097289000E+03  0.17225400175E+03 0.  0.
         24    2    3    3    0    0 -0.85752591141E+01 -0.19557152290E+02  0.36775558130E+02  0.90690499099E+02  0.80101858134E+02 0.  0.
         -6    2    1    2    0  502  0.87884603549E+02  0.40522959378E+02  0.15188550993E+03  0.24688734880E+03  0.16887374306E+03 0.  0.
        -24    2    5    5    0    0  0.29391452808E+02 -0.10289340340E+02  0.14406655888E+03  0.16887091155E+03  0.82416523556E+02 0.  0.
          5    1    3    3  501    0 -0.79309344435E+02 -0.20965807088E+02 -0.73556635065E+02  0.11028239090E+03  0.47000000000E+01 0. -1.
        -13    1    4    4    0    0 -0.36025927917E+02 -0.86656488608E+01  0.46628151703E+02  0.59557917053E+02  0.00000000000E+00 0.  1.
         14    1    4    4    0    0  0.27450668803E+02 -0.10891503429E+02 -0.98525935735E+01  0.31132582045E+02  0.00000000000E+00 0. -1.
         -5    1    5    5    0  502  0.58493150741E+02  0.50812299718E+02  0.78189510414E+01  0.78016437253E+02  0.47000000000E+01 0.  1.
         13    1    6    6    0    0  0.25382466202E+02 -0.38102105030E+02  0.12921809311E+03  0.13708886018E+03  0.00000000000E+00 0. -1.
        -14    1    6    6    0    0  0.40089866058E+01  0.27812764690E+02  0.14848465775E+02  0.31782051368E+02  0.00000000000E+00 0.  1.
</event>
<event>
12    1  0.1035051E+000  0.3744268E+03  0.7818608E-02  0.1053058E+00
         21   -1    0    0  503  502  0.00000000000E+00  0.00000000000E+00  0.75703494842E+03  0.75703494842E+03  0.00000000000E+00 0.  1.
         21   -1    0    0  501  503 -0.00000000000E+00 -0.00000000000E+00 -0.18591954406E+03  0.18591954406E+03  0.00000000000E+00 0. -1.
          6    2    1    2  501    0  0.69537526851E+02 -0.32493238004E+03  0.25142203282E+03  0.45061387442E+03  0.17153223018E+03 0.  0.
         24    2    3    3    0    0  0.79692827527E+02 -0.13319199044E+03  0.16780520625E+03  0.24113506685E+03  0.76788541737E+02 0.  0.
         -6    2    1    2    0  502 -0.69537526851E+02  0.32493238004E+03  0.31969337153E+03  0.49234061805E+03  0.17256567775E+03 0.  0.
        -24    2    5    5    0    0 -0.20602258562E+02  0.21976647216E+03  0.12711613868E+03  0.26747930684E+03  0.81638909429E+02 0.  0.
          5    1    3    3  501    0 -0.10155300675E+02 -0.19174038960E+03  0.83616826573E+02  0.20947880757E+03  0.47000000000E+01 0. -1.
        -11    1    4    4    0    0  0.68336698794E+01 -0.17516751501E+02  0.71448816105E+02  0.73881452002E+02  0.00000000000E+00 0.  1.
         12    1    4    4    0    0  0.72859157647E+02 -0.11567523894E+03  0.96356390146E+02  0.16725361485E+03  0.00000000000E+00 0. -1.
         -5    1    5    5    0  502 -0.48935268289E+02  0.10516590788E+03  0.19257723286E+03  0.22486131121E+03  0.47000000000E+01 0.  1.
         11    1    6    6    0    0  0.24089405104E+02  0.12651389413E+03  0.48645910907E+02  0.13766804094E+03  0.00000000000E+00 0. -1.
        -12    1    6    6    0    0 -0.44691663666E+02  0.93252578029E+02  0.78470227771E+02  0.12981126591E+03  0.00000000000E+00 0.  1.
</event>
<event>
12    1  0.1035051E+000  0.2016843E+03  0.7818608E-02  0.1148418E+00
         21   -1    0    0  501  502  0.00000000000E+00  0.00000000000E+00  0.15858639079E+03  0.15858639079E+03  0.00000000000E+00 0. -1.
         21   -1    0    0  502  503 -0.00000000000E+00 -0.00000000000E+00 -0.26888364055E+03  0.26888364055E+03  0.00000000000E+00 0. -1.
         -6    2    1    2    0  503  0.31307340404E+02  0.99089288866E+02 -0.81806562029E+01  0.20140734622E+03  0.17233444010E+03 0.  0.
        -24    2    3    3    0    0  0.24174074103E+02  0.35198921864E+02  0.59353381375E+02  0.10804890410E+03  0.79551190048E+02 0.  0.
          6    2    1    2  501    0 -0.31307340404E+02 -0.99089288866E+02 -0.10211659356E+03  0.22606268511E+03  0.17285167685E+03 0.  0.
         24    2    5    5    0    0 -0.11563100819E+02 -0.13492144248E+03 -0.62520699233E+02  0.16893385634E+03  0.79324076065E+02 0.  0.
          5    1    5    5  501    0 -0.19744239585E+02  0.35832153618E+02 -0.39595894322E+02  0.57128828772E+02  0.47000000000E+01 0. -1.
        -11    1    6    6    0    0 -0.35661350388E+02 -0.10206646543E+03 -0.19831543875E+02  0.10992081427E+03  0.00000000000E+00 0.  1.
         12    1    6    6    0    0  0.24098249569E+02 -0.32854977050E+02 -0.42689155358E+02  0.59013042070E+02  0.00000000000E+00 0. -1.
         -5    1    3    3    0  503  0.71332663015E+01  0.63890367002E+02 -0.67534037578E+02  0.93358442121E+02  0.47000000000E+01 0.  1.
         11    1    4    4    0    0  0.51371948742E+02  0.96649613939E+01  0.41217675611E+02  0.66568651624E+02  0.00000000000E+00 0. -1.
        -12    1    4    4    0    0 -0.27197874639E+02  0.25533960470E+02  0.18135705765E+02  0.41480252480E+02  0.00000000000E+00 0.  1.
</event>
<event>
12    1  0.1035051E+000  0.1784037E+03  0.7818608E-02  0.1169475E+00
         21   -1    0    0  503  502  0.00000000000E+00  0.00000000000E+00  0.39751460404E+03  0.39751460404E+03  0.00000000000E+00 0.  1.
         21   -1    0    0  501  503 -0.00000000000E+00 -0.00000000000E+00 -0.11111651927E+03  0.11111651927E+03  0.00000000000E+00 0.  1.
          6    2    1    2  501    0 -0.12561097533E+02  0.46056527237E+02  0.27796150585E+03  0.33002807780E+03  0.17139704935E+03 0.  0.
         24    2    3    3    0    0  0.49616577646E+02  0.33826388356E+02  0.22962805799E+03  0.25019167150E+03  0.79125205500E+02 0.  0.
         -6    2    1    2    0  502  0.12561097533E+02 -0.46056527237E+02  0.84365789151E+01  0.17860304552E+03  0.17189789740E+03 0.  0.
        -24    2    5    5    0    0  0.65338453165E+02 -0.61950765470E+02 -0.10612119692E+02  0.12009647328E+03  0.78762522845E+02 0.  0.
          5    1    3    3  501    0 -0.62177675180E+02  0.12230138882E+02  0.48333447862E+02  0.79836406295E+02  0.47000000000E+01 0. -1.
        -13    1    4    4    0    0  0.40811098679E+02 -0.97324454592E+01  0.17402750213E+03  0.17901351280E+03  0.00000000000E+00 0.  1.
         14    1    4    4    0    0  0.88054789673E+01  0.43558833815E+02  0.55600555864E+02  0.71178158697E+02  0.00000000000E+00 0. -1.
         -5    1    5    5    0  502 -0.52777355631E+02  0.15894238233E+02  0.19048698607E+02  0.58506572238E+02  0.47000000000E+01 0.  1.
         11    1    6    6    0    0  0.77834958934E+02 -0.28383593310E+02 -0.39408956788E+00  0.82849650018E+02  0.00000000000E+00 0. -1.
        -12    1    6    6    0    0 -0.12496505769E+02 -0.33567172161E+02 -0.10218030124E+02  0.37246823259E+02  0.00000000000E+00 0.  1.
</event>
<event>
12    1  0.1035051E+000  0.2578179E+03  0.7818608E-02  0.1108691E+00
         21   -1    0    0  501  502  0.00000000000E+00  0.00000000000E+00  0.31638163585E+03  0.31638163585E+03  0.00000000000E+00 0. -1.
         21   -1    0    0  502  503 -0.00000000000E+00 -0.00000000000E+00 -0.21647971469E+03  0.21647971469E+03  0.00000000000E+00 0. -1.
         -6    2    1    2    0  503 -0.10819932543E+03  0.15713007529E+03  0.13855622106E+00  0.25781797134E+03  0.17341606778E+03 0.  0.
        -24    2    3    3    0    0 -0.73907896823E+01  0.12984044821E+03 -0.94229497062E+01  0.15283894000E+03  0.79735712415E+02 0.  0.
          6    2    1    2  501    0  0.10819932543E+03 -0.15713007529E+03  0.99763364938E+02  0.27504337921E+03  0.17117002330E+03 0.  0.
         24    2    5    5    0    0  0.81774654511E+02 -0.62652999334E+02 -0.71772637292E+01  0.12984500052E+03  0.78712887120E+02 0.  0.
          5    1    5    5  501    0  0.26424670923E+02 -0.94477075952E+02  0.10694062867E+03  0.14519837869E+03  0.47000000000E+01 0. -1.
        -13    1    6    6    0    0 -0.27640597854E+01 -0.40021452384E+02 -0.12907107896E+02  0.42142023109E+02  0.00000000000E+00 0.  1.
         14    1    6    6    0    0  0.84538714296E+02 -0.22631546950E+02  0.57298441669E+01  0.87702977409E+02  0.00000000000E+00 0. -1.
         -5    1    3    3    0  503 -0.10080853575E+03  0.27289627076E+02  0.95615059272E+01  0.10497903134E+03  0.47000000000E+01 0.  1.
         11    1    4    4    0    0 -0.37626750831E+02  0.35294002472E+02 -0.14048430071E+02  0.53467722750E+02  0.00000000000E+00 0. -1.
        -12    1    4    4    0    0  0.30235961149E+02  0.94546445737E+02  0.46254803652E+01  0.99371217245E+02  0.00000000000E+00 0.  1.
</event>
<event>
12    1  0.1035051E+000  0.3846015E+03  0.7818608E-02  0.1049480E+00
         21   -1    0    0  503  502  0.00000000000E+00  0.00000000000E+00  0.57194744378E+03  0.57194744378E+03  0.00000000000E+00 0.  1.
         21   -1    0    0  501  503 -0.00000000000E+00 -0.00000000000E+00 -0.26521413097E+03  0.26521413097E+03  0.00000000000E+00 0.  1.
          6    2    1    2  501    0 -0.54445139886E+02 -0.33683854020E+03  0.22796065781E+03  0.44708430630E+03  0.17746503885E+03 0.  0.
         24    2    3    3    0    0  0.26087704652E+02 -0.95769188231E+02  0.55082051228E+02  0.13966102462E+03  0.81356399149E+02 0.  0.
         -6    2    1    2    0  502  0.54445139886E+02  0.33683854020E+03  0.78772655003E+02  0.39007726845E+03  0.17184489742E+03 0.  0.
        -24    2    5    5    0    0 -0.32702322153E+02  0.13594516737E+03  0.10485466479E+02  0.16064741534E+03  0.78403549932E+02 0.  0.
          5    1    3    3  501    0 -0.80532844538E+02 -0.24106935196E+03  0.17287860658E+03  0.30742328168E+03  0.47000000000E+01 0. -1.
        -11    1    4    4    0    0  0.37875999746E+02 -0.51810526403E+02  0.66831222718E+02  0.92657079238E+02  0.00000000000E+00 0.  1.
         12    1    4    4    0    0 -0.11788295094E+02 -0.43958661828E+02 -0.11749171490E+02  0.47003945384E+02  0.00000000000E+00 0. -1.
         -5    1    5    5    0  502  0.87147462039E+02  0.20089337282E+03  0.68287188524E+02  0.22942985311E+03  0.47000000000E+01 0.  1.
         13    1    6    6    0    0 -0.54655496065E+02  0.11425644559E+03  0.20282044591E+02  0.12826971560E+03  0.00000000000E+00 0. -1.
        -14    1    6    6    0    0  0.21953173912E+02  0.21688721788E+02 -0.97965781120E+01  0.32377699738E+02  0.00000000000E+00 0.  1.
</event>
<event>
12    1  0.1035051E+000  0.2831933E+03  0.7818608E-02  0.1094251E+00
         21   -1    0    0  503  502  0.00000000000E+00  0.00000000000E+00  0.63929889795E+03  0.63929889795E+03  0.00000000000E+00 0.  1.
         21   -1    0    0  501  503 -0.00000000000E+00 -0.00000000000E+00 -0.12958416479E+03  0.12958416479E+03  0.00000000000E+00 0.  1.
          6    2    1    2  501    0 -0.22164988128E+03  0.16168150621E+02  0.33204188924E+03  0.43640610452E+03  0.17552319757E+03 0.  0.
         24    2    3    3    0    0 -0.23071306369E+03  0.46364556096E+02  0.27170642505E+03  0.36816812083E+03  0.79656725783E+02 0.  0.
         -6    2    1    2    0  502  0.22164988128E+03 -0.16168150621E+02  0.17767284392E+03  0.33247695822E+03  0.17199770147E+03 0.  0.
        -24    2    5    5    0    0  0.79054553316E+02 -0.42300496131E+02  0.13753292076E+03  0.18197901647E+03  0.78499068589E+02 0.  0.
          5    1    3    3  501    0  0.90631824095E+01 -0.30196405475E+02  0.60335464196E+02  0.68237983695E+02  0.47000000000E+01 0. -1.
        -11    1    4    4    0    0 -0.62231743482E+02 -0.83843960644E+01  0.11782460960E+03  0.13351302042E+03  0.00000000000E+00 0.  1.
         12    1    4    4    0    0 -0.16848132021E+03  0.54748952161E+02  0.15388181544E+03  0.23465510040E+03  0.00000000000E+00 0. -1.
         -5    1    5    5    0  502  0.14259532796E+03  0.26132345509E+02  0.40139923162E+02  0.15049794175E+03  0.47000000000E+01 0.  1.
         13    1    6    6    0    0 -0.15054926616E+02 -0.12837995448E+02  0.15831485595E+02  0.25339709522E+02  0.00000000000E+00 0. -1.
        -14    1    6    6    0    0  0.94109479932E+02 -0.29462500683E+02  0.12170143516E+03  0.15663930695E+03  0.00000000000E+00 0.  1.
</event>
<event>
12    1  0.1035051E+000  0.2497796E+03  0.7818608E-02  0.1114096E+00
         21   -1    0    0  503  502  0.00000000000E+00  0.00000000000E+00  0.50180004910E+03  0.50180004910E+03  0.00000000000E+00 0.  1.
         21   -1    0    0  501  503 -0.00000000000E+00 -0.00000000000E+00 -0.12349830045E+03  0.12349830045E+03  0.00000000000E+00 0.  1.
          6    2    1    2  501    0  0.12720630345E+03 -0.12241433674E+03  0.15689874423E+03  0.29151826840E+03  0.17087706516E+03 0.  0.
         24    2    3    3    0    0  0.55750119416E+02 -0.91232702577E+01  0.32973877739E+02  0.10897973955E+03  0.87166490952E+02 0.  0.
         -6    2    1    2    0  502 -0.12720630345E+03  0.12241433674E+03  0.22140300442E+03  0.33378008115E+03  0.17670070382E+03 0.  0.
        -24    2    5    5    0    0 -0.19604030656E+02  0.90774056701E+02  0.17126636288E+03  0.21083647922E+03  0.80595325718E+02 0.  0.
          5    1    3    3  501    0  0.71456184032E+02 -0.11329106648E+03  0.12392486649E+03  0.18253852885E+03  0.47000000000E+01 0. -1.
        -13    1    4    4    0    0  0.15279208779E+02  0.17030525146E+02  0.52281839931E+02  0.57069114188E+02  0.00000000000E+00 0.  1.
         14    1    4    4    0    0  0.40470910636E+02 -0.26153795403E+02 -0.19307962192E+02  0.51910625365E+02  0.00000000000E+00 0. -1.
         -5    1    5    5    0  502 -0.10760227279E+03  0.31640280039E+02  0.50136641547E+02  0.12294360193E+03  0.47000000000E+01 0.  1.
         11    1    6    6    0    0 -0.39432946288E+02  0.89775876081E+02  0.16093934509E+03  0.18845725769E+03  0.00000000000E+00 0. -1.
        -12    1    6    6    0    0  0.19828915632E+02  0.99818061978E+00  0.10327017789E+02  0.22379221526E+02  0.00000000000E+00 0.  1.
</event>
<event>
12    1  0.1035051E+000  0.2041279E+03  0.7818608E-02  0.1146314E+00
         21   -1    0    0  501  502  0.00000000000E+00  0.00000000000E+00  0.14048462944E+04  0.14048462944E+04  0.00000000000E+00 0. -1.
         21   -1    0    0  502  503 -0.00000000000E+00 -0.00000000000E+00 -0.32303115677E+02  0.32303115677E+02  0.00000000000E+00 0. -1.
         -6    2    1    2    0  503 -0.89189512767E+02  0.64539050944E+02  0.48051133774E+03  0.52207214550E+03  0.17189566929E+03 0.  0.
        -24    2    3    3    0    0 -0.58568451963E+02 -0.13746545573E+02  0.37032568154E+03  0.38340256404E+03  0.78975848397E+02 0.  0.
          6    2    1    2  501    0  0.89189512767E+02 -0.64539050944E+02  0.89203184099E+03  0.91507726459E+03  0.17182996405E+03 0.  0.
         24    2    5    5    0    0  0.10986461038E+03 -0.84557910150E+02  0.84489268522E+03  0.85964799081E+03  0.77011335362E+02 0.  0.
          5    1    5    5  501    0 -0.20675097617E+02  0.20018859206E+02  0.47139155763E+02  0.55429273777E+02  0.47000000000E+01 0. -1.
        -11    1    6    6    0    0  0.10544165848E+03 -0.60383723957E+02  0.79270494442E+03  0.80196338219E+03  0.00000000000E+00 0.  1.
         12    1    6    6    0    0  0.44229519081E+01 -0.24174186193E+02  0.52187740801E+02  0.57684608620E+02  0.00000000000E+00 0. -1.
         -5    1    3    3    0  503 -0.30621060803E+02  0.78285596517E+02  0.11018565621E+03  0.13866958145E+03  0.47000000000E+01 0.  1.
         13    1    4    4    0    0 -0.58066508447E+02  0.18565444902E+02  0.29820896122E+03  0.30437637835E+03  0.00000000000E+00 0. -1.
        -14    1    4    4    0    0 -0.50194351613E+00 -0.32311990475E+02  0.72116720320E+02  0.79026185694E+02  0.00000000000E+00 0.  1.
</event>
<event>
12    1  0.1035051E+000  0.2182527E+03  0.7818608E-02  0.1135885E+00
         21   -1    0    0  501  502  0.00000000000E+00  0.00000000000E+00  0.20137715306E+03  0.20137715306E+03  0.00000000000E+00 0. -1.
         21   -1    0    0  502  503 -0.00000000000E+00 -0.00000000000E+00 -0.31102358095E+03  0.31102358095E+03  0.00000000000E+00 0. -1.
         -6    2    1    2    0  503 -0.19786446182E+02  0.13187161531E+03  0.74162285256E+02  0.22705901913E+03  0.16814912202E+03 0.  0.
        -24    2    3    3    0    0 -0.40776139528E+02  0.80513654779E+02  0.10451877285E+03  0.16364124816E+03  0.87801720141E+02 0.  0.
          6    2    1    2  501    0  0.19786446182E+02 -0.13187161531E+03 -0.18380871315E+03  0.28534171488E+03  0.17277912155E+03 0.  0.
         24    2    5    5    0    0 -0.41409928276E+02 -0.11820061897E+03 -0.15880283588E+03  0.21767136476E+03  0.80475548258E+02 0.  0.
          5    1    5    5  501    0  0.61196374458E+02 -0.13670996334E+02 -0.25005877272E+02  0.67670350122E+02  0.47000000000E+01 0. -1.
        -11    1    6    6    0    0 -0.13918721118E+02  0.14601531999E+01 -0.55434303812E+02  0.57173638016E+02  0.00000000000E+00 0.  1.
         12    1    6    6    0    0 -0.27491207158E+02 -0.11966077217E+03 -0.10336853207E+03  0.16049772674E+03  0.00000000000E+00 0. -1.
         -5    1    3    3    0  503  0.20989693347E+02  0.51357960526E+02 -0.30356487590E+02  0.63417770972E+02  0.47000000000E+01 0.  1.
         11    1    4    4    0    0 -0.13098717396E+02 -0.16813167971E+02  0.53774578402E+01  0.21981266284E+02  0.00000000000E+00 0. -1.
        -12    1    4    4    0    0 -0.27677422132E+02  0.97326822750E+02  0.99141315006E+02  0.14165998187E+03  0.00000000000E+00 0.  1.
</event>
<event>
12    1  0.1035051E+000  0.5184215E+03  0.7818608E-02  0.1009226E+00
         21   -1    0    0  501  502  0.00000000000E+00  0.00000000000E+00  0.96965441950E+03  0.96965441950E+03  0.00000000000E+00 0. -1.
         21   -1    0    0  502  503 -0.00000000000E+00 -0.00000000000E+00 -0.30069282591E+03  0.30069282591E+03  0.00000000000E+00 0. -1.
         -6    2    1    2    0  503  0.48966789493E+03  0.86668946544E+01  0.51608985337E+03  0.72985613941E+03  0.16276205054E+03 0.  0.
        -24    2    3    3    0    0  0.33735089594E+03 -0.49576837023E+02  0.33113011697E+03  0.48322890136E+03  0.87175265882E+02 0.  0.
          6    2    1    2  501    0 -0.48966789493E+03 -0.86668946544E+01  0.15287174021E+03  0.54049110600E+03  0.17003265664E+03 0.  0.
         24    2    5    5    0    0 -0.25581559514E+03 -0.56341585037E+02  0.37014381969E+02  0.27515209327E+03  0.75647981042E+02 0.  0.
          5    1    5    5  501    0 -0.23385229978E+03  0.47674690383E+02  0.11585735824E+03  0.26533901273E+03  0.47000000000E+01 0. -1.
        -11    1    6    6    0    0 -0.26096630687E+03 -0.53140777693E+02  0.34348653190E+02  0.26852781150E+03  0.00000000000E+00 0.  1.
         12    1    6    6    0    0  0.51507117292E+01 -0.32008073437E+01  0.26657287792E+01  0.66242817643E+01  0.00000000000E+00 0. -1.
         -5    1    3    3    0  503  0.15231699899E+03  0.58243731677E+02  0.18495973641E+03  0.24662723806E+03  0.47000000000E+01 0.  1.
         11    1    4    4    0    0  0.63151172357E+00  0.20883767283E+01 -0.45033293344E+01  0.50040083443E+01  0.00000000000E+00 0. -1.
        -12    1    4    4    0    0  0.33671938422E+03 -0.51665213751E+02  0.33563344630E+03  0.47822489301E+03  0.00000000000E+00 0.  1.
</event>
<event>
12    1  0.1133612E+000  0.2947987E+03  0.7818608E-02  0.1087932E+00
         21   -1    0    0  503  502  0.00000000000E+00  0.00000000000E+00  0.26085106556E+03  0.26085106556E+03  0.00000000000E+00 0.  1.
         21   -1    0    0  501  503 -0.00000000000E+00 -0.00000000000E+00 -0.60416657185E+03  0.60416657185E+03  0.00000000000E+00 0.  1.
          6    2    1    2  501    0  0.21057054261E+03 -0.11335441658E+03  0.11838252198E+03  0.31722994049E+03  0.17155534519E+03 0.  0.
         24    2    3    3    0    0  0.15585192204E+03 -0.14547630410E+03  0.11227504073E+03  0.25331331964E+03  0.78158662185E+02 0.  0.
         -6    2    1    2    0  502 -0.21057054261E+03  0.11335441658E+03 -0.46169802827E+03  0.54778769691E+03  0.17238652619E+03 0.  0.
        -24    2    5    5    0    0 -0.21002376183E+03  0.63511843424E+02 -0.42790812280E+03  0.48738547195E+03  0.79344199083E+02 0.  0.
          5    1    3    3  501    0  0.54718620563E+02  0.32121887523E+02  0.61074812507E+01  0.63916620856E+02  0.47000000000E+01 0. -1.
        -13    1    4    4    0    0 -0.34245149704E+01 -0.20602518043E+02 -0.18420437394E+01  0.20966262844E+02  0.00000000000E+00 0.  1.
         14    1    4    4    0    0  0.15927643701E+03 -0.12487378606E+03  0.11411708447E+03  0.23234705679E+03  0.00000000000E+00 0. -1.
         -5    1    5    5    0  502 -0.54678077461E+00  0.49842573157E+02 -0.33789905472E+02  0.60402224959E+02  0.47000000000E+01 0.  1.
         13    1    6    6    0    0 -0.13399122284E+03  0.73307419819E+02 -0.32462913553E+03  0.35876413035E+03  0.00000000000E+00 0. -1.
        -14    1    6    6    0    0 -0.76032538997E+02 -0.97955763943E+01 -0.10327898727E+03  0.12862134160E+03  0.00000000000E+00 0.  1.
</event>
<event>
12    1  0.1035051E+000  0.2661950E+03  0.7818608E-02  0.1103544E+00
         21   -1    0    0  503  502  0.00000000000E+00  0.00000000000E+00  0.55197730874E+02  0.55197730874E+02  0.00000000000E+00 0. -1.
         21   -1    0    0  501  503 -0.00000000000E+00 -0.00000000000E+00 -0.21446281297E+04  0.21446281297E+04  0.00000000000E+00 0.  1.
          6    2    1    2  501    0  0.19093453221E+03 -0.67791575719E+02 -0.34748473710E+03  0.43772757230E+03  0.17265020040E+03 0.  0.
         24    2    3    3    0    0  0.37860119093E+02 -0.70819430000E+02 -0.12483918174E+03  0.16747939529E+03  0.77561242029E+02 0.  0.
         -6    2    1    2    0  502 -0.19093453221E+03  0.67791575719E+02 -0.17419456617E+04  0.17620982883E+04  0.17194183854E+03 0.  0.
        -24    2    5    5    0    0 -0.13660842244E+03  0.79622662802E+02 -0.84428280574E+03  0.86270293926E+03  0.80257559343E+02 0.  0.
          5    1    3    3  501    0  0.15307441312E+03  0.30278542811E+01 -0.22264555536E+03  0.27024817700E+03  0.47000000000E+01 0. -1.
        -13    1    4    4    0    0 -0.30850603172E+01 -0.53246329529E+02 -0.10686163428E+03  0.11943239965E+03  0.00000000000E+00 0.  1.
         14    1    4    4    0    0  0.40945179410E+02 -0.17573100471E+02 -0.17977547463E+02  0.48046995639E+02  0.00000000000E+00 0. -1.
         -5    1    5    5    0  502 -0.54326109775E+02 -0.11831087083E+02 -0.89766285600E+03  0.89939534904E+03  0.47000000000E+01 0.  1.
         11    1    6    6    0    0 -0.10315811706E+03  0.83509213986E+02 -0.76704844295E+03  0.77844633711E+03  0.00000000000E+00 0. -1.
        -12    1    6    6    0    0 -0.33450305376E+02 -0.38865511841E+01 -0.77234362792E+02  0.84256602149E+02  0.00000000000E+00 0.  1.
</event>
<event>
12    1  0.1035051E+000  0.1784771E+03  0.7818608E-02  0.1169616E+00
         21   -1    0    0  501  502  0.00000000000E+00  0.00000000000E+00  0.10660786923E+04  0.10660786923E+04  0.00000000000E+00 0.  1.
         21   -1    0    0  502  503 -0.00000000000E+00 -0.00000000000E+00 -0.38736288725E+02  0.38736288725E+02  0.00000000000E+00 0.  1.
         -6    2    1    2    0  503 -0.42214658065E+02 -0.30131313192E+02  0.77965588502E+03  0.79952380789E+03  0.16936660520E+03 0.  0.
        -24    2    3    3    0    0  0.28374091040E+02 -0.35860308899E+02  0.23290698070E+03  0.24818720720E+03  0.72527080199E+02 0.  0.
          6    2    1    2  501    0  0.42214658065E+02  0.30131313192E+02  0.24768651858E+03  0.30529117316E+03  0.17077504364E+03 0.  0.
         24    2    5    5    0    0 -0.16851905718E+02 -0.33715089124E+02  0.13942674513E+03  0.16633977664E+03  0.82513090319E+02 0.  0.
          5    1    5    5  501    0  0.59066563783E+02  0.63846402316E+02  0.10825977345E+03  0.13895139651E+03  0.47000000000E+01 0. -1.
        -11    1    6    6    0    0  0.98416955636E+01 -0.22259469760E+02  0.43174531361E+00  0.24341926168E+02  0.00000000000E+00 0.  1.
         12    1    6    6    0    0 -0.26693601281E+02 -0.11455619364E+02  0.13899499982E+03  0.14199785048E+03  0.00000000000E+00 0. -1.
         -5    1    3    3    0  503 -0.70588749105E+02  0.57289957071E+01  0.54674890432E+03  0.55133660070E+03  0.47000000000E+01 0.  1.
         11    1    4    4    0    0  0.21764392315E+02  0.16764587921E+02  0.43116678330E+02  0.51125220109E+02  0.00000000000E+00 0. -1.
        -12    1    4    4    0    0  0.66096987252E+01 -0.52624896820E+02  0.18979030237E+03  0.19706198709E+03  0.00000000000E+00 0.  1.
</event>
<event>
12    1  0.1035051E+000  0.2602077E+03  0.7818608E-02  0.1108346E+00
         21   -1    0    0  503  502  0.00000000000E+00  0.00000000000E+00  0.62194032725E+03  0.62194032725E+03  0.00000000000E+00 0. -1.
         21   -1    0    0  501  503 -0.00000000000E+00 -0.00000000000E+00 -0.10610326365E+03  0.10610326365E+03  0.00000000000E+00 0. -1.
          6    2    1    2  501    0 -0.19001084351E+03  0.43406100700E+02  0.22982550552E+03  0.34717114498E+03  0.17239440446E+03 0.  0.
         24    2    3    3    0    0 -0.70092539225E+02 -0.40455962819E+02  0.10784978726E+03  0.15661036401E+03  0.79659152139E+02 0.  0.
         -6    2    1    2    0  502  0.19001084351E+03 -0.43406100700E+02  0.28601155808E+03  0.38087244592E+03  0.15897483598E+03 0.  0.
        -24    2    5    5    0    0  0.91733988009E+02 -0.32203493475E+02  0.24021475500E+03  0.27177031070E+03  0.81876637166E+02 0.  0.
          5    1    3    3  501    0 -0.11991830429E+03  0.83862063519E+02  0.12197571826E+03  0.19056078098E+03  0.47000000000E+01 0. -1.
        -11    1    4    4    0    0 -0.67062168321E+02 -0.60099962080E+01  0.34806161961E+02  0.75795272839E+02  0.00000000000E+00 0.  1.
         12    1    4    4    0    0 -0.30303709049E+01 -0.34445966611E+02  0.73043625298E+02  0.80815091167E+02  0.00000000000E+00 0. -1.
         -5    1    5    5    0  502  0.98276855503E+02 -0.11202607225E+02  0.45796803084E+02  0.10910213522E+03  0.47000000000E+01 0.  1.
         11    1    6    6    0    0 -0.15012790193E+02 -0.50825447156E+01  0.43855162375E+02  0.46631442152E+02  0.00000000000E+00 0. -1.
        -12    1    6    6    0    0  0.10674677820E+03 -0.27120948759E+02  0.19635959262E+03  0.22513886855E+03  0.00000000000E+00 0.  1.
</event>
<event>
12    1  0.1035051E+000  0.1856529E+03  0.7818608E-02  0.1162924E+00
         21   -1    0    0  503  502  0.00000000000E+00  0.00000000000E+00  0.10820837311E+03  0.10820837311E+03  0.00000000000E+00 0.  1.
         21   -1    0    0  501  503 -0.00000000000E+00 -0.00000000000E+00 -0.40862931371E+03  0.40862931371E+03  0.00000000000E+00 0.  1.
          6    2    1    2  501    0  0.64957393557E+02 -0.84983194224E+01 -0.27156415639E+02  0.18762854244E+03  0.17371043325E+03 0.  0.
         24    2    3    3    0    0  0.25768198553E+01  0.48285097287E+02 -0.40429197513E+02  0.10210691286E+03  0.80331880478E+02 0.  0.
         -6    2    1    2    0  502 -0.64957393557E+02  0.84983194224E+01 -0.27326452496E+03  0.32920914438E+03  0.17150357353E+03 0.  0.
        -24    2    5    5    0    0 -0.10063965369E+03  0.10807268160E+02 -0.26202268140E+03  0.29143317346E+03  0.77667703004E+02 0.  0.
          5    1    3    3  501    0  0.62380573702E+02 -0.56783416710E+02  0.13272781874E+02  0.85521629587E+02  0.47000000000E+01 0. -1.
        -11    1    4    4    0    0  0.38722071024E+02  0.84629292467E+01 -0.12845443851E+02  0.41665637924E+02  0.00000000000E+00 0.  1.
         12    1    4    4    0    0 -0.36145251169E+02  0.39822168040E+02 -0.27583753662E+02  0.60441274934E+02  0.00000000000E+00 0. -1.
         -5    1    5    5    0  502  0.35682260130E+02 -0.23089487375E+01 -0.11241843564E+02  0.37775970920E+02  0.47000000000E+01 0.  1.
         11    1    6    6    0    0 -0.10430548663E+03  0.15178394510E+02 -0.17548116041E+03  0.20470382473E+03  0.00000000000E+00 0. -1.
        -12    1    6    6    0    0  0.36658329450E+01 -0.43711263504E+01 -0.86541520984E+02  0.86729348729E+02  0.00000000000E+00 0.  1.
</event>
<event>
12    1  0.1035051E+000  0.1959263E+03  0.7818608E-02  0.1153778E+00
         21   -1    0    0  503  502  0.00000000000E+00  0.00000000000E+00  0.20446922269E+04  0.20446922269E+04  0.00000000000E+00 0.  1.
         21   -1    0    0  501  503 -0.00000000000E+00 -0.00000000000E+00 -0.19333592297E+02  0.19333592297E+02  0.00000000000E+00 0.  1.
          6    2    1    2  501    0  0.88198748403E+02  0.21463857178E+02  0.12293463411E+04  0.12448612473E+04  0.17363001553E+03 0.  0.
         24    2    3    3    0    0  0.11296566179E+03  0.56558486859E+02  0.89672226362E+03  0.90944225567E+03  0.83751388970E+02 0.  0.
         -6    2    1    2    0  502 -0.88198748403E+02 -0.21463857178E+02  0.79601229351E+03  0.81916457190E+03  0.17074925488E+03 0.  0.
        -24    2    5    5    0    0 -0.11972866306E+03  0.10065294926E+02  0.67052949862E+03  0.68591201183E+03  0.80182395409E+02 0.  0.
          5    1    3    3  501    0 -0.24766913384E+02 -0.35094629681E+02  0.33262407744E+03  0.33541899160E+03  0.47000000000E+01 0. -1.
        -11    1    4    4    0    0  0.18985659969E+02  0.38141173637E+02  0.47860648988E+03  0.48049909112E+03  0.00000000000E+00 0.  1.
         12    1    4    4    0    0  0.93980001818E+02  0.18417313221E+02  0.41811577374E+03  0.42894316456E+03  0.00000000000E+00 0. -1.
         -5    1    5    5    0  502  0.31529914653E+02 -0.31529152104E+02  0.12548279489E+03  0.13325256006E+03  0.47000000000E+01 0.  1.
         13    1    6    6    0    0 -0.42186246004E+02  0.42164300808E+02  0.24198760805E+03  0.24922983382E+03  0.00000000000E+00 0. -1.
        -14    1    6    6    0    0 -0.77542417051E+02 -0.32099005881E+02  0.42854189058E+03  0.43668217802E+03  0.00000000000E+00 0.  1.
</event>
<event>
12    1  0.1035051E+000  0.1770994E+03  0.7818608E-02  0.1170829E+00
         21   -1    0    0  503  502  0.00000000000E+00  0.00000000000E+00  0.28171411701E+03  0.28171411701E+03  0.00000000000E+00 0. -1.
         21   -1    0    0  501  503 -0.00000000000E+00 -0.00000000000E+00 -0.11593674735E+03  0.11593674735E+03  0.00000000000E+00 0. -1.
          6    2    1    2  501    0  0.28530752832E+02  0.20431625363E+02  0.41087525165E+02  0.18105966124E+03  0.17280903053E+03 0.  0.
         24    2    3    3    0    0 -0.19950272032E+02  0.66239045484E+02  0.39272834970E+02  0.11417085343E+03  0.81896298488E+02 0.  0.
         -6    2    1    2    0  502 -0.28530752832E+02 -0.20431625363E+02  0.12468984449E+03  0.21659120312E+03  0.17358783592E+03 0.  0.
        -24    2    5    5    0    0 -0.30871395340E+02  0.53255478987E+02  0.50337204408E+02  0.11177864165E+03  0.78558522700E+02 0.  0.
          5    1    3    3  501    0  0.48481024864E+02 -0.45807420121E+02  0.18146901955E+01  0.66888807812E+02  0.47000000000E+01 0. -1.
        -11    1    4    4    0    0  0.26548684355E+02  0.50069843800E+02  0.12139070447E+02  0.57958424154E+02  0.00000000000E+00 0.  1.
         12    1    4    4    0    0 -0.46498956387E+02  0.16169201684E+02  0.27133764523E+02  0.56212429278E+02  0.00000000000E+00 0. -1.
         -5    1    5    5    0  502  0.23406425089E+01 -0.73687104350E+02  0.74352640086E+02  0.10481256147E+03  0.47000000000E+01 0.  1.
         11    1    6    6    0    0 -0.32502974988E+02  0.38225826770E+02 -0.86223637900E+01  0.50911711547E+02  0.00000000000E+00 0. -1.
        -12    1    6    6    0    0  0.16315796474E+01  0.15029652217E+02  0.58959568198E+02  0.60866930102E+02  0.00000000000E+00 0.  1.
</event>
<event>
12    1  0.1035051E+000  0.2374485E+03  0.7818608E-02  0.1121587E+00
         21   -1    0    0  503  502  0.00000000000E+00  0.00000000000E+00  0.33812144716E+02  0.33812144716E+02  0.00000000000E+00 0. -1.
         21   -1    0    0  501  503 -0.00000000000E+00 -0.00000000000E+00 -0.17241556103E+04  0.17241556103E+04  0.00000000000E+00 0. -1.
          6    2    1    2  501    0 -0.15738596364E+03 -0.41661433323E+02 -0.68190016792E+03  0.72205929457E+03  0.17284608555E+03 0.  0.
         24    2    3    3    0    0 -0.57102253066E+02 -0.50972197382E+02 -0.51956548509E+03  0.53096206229E+03  0.78189424400E+02 0.  0.
         -6    2    1    2    0  502  0.15738596364E+03  0.41661433323E+02 -0.10084432977E+04  0.10359084605E+04  0.17216979190E+03 0.  0.
        -24    2    5    5    0    0  0.10717877835E+03  0.42472574387E+02 -0.94258223622E+03  0.95295552910E+03  0.79823294289E+02 0.  0.
          5    1    3    3  501    0 -0.10028371058E+03  0.93107640586E+01 -0.16233468283E+03  0.19109723228E+03  0.47000000000E+01 0. -1.
        -13    1    4    4    0    0 -0.54728312552E+02 -0.45646250174E+02 -0.21825835610E+03  0.22959851558E+03  0.00000000000E+00 0.  1.
         14    1    4    4    0    0 -0.23739405142E+01 -0.53259472077E+01 -0.30130712899E+03  0.30136354671E+03  0.00000000000E+00 0. -1.
         -5    1    5    5    0  502  0.50207185292E+02 -0.81114106442E+00 -0.65861061487E+02  0.82952931382E+02  0.47000000000E+01 0.  1.
         11    1    6    6    0    0 -0.35778698189E+01 -0.61318684559E+01 -0.23520921881E+03  0.23531633512E+03  0.00000000000E+00 0. -1.
        -12    1    6    6    0    0  0.11075664817E+03  0.48604442843E+02 -0.70737301741E+03  0.71763919398E+03  0.00000000000E+00 0.  1.
</event>
<event>
12    1  0.1035051E+000  0.2845462E+03  0.7818608E-02  0.1094480E+00
         21   -1    0    0  501  502  0.00000000000E+00  0.00000000000E+00  0.12530790515E+03  0.12530790515E+03  0.00000000000E+00 0.  1.
         21   -1    0    0  502  503 -0.00000000000E+00 -0.00000000000E+00 -0.69420005276E+03  0.69420005276E+03  0.00000000000E+00 0.  1.
         -6    2    1    2    0  503  0.64188094676E+01  0.21497515271E+03 -0.15973938852E+03  0.32631769104E+03  0.18630900633E+03 0.  0.
        -24    2    3    3    0    0  0.54917489150E+02  0.21262271566E+03 -0.11766873169E+03  0.26189963411E+03  0.80753564022E+02 0.  0.
          6    2    1    2  501    0 -0.64188094676E+01 -0.21497515271E+03 -0.40915275908E+03  0.49319026688E+03  0.17197424714E+03 0.  0.
         24    2    5    5    0    0  0.58080006840E+01 -0.16139719303E+03 -0.39816971391E+03  0.43695140193E+03  0.79401635872E+02 0.  0.
          5    1    5    5  501    0 -0.12226810152E+02 -0.53577959677E+02 -0.10983045171E+02  0.56238864950E+02  0.47000000000E+01 0. -1.
        -11    1    6    6    0    0 -0.12628712055E+02  0.12462328078E+01 -0.11755342333E+02  0.17298136829E+02  0.00000000000E+00 0.  1.
         12    1    6    6    0    0  0.18436712739E+02 -0.16264342584E+03 -0.38641437158E+03  0.41965326510E+03  0.00000000000E+00 0. -1.
         -5    1    3    3    0  503 -0.48498679682E+02  0.23524370492E+01 -0.42070656839E+02  0.64418056924E+02  0.47000000000E+01 0.  1.
         13    1    4    4    0    0  0.40637077321E+02  0.98304052471E+02 -0.98761574369E+02  0.14515132572E+03  0.00000000000E+00 0. -1.
        -14    1    4    4    0    0  0.14280411829E+02  0.11431866319E+03 -0.18907157316E+02  0.11674830840E+03  0.00000000000E+00 0.  1.
</event>
<event>
12    1  0.1035051E+000  0.1929693E+03  0.7818608E-02  0.1156291E+00
         21   -1    0    0  501  502  0.00000000000E+00  0.00000000000E+00  0.23115063942E+03  0.23115063942E+03  0.00000000000E+00 0. -1.
         21   -1    0    0  502  503 -0.00000000000E+00 -0.00000000000E+00 -0.17048233741E+03  0.17048233741E+03  0.00000000000E+00 0. -1.
         -6    2    1    2    0  503  0.34225485404E+02 -0.79484613028E+02  0.81614672367E+02  0.20753017605E+03  0.17005479019E+03 0.  0.
        -24    2    3    3    0    0 -0.26030730054E+02 -0.57397503731E+02  0.97094353765E+02  0.14134586949E+03  0.81112692892E+02 0.  0.
          6    2    1    2  501    0 -0.34225485404E+02  0.79484613028E+02 -0.20946370358E+02  0.19410280078E+03  0.17247596725E+03 0.  0.
         24    2    5    5    0    0  0.17834600557E+02  0.94651013289E+02  0.18747670097E+02  0.12673827677E+03  0.80213642055E+02 0.  0.
          5    1    5    5  501    0 -0.52060085961E+02 -0.15166400261E+02 -0.39694040454E+02  0.67364524008E+02  0.47000000000E+01 0. -1.
        -11    1    6    6    0    0  0.23226127887E+02  0.42470526458E+02 -0.28471036072E+02  0.56158690595E+02  0.00000000000E+00 0.  1.
         12    1    6    6    0    0 -0.53915273304E+01  0.52180486831E+02  0.47218706169E+02  0.70579586178E+02  0.00000000000E+00 0. -1.
         -5    1    3    3    0  503  0.60256215459E+02 -0.22087109297E+02 -0.15479681398E+02  0.66184306559E+02  0.47000000000E+01 0.  1.
         13    1    4    4    0    0 -0.23981875133E+02 -0.38042450195E+02  0.27933979140E+01  0.45057312654E+02  0.00000000000E+00 0. -1.
        -14    1    4    4    0    0 -0.20488549217E+01 -0.19355053536E+02  0.94300955851E+02  0.96288556840E+02  0.00000000000E+00 0.  1.
</event>
<event>
12    1  0.1035051E+000  0.1840999E+03  0.7818608E-02  0.1164328E+00
         21   -1    0    0  503  502  0.00000000000E+00  0.00000000000E+00  0.13777921037E+03  0.13777921037E+03  0.00000000000E+00 0. -1.
         21   -1    0    0  501  503 -0.00000000000E+00 -0.00000000000E+00 -0.25240264936E+03  0.25240264936E+03  0.00000000000E+00 0. -1.
          6    2    1    2  501    0 -0.59080287455E+02  0.25767714971E+01 -0.21027947969E+02  0.18529690582E+03  0.17434347878E+03 0.  0.
         24    2    3    3    0    0 -0.45722436076E+02  0.57092177013E+02  0.19656131908E+02  0.11581564225E+03  0.87617587458E+02 0.  0.
         -6    2    1    2    0  502  0.59080287455E+02 -0.25767714971E+01 -0.93595491026E+02  0.20488495391E+03  0.17239665971E+03 0.  0.
        -24    2    5    5    0    0  0.56383197763E+02 -0.50695858079E+02 -0.13486707884E+02  0.11127818106E+03  0.80323142833E+02 0.  0.
          5    1    3    3  501    0 -0.13357851380E+02 -0.54515405516E+02 -0.40684079877E+02  0.69481263572E+02  0.47000000000E+01 0. -1.
        -11    1    4    4    0    0  0.17832750760E+00  0.39215122569E+01  0.41939940640E+02  0.42123255809E+02  0.00000000000E+00 0.  1.
         12    1    4    4    0    0 -0.45900763583E+02  0.53170664756E+02 -0.22283808732E+02  0.73692386443E+02  0.00000000000E+00 0. -1.
         -5    1    5    5    0  502  0.26970896923E+01  0.48119086582E+02 -0.80108783142E+02  0.93606772847E+02  0.47000000000E+01 0.  1.
         13    1    6    6    0    0 -0.71915420008E+01 -0.21632655619E+02  0.23036066573E+02  0.32409110272E+02  0.00000000000E+00 0. -1.
        -14    1    6    6    0    0  0.63574739764E+02 -0.29063202460E+02 -0.36522774457E+02  0.78869070790E+02  0.00000000000E+00 0.  1.
</event>
<event>
12    1  0.1035051E+000  0.2130992E+03  0.7818608E-02  0.1139362E+00
         21   -1    0    0  503  502  0.00000000000E+00  0.00000000000E+00  0.58533635189E+02  0.58533635189E+02  0.00000000000E+00 0.  1.
         21   -1    0    0  501  503 -0.00000000000E+00 -0.00000000000E+00 -0.90352791174E+03  0.90352791174E+03  0.00000000000E+00 0. -1.
          6    2    1    2  501    0  0.50483861284E+02 -0.11289284372E+03 -0.60730817700E+03  0.64361050757E+03  0.17354494863E+03 0.  0.
         24    2    3    3    0    0 -0.58164672278E+01 -0.16566126101E+02 -0.38268798718E+03  0.39276218051E+03  0.86624286892E+02 0.  0.
         -6    2    1    2    0  502 -0.50483861284E+02  0.11289284372E+03 -0.23768609955E+03  0.31845103935E+03  0.17211324218E+03 0.  0.
        -24    2    5    5    0    0  0.24487314779E+02  0.20505115845E+02 -0.14086533908E+03  0.16498273918E+03  0.79725605110E+02 0.  0.
          5    1    3    3  501    0  0.56300328511E+02 -0.96326717620E+02 -0.22462018982E+03  0.25084832707E+03  0.47000000000E+01 0. -1.
        -11    1    4    4    0    0 -0.23043892950E+02 -0.11202372689E+02 -0.29337357425E+02  0.38951183510E+02  0.00000000000E+00 0.  1.
         12    1    4    4    0    0  0.17227425722E+02 -0.53637534122E+01 -0.35335062975E+03  0.35381099700E+03  0.00000000000E+00 0. -1.
         -5    1    5    5    0  502 -0.74971176062E+02  0.92387727875E+02 -0.96820760468E+02  0.15346830018E+03  0.47000000000E+01 0.  1.
         11    1    6    6    0    0  0.60948064759E+01  0.38425825326E+02 -0.13231611902E+03  0.13791753359E+03  0.00000000000E+00 0. -1.
        -12    1    6    6    0    0  0.18392508303E+02 -0.17920709480E+02 -0.85492200631E+01  0.27065205590E+02  0.00000000000E+00 0.  1.
</event>
<event>
12    1  0.1035051E+000  0.2000524E+03  0.7818608E-02  0.1151363E+00
         21   -1    0    0  503  502  0.00000000000E+00  0.00000000000E+00  0.95273434124E+02  0.95273434124E+02  0.00000000000E+00 0.  1.
         21   -1    0    0  501  503 -0.00000000000E+00 -0.00000000000E+00 -0.40539616273E+03  0.40539616273E+03  0.00000000000E+00 0.  1.
          6    2    1    2  501    0 -0.53133027666E+02 -0.85523620027E+02 -0.13709815982E+03  0.23617293920E+03  0.16384243520E+03 0.  0.
         24    2    3    3    0    0 -0.54473601377E+02 -0.11825436544E+03 -0.84410689835E+02  0.17395430592E+03  0.78635029074E+02 0.  0.
         -6    2    1    2    0  502  0.53133027666E+02  0.85523620027E+02 -0.17302456879E+03  0.26449665766E+03  0.17286865620E+03 0.  0.
        -24    2    5    5    0    0  0.89935344324E+02  0.61120382752E+02 -0.17101409276E+03  0.22004375545E+03  0.85728449443E+02 0.  0.
          5    1    3    3  501    0  0.13405737105E+01  0.32730745414E+02 -0.52687469988E+02  0.62218633278E+02  0.47000000000E+01 0. -1.
        -13    1    4    4    0    0 -0.44957865475E+01  0.56462123095E+01 -0.28029901539E+02  0.28944208236E+02  0.00000000000E+00 0.  1.
         14    1    4    4    0    0 -0.49977814829E+02 -0.12390057775E+03 -0.56380788296E+02  0.14501009769E+03  0.00000000000E+00 0. -1.
         -5    1    5    5    0  502 -0.36802316657E+02  0.24403237275E+02 -0.20104760275E+01  0.44452902208E+02  0.47000000000E+01 0.  1.
         11    1    6    6    0    0 -0.15119793162E+02  0.24884533318E+01 -0.36447874309E+02  0.39537932254E+02  0.00000000000E+00 0. -1.
        -12    1    6    6    0    0  0.10505513749E+03  0.58631929421E+02 -0.13456621845E+03  0.18050582320E+03  0.00000000000E+00 0.  1.
</event>
<event>
12    1  0.1035051E+000  0.1890325E+03  0.7818608E-02  0.1159338E+00
         21   -1    0    0  501  502  0.00000000000E+00  0.00000000000E+00  0.32193319973E+03  0.32193319973E+03  0.00000000000E+00 0.  1.
         21   -1    0    0  502  503 -0.00000000000E+00 -0.00000000000E+00 -0.11161082135E+03  0.11161082135E+03  0.00000000000E+00 0.  1.
         -6    2    1    2    0  503 -0.56398297313E+00 -0.78537134041E+02  0.12127654017E+03  0.22459140217E+03  0.17194446555E+03 0.  0.
        -24    2    3    3    0    0 -0.29463919054E+02 -0.11444759806E+03  0.95270100111E+02  0.17145767789E+03  0.79718053820E+02 0.  0.
          6    2    1    2  501    0  0.56398297313E+00  0.78537134041E+02  0.89045838209E+02  0.20895261890E+03  0.17194079255E+03 0.  0.
         24    2    5    5    0    0 -0.42980440735E+02  0.97724166257E+02  0.89334754101E+02  0.16113596371E+03  0.81158915435E+02 0.  0.
          5    1    5    5  501    0  0.43544423708E+02 -0.19187032216E+02 -0.28891589192E+00  0.47816655192E+02  0.47000000000E+01 0. -1.
        -11    1    6    6    0    0 -0.19564177923E+02  0.20318122184E+02  0.73504854330E+02  0.78730850097E+02  0.00000000000E+00 0.  1.
         12    1    6    6    0    0 -0.23416262812E+02  0.77406044073E+02  0.15829899771E+02  0.82405113615E+02  0.00000000000E+00 0. -1.
         -5    1    3    3    0  503  0.28899936081E+02  0.35910464018E+02  0.26006440063E+02  0.53133724283E+02  0.47000000000E+01 0.  1.
         11    1    4    4    0    0 -0.36299786065E+02 -0.42783014492E+02  0.80247763209E+02  0.97917129745E+02  0.00000000000E+00 0. -1.
        -12    1    4    4    0    0  0.68358670108E+01 -0.71664583567E+02  0.15022336902E+02  0.73540548146E+02  0.00000000000E+00 0.  1.
</event>
<event>
12    1  0.1035051E+000  0.1999446E+03  0.7818608E-02  0.1149916E+00
         21   -1    0    0  503  502  0.00000000000E+00  0.00000000000E+00  0.15517727705E+03  0.15517727705E+03  0.00000000000E+00 0.  1.
         21   -1    0    0  501  503 -0.00000000000E+00 -0.00000000000E+00 -0.25690355079E+03  0.25690355079E+03  0.00000000000E+00 0.  1.
          6    2    1    2  501    0  0.34014087902E+02 -0.94072649838E+02 -0.47317126810E+02  0.20486547136E+03  0.17240745124E+03 0.  0.
         24    2    3    3    0    0  0.80898719070E+02 -0.46756435627E+02 -0.59366069548E+02  0.13701077522E+03  0.80727041893E+02 0.  0.
         -6    2    1    2    0  502 -0.34014087902E+02  0.94072649838E+02 -0.54409146925E+02  0.20721535648E+03  0.17312200054E+03 0.  0.
        -24    2    5    5    0    0  0.32130515801E+02  0.10105653975E+03 -0.40086303361E+02  0.13901625704E+03  0.80460013247E+02 0.  0.
          5    1    3    3  501    0 -0.46884631169E+02 -0.47316214210E+02  0.12048942737E+02  0.67854696139E+02  0.47000000000E+01 0. -1.
        -13    1    4    4    0    0  0.54029015886E+02 -0.44470920769E+01  0.61085600555E+01  0.54554795311E+02  0.00000000000E+00 0.  1.
         14    1    4    4    0    0  0.26869703185E+02 -0.42309343550E+02 -0.65474629603E+02  0.82455979908E+02  0.00000000000E+00 0. -1.
         -5    1    5    5    0  502 -0.66144603702E+02 -0.69838899145E+01 -0.14322843564E+02  0.68199099444E+02  0.47000000000E+01 0.  1.
         11    1    6    6    0    0  0.45864598319E+01  0.66873594306E+02  0.14888682563E+02  0.68664300023E+02  0.00000000000E+00 0. -1.
        -12    1    6    6    0    0  0.27544055969E+02  0.34182945446E+02 -0.54974985924E+02  0.70351957016E+02  0.00000000000E+00 0.  1.
</event>
<event>
12    1  0.1035051E+000  0.1826192E+03  0.7818608E-02  0.1166015E+00
         21   -1    0    0  503  502  0.00000000000E+00  0.00000000000E+00  0.12402395428E+03  0.12402395428E+03  0.00000000000E+00 0.  1.
         21   -1    0    0  501  503 -0.00000000000E+00 -0.00000000000E+00 -0.28799470126E+03  0.28799470126E+03  0.00000000000E+00 0.  1.
          6    2    1    2  501    0  0.56617124806E+02  0.19081953426E+02 -0.14023062737E+03  0.22786280374E+03  0.16937298695E+03 0.  0.
         24    2    3    3    0    0 -0.34495910761E+02 -0.57657774708E+00 -0.72188772093E+02  0.11236463420E+03  0.78894181669E+02 0.  0.
         -6    2    1    2    0  502 -0.56617124806E+02 -0.19081953426E+02 -0.23740119611E+02  0.18415585179E+03  0.17256930405E+03 0.  0.
        -24    2    5    5    0    0 -0.55082814132E+02 -0.55527524294E+02  0.32917859745E+02  0.11660697786E+03  0.79976117858E+02 0.  0.
          5    1    3    3  501    0  0.91113035567E+02  0.19658531174E+02 -0.68041855275E+02  0.11549816954E+03  0.47000000000E+01 0. -1.
        -11    1    4    4    0    0  0.24880790239E+01  0.18993082861E+02  0.88960142147E+01  0.21120293622E+02  0.00000000000E+00 0.  1.
         12    1    4    4    0    0 -0.36983989785E+02 -0.19569660608E+02 -0.81084786307E+02  0.91244340576E+02  0.00000000000E+00 0. -1.
         -5    1    5    5    0  502 -0.15343106737E+01  0.36445570868E+02 -0.56657979356E+02  0.67548873935E+02  0.47000000000E+01 0.  1.
         11    1    6    6    0    0 -0.68013558938E+02 -0.33835730563E+02  0.45336436256E+02  0.88465209628E+02  0.00000000000E+00 0. -1.
        -12    1    6    6    0    0  0.12930744805E+02 -0.21691793731E+02 -0.12418576511E+02  0.28141768229E+02  0.00000000000E+00 0.  1.
</event>
<event>
12    1  0.1035051E+000  0.1890611E+03  0.7818608E-02  0.1159720E+00
         21   -1    0    0  501  502  0.00000000000E+00  0.00000000000E+00  0.29306518602E+04  0.29306518602E+04  0.00000000000E+00 0.  1.
         21   -1    0    0  502  503 -0.00000000000E+00 -0.00000000000E+00 -0.17302230373E+02  0.17302230373E+02  0.00000000000E+00 0.  1.
         -6    2    1    2    0  503 -0.61701008565E+02 -0.36961084778E+02  0.65184613581E+03  0.67871015190E+03  0.17484550116E+03 0.  0.
        -24    2    3    3    0    0 -0.43032808376E+02 -0.87480613812E+02  0.35232439762E+03  0.37434838334E+03  0.80619790138E+02 0.  0.
          6    2    1    2  501    0  0.61701008565E+02  0.36961084778E+02  0.22615034940E+04  0.22692439387E+04  0.17290709500E+03 0.  0.
         24    2    5    5    0    0 -0.29830325046E+02 -0.20737839488E+01  0.12165756932E+04  0.12195783229E+04  0.80129392459E+02 0.  0.
          5    1    5    5  501    0  0.91531333611E+02  0.39034868727E+02  0.10449278008E+04  0.10496656158E+04  0.47000000000E+01 0. -1.
        -13    1    6    6    0    0 -0.29519642463E+02  0.24655138390E+02  0.28090104037E+03  0.28352192088E+03  0.00000000000E+00 0.  1.
         14    1    6    6    0    0 -0.31068258352E+00 -0.26728922338E+02  0.93567465281E+03  0.93605640200E+03  0.00000000000E+00 0. -1.
         -5    1    3    3    0  503 -0.18668200188E+02  0.50519529035E+02  0.29952173819E+03  0.30436176855E+03  0.47000000000E+01 0.  1.
         11    1    4    4    0    0 -0.64767869911E+02 -0.72918280907E+02  0.24090078140E+03  0.25989447693E+03  0.00000000000E+00 0. -1.
        -12    1    4    4    0    0  0.21735061534E+02 -0.14562332906E+02  0.11142361622E+03  0.11445390641E+03  0.00000000000E+00 0.  1.
</event>
<event>
12    1  0.1035051E+000  0.1710285E+03  0.7818608E-02  0.1178257E+00
         21   -1    0    0  503  502  0.00000000000E+00  0.00000000000E+00  0.16362916703E+02  0.16362916703E+02  0.00000000000E+00 0. -1.
         21   -1    0    0  501  503 -0.00000000000E+00 -0.00000000000E+00 -0.17612180377E+04  0.17612180377E+04  0.00000000000E+00 0. -1.
          6    2    1    2  501    0 -0.70391251971E+01  0.11163353741E+01 -0.10060513439E+04  0.10204852086E+04  0.17087995473E+03 0.  0.
         24    2    3    3    0    0 -0.54571514763E+02 -0.38709094918E+02 -0.78803727032E+03  0.79377477824E+03  0.67817511809E+02 0.  0.
         -6    2    1    2    0  502  0.70391251971E+01 -0.11163353741E+01 -0.73880377714E+03  0.75709574584E+03  0.16526388524E+03 0.  0.
        -24    2    5    5    0    0  0.30814629224E+02  0.63906412592E+01 -0.19982609386E+03  0.21752122609E+03  0.79966457608E+02 0.  0.
          5    1    3    3  501    0  0.47532389566E+02  0.39825430292E+02 -0.21801407356E+03  0.22671043035E+03  0.47000000000E+01 0. -1.
        -11    1    4    4    0    0 -0.17114427353E+02 -0.51932483112E+02 -0.50798164985E+03  0.51091608216E+03  0.00000000000E+00 0.  1.
         12    1    4    4    0    0 -0.37457087410E+02  0.13223388194E+02 -0.28005562046E+03  0.28285869607E+03  0.00000000000E+00 0. -1.
         -5    1    5    5    0  502 -0.23775504027E+02 -0.75069766333E+01 -0.53897768328E+03  0.53957451975E+03  0.47000000000E+01 0.  1.
         11    1    6    6    0    0 -0.19070007034E+02 -0.17988227218E+02 -0.35939185186E+02  0.44484452549E+02  0.00000000000E+00 0. -1.
        -12    1    6    6    0    0  0.49884636259E+02  0.24378868477E+02 -0.16388690867E+03  0.17303677354E+03  0.00000000000E+00 0.  1.
</event>
<event>
12    1  0.1035051E+000  0.2282370E+03  0.7818608E-02  0.1129041E+00
         21   -1    0    0  501  502  0.00000000000E+00  0.00000000000E+00  0.59513643734E+02  0.59513643734E+02  0.00000000000E+00 0. -1.
         21   -1    0    0  502  503 -0.00000000000E+00 -0.00000000000E+00 -0.94279784498E+03  0.94279784498E+03  0.00000000000E+00 0.  1.
         -6    2    1    2    0  503 -0.55600147326E+02 -0.13862679174E+03 -0.59239174174E+03  0.63256760873E+03  0.16402755915E+03 0.  0.
        -24    2    3    3    0    0  0.17166814265E+02 -0.45596424989E+02 -0.17050047720E+03  0.19443063365E+03  0.79744122620E+02 0.  0.
          6    2    1    2  501    0  0.55600147326E+02  0.13862679174E+03 -0.29089245951E+03  0.36974387999E+03  0.17257853290E+03 0.  0.
         24    2    5    5    0    0  0.63920617111E+01  0.10249301924E+02 -0.91156545849E+02  0.12721812716E+03  0.87914898528E+02 0.  0.
          5    1    5    5  501    0  0.49208085615E+02  0.12837748982E+03 -0.19973591367E+03  0.24252575284E+03  0.47000000000E+01 0. -1.
        -13    1    6    6    0    0  0.40364787178E+02 -0.16201936158E+02 -0.59841832620E+02  0.73978805820E+02  0.00000000000E+00 0.  1.
         14    1    6    6    0    0 -0.33972725467E+02  0.26451238083E+02 -0.31314713229E+02  0.53239321336E+02  0.00000000000E+00 0. -1.
         -5    1    3    3    0  503 -0.72766961591E+02 -0.93030366750E+02 -0.42189126454E+03  0.43813697508E+03  0.47000000000E+01 0.  1.
         13    1    4    4    0    0 -0.10593581704E+02  0.18963231492E+02 -0.56236665673E+02  0.60285907873E+02  0.00000000000E+00 0. -1.
        -14    1    4    4    0    0  0.27760395969E+02 -0.64559656481E+02 -0.11426381152E+03  0.13414472577E+03  0.00000000000E+00 0.  1.
</event>
<event>
12    1  0.1035051E+000  0.1811193E+03  0.7818608E-02  0.1167313E+00
         21   -1    0    0  501  502  0.00000000000E+00  0.00000000000E+00  0.57566757572E+02  0.57566757572E+02  0.00000000000E+00 0. -1.
         21   -1    0    0  502  503 -0.00000000000E+00 -0.00000000000E+00 -0.57260782482E+03  0.57260782482E+03  0.00000000000E+00 0. -1.
         -6    2    1    2    0  503  0.20191968184E+02  0.45545272832E+02 -0.30168924944E+03  0.35188154071E+03  0.17413250130E+03 0.  0.
        -24    2    3    3    0    0  0.68087196595E+02  0.37514927930E+02 -0.10999697916E+03  0.15407745625E+03  0.74815044894E+02 0.  0.
          6    2    1    2  501    0 -0.20191968184E+02 -0.45545272832E+02 -0.21335181781E+03  0.27829304168E+03  0.17159816849E+03 0.  0.
         24    2    5    5    0    0 -0.56179048774E+02 -0.10587175296E+02 -0.20477192765E+03  0.22717706504E+03  0.80060619076E+02 0.  0.
          5    1    5    5  501    0  0.35987080590E+02 -0.34958097536E+02 -0.85798901624E+01  0.51115976641E+02  0.47000000000E+01 0. -1.
        -13    1    6    6    0    0 -0.24812605379E+01 -0.29663430788E+02 -0.12887555499E+03  0.13226860721E+03  0.00000000000E+00 0.  1.
         14    1    6    6    0    0 -0.53697788236E+02  0.19076255492E+02 -0.75896372658E+02  0.94908457830E+02  0.00000000000E+00 0. -1.
         -5    1    3    3    0  503 -0.47895228411E+02  0.80303449024E+01 -0.19169227028E+03  0.19780408446E+03  0.47000000000E+01 0.  1.
         11    1    4    4    0    0  0.35109452059E+02 -0.19950576735E+02 -0.30594060229E+02  0.50662566627E+02  0.00000000000E+00 0. -1.
        -12    1    4    4    0    0  0.32977744536E+02  0.57465504665E+02 -0.79402918929E+02  0.10341488962E+03  0.00000000000E+00 0.  1.
</event>
<event>
12    1  0.1035051E+000  0.3318099E+03  0.7818608E-02  0.1070670E+00
         21   -1    0    0  501  502  0.00000000000E+00  0.00000000000E+00  0.62844074856E+03  0.62844074856E+03  0.00000000000E+00 0. -1.
         21   -1    0    0  502  503 -0.00000000000E+00 -0.00000000000E+00 -0.17415395807E+03  0.17415395807E+03  0.00000000000E+00 0. -1.
         -6    2    1    2    0  503  0.61954785761E+02 -0.27784647284E+03  0.24849614201E+03  0.41214927809E+03  0.16455891618E+03 0.  0.
        -24    2    3    3    0    0  0.10640623033E+03 -0.20979655556E+03  0.18607485361E+03  0.30955673737E+03  0.76580950194E+02 0.  0.
          6    2    1    2  501    0 -0.61954785761E+02  0.27784647284E+03  0.20579064848E+03  0.39044542854E+03  0.17047223738E+03 0.  0.
         24    2    5    5    0    0 -0.10485348709E+03  0.23895857250E+03  0.17981519804E+03  0.32681067865E+03  0.79851494041E+02 0.  0.
          5    1    5    5  501    0  0.42898701332E+02  0.38887900333E+02  0.25975450435E+02  0.63634749890E+02  0.47000000000E+01 0. -1.
        -11    1    6    6    0    0 -0.36082861925E+02  0.12661533131E+03  0.13266597054E+03  0.18690552370E+03  0.00000000000E+00 0.  1.
         12    1    6    6    0    0 -0.68770625168E+02  0.11234324119E+03  0.47149227500E+02  0.13990515495E+03  0.00000000000E+00 0. -1.
         -5    1    3    3    0  503 -0.44451444564E+02 -0.68049917280E+02  0.62421288405E+02  0.10259254072E+03  0.47000000000E+01 0.  1.
         11    1    4    4    0    0  0.55083708499E+02 -0.10595487741E+03  0.46435708593E+02  0.12812855272E+03  0.00000000000E+00 0. -1.
        -12    1    4    4    0    0  0.51322521827E+02 -0.10384167815E+03  0.13963914501E+03  0.18142818465E+03  0.00000000000E+00 0.  1.
</event>
<event>
12    1  0.1035051E+000  0.4408069E+03  0.7818608E-02  0.1030575E+00
         21   -1    0    0  501  502  0.00000000000E+00  0.00000000000E+00  0.13228516618E+03  0.13228516618E+03  0.00000000000E+00 0.  1.
         21   -1    0    0  502  503 -0.00000000000E+00 -0.00000000000E+00 -0.15192326224E+04  0.15192326224E+04  0.00000000000E+00 0. -1.
         -6    2    1    2    0  503  0.40548385251E+03 -0.35412109320E+01 -0.53760373434E+03  0.69459800017E+03  0.17034938169E+03 0.  0.
        -24    2    3    3    0    0  0.30964356445E+03  0.58986665571E+02 -0.40654517822E+03  0.52054763020E+03  0.79575685037E+02 0.  0.
          6    2    1    2  501    0 -0.40548385251E+03  0.35412109320E+01 -0.84934372185E+03  0.95691978839E+03  0.17286129915E+03 0.  0.
         24    2    5    5    0    0 -0.37811124968E+03  0.67898372094E+01 -0.65420181149E+03  0.75978463643E+03  0.79236762779E+02 0.  0.
          5    1    5    5  501    0 -0.27372602829E+02 -0.32486262774E+01 -0.19514191036E+03  0.19713515196E+03  0.47000000000E+01 0. -1.
        -11    1    6    6    0    0 -0.12307252337E+03  0.27788444212E+02 -0.27180937229E+03  0.29966544430E+03  0.00000000000E+00 0.  1.
         12    1    6    6    0    0 -0.25503872631E+03 -0.20998607003E+02 -0.38239243920E+03  0.46011919214E+03  0.00000000000E+00 0. -1.
         -5    1    3    3    0  503  0.95840288064E+02 -0.62527876503E+02 -0.13105855612E+03  0.17405036998E+03  0.47000000000E+01 0.  1.
         13    1    4    4    0    0  0.20070812796E+03  0.33180374707E+01 -0.28017346534E+03  0.34466205576E+03  0.00000000000E+00 0. -1.
        -14    1    4    4    0    0  0.10893543649E+03  0.55668628100E+02 -0.12637171288E+03  0.17588557443E+03  0.00000000000E+00 0.  1.
</event>
<event>
12    1  0.1035051E+000  0.2947001E+03  0.7818608E-02  0.1087996E+00
         21   -1    0    0  503  502  0.00000000000E+00  0.00000000000E+00  0.87391151212E+03  0.87391151212E+03  0.00000000000E+00 0.  1.
         21   -1    0    0  501  503 -0.00000000000E+00 -0.00000000000E+00 -0.13984736528E+03  0.13984736528E+03  0.00000000000E+00 0.  1.
          6    2    1    2  501    0  0.22094911358E+03 -0.91585850733E+02  0.93429821897E+02  0.30859189489E+03  0.17115299333E+03 0.  0.
         24    2    3    3    0    0  0.34150591173E+02 -0.36743706038E+02  0.32595618922E+02  0.10457170211E+03  0.85769480000E+02 0.  0.
         -6    2    1    2    0  502 -0.22094911358E+03  0.91585850733E+02  0.64063432495E+03  0.70516698250E+03  0.17216752325E+03 0.  0.
        -24    2    5    5    0    0 -0.21119296898E+03  0.25501892507E+02  0.50921860172E+03  0.55767307008E+03  0.80267378668E+02 0.  0.
          5    1    3    3  501    0  0.18679852241E+03 -0.54842144695E+02  0.60834202976E+02  0.20402019278E+03  0.47000000000E+01 0. -1.
        -11    1    4    4    0    0  0.29474912539E+02 -0.64657469961E+02  0.23194573731E+02  0.74748559461E+02  0.00000000000E+00 0.  1.
         12    1    4    4    0    0  0.46756786338E+01  0.27913763923E+02  0.94010451906E+01  0.29823142653E+02  0.00000000000E+00 0. -1.
         -5    1    5    5    0  502 -0.97561446022E+01  0.66083958226E+02  0.13141572322E+03  0.14749391243E+03  0.47000000000E+01 0.  1.
         13    1    6    6    0    0 -0.64004136011E+02  0.44417357882E+02  0.15045862851E+03  0.16943208079E+03  0.00000000000E+00 0. -1.
        -14    1    6    6    0    0 -0.14718883297E+03 -0.18915465376E+02  0.35875997321E+03  0.38824098929E+03  0.00000000000E+00 0.  1.
</event>
<event>
12    1  0.1035051E+000  0.1900465E+03  0.7818608E-02  0.1159420E+00
         21   -1    0    0  501  502  0.00000000000E+00  0.00000000000E+00  0.73145831158E+02  0.73145831158E+02  0.00000000000E+00 0. -1.
         21   -1    0    0  502  503 -0.00000000000E+00 -0.00000000000E+00 -0.50058938118E+03  0.50058938118E+03  0.00000000000E+00 0. -1.
         -6    2    1    2    0  503 -0.73924017881E+02 -0.22312944196E+02 -0.26592523534E+03  0.32432426802E+03  0.16884126314E+03 0.  0.
        -24    2    3    3    0    0 -0.64019462978E+02  0.47309337406E+02 -0.16937839495E+03  0.20478873066E+03  0.83142759658E+02 0.  0.
          6    2    1    2  501    0  0.73924017881E+02  0.22312944196E+02 -0.16151831468E+03  0.24941094431E+03  0.17365202351E+03 0.  0.
         24    2    5    5    0    0  0.29072551420E+02  0.43722989391E+02 -0.18695165866E+02  0.98114593015E+02  0.80746833303E+02 0.  0.
          5    1    5    5  501    0  0.44851466462E+02 -0.21410045194E+02 -0.14282314881E+03  0.15129635130E+03  0.47000000000E+01 0. -1.
        -11    1    6    6    0    0  0.36361699698E+02  0.16525540151E+02 -0.44588502519E+02  0.59861517180E+02  0.00000000000E+00 0.  1.
         12    1    6    6    0    0 -0.72891482777E+01  0.27197449240E+02  0.25893336654E+02  0.38253075835E+02  0.00000000000E+00 0. -1.
         -5    1    3    3    0  503 -0.99045549031E+01 -0.69622281603E+02 -0.96546840395E+02  0.11953553737E+03  0.47000000000E+01 0.  1.
         13    1    4    4    0    0  0.13880333538E+02  0.29741212289E+02 -0.31715575787E+02  0.45640783462E+02  0.00000000000E+00 0. -1.
        -14    1    4    4    0    0 -0.77899796516E+02  0.17568125117E+02 -0.13766281916E+03  0.15914794719E+03  0.00000000000E+00 0.  1.
</event>
<event>
12    1  0.1035051E+000  0.2615067E+03  0.7818608E-02  0.1106267E+00
         21   -1    0    0  503  502  0.00000000000E+00  0.00000000000E+00  0.33214685721E+03  0.33214685721E+03  0.00000000000E+00 0. -1.
         21   -1    0    0  501  503 -0.00000000000E+00 -0.00000000000E+00 -0.74509664036E+03  0.74509664036E+03  0.00000000000E+00 0. -1.
          6    2    1    2  501    0  0.11126086225E+03 -0.16247675093E+03 -0.66475076795E+03  0.71433838669E+03  0.17206996585E+03 0.  0.
         24    2    3    3    0    0  0.68801932136E+02 -0.73643358901E+02 -0.19923562586E+03  0.23850168172E+03  0.83852056584E+02 0.  0.
         -6    2    1    2    0  502 -0.11126086225E+03  0.16247675093E+03  0.25180098480E+03  0.36290511088E+03  0.17181009720E+03 0.  0.
        -24    2    5    5    0    0 -0.98434402368E+02  0.12642173205E+03  0.26700902567E+03  0.32145807279E+03  0.79810318083E+02 0.  0.
          5    1    3    3  501    0  0.42458930116E+02 -0.88833392025E+02 -0.46551514208E+03  0.47583670497E+03  0.47000000000E+01 0. -1.
        -13    1    4    4    0    0  0.40208727021E+02 -0.75459505695E+01 -0.20409908715E+02  0.45719224320E+02  0.00000000000E+00 0.  1.
         14    1    4    4    0    0  0.28593205115E+02 -0.66097408331E+02 -0.17882571715E+03  0.19278245740E+03  0.00000000000E+00 0. -1.
         -5    1    5    5    0  502 -0.12826459884E+02  0.36055018878E+02 -0.15208040868E+02  0.41447038090E+02  0.47000000000E+01 0.  1.
         13    1    6    6    0    0  0.86288773898E+01  0.85168634813E+00  0.14299669546E+01  0.87879292291E+01  0.00000000000E+00 0. -1.
        -14    1    6    6    0    0 -0.10706327976E+03  0.12557004570E+03  0.26557905871E+03  0.31267014356E+03  0.00000000000E+00 0.  1.
</event>
<event>
12    1  0.1035051E+000  0.2602553E+03  0.7818608E-02  0.1107046E+00
         21   -1    0    0  503  502  0.00000000000E+00  0.00000000000E+00  0.12846316894E+03  0.12846316894E+03  0.00000000000E+00 0.  1.
         21   -1    0    0  501  503 -0.00000000000E+00 -0.00000000000E+00 -0.52650509399E+03  0.52650509399E+03  0.00000000000E+00 0. -1.
          6    2    1    2  501    0  0.29266275730E+02 -0.19229453793E+03 -0.19755097319E+03  0.32644210335E+03  0.17234951585E+03 0.  0.
         24    2    3    3    0    0  0.30037072951E+02 -0.14841801944E+03 -0.21848782069E+03  0.27759351497E+03  0.79944340128E+02 0.  0.
         -6    2    1    2    0  502 -0.29266275730E+02  0.19229453793E+03 -0.20049095185E+03  0.32852615958E+03  0.17291359559E+03 0.  0.
        -24    2    5    5    0    0  0.73684891278E+01  0.74365945847E+02 -0.16841834422E+03  0.20085470237E+03  0.79958015591E+02 0.  0.
          5    1    3    3  501    0 -0.77079722082E+00 -0.43876518489E+02  0.20936847496E+02  0.48848588374E+02  0.47000000000E+01 0. -1.
        -13    1    4    4    0    0  0.28227746073E+02 -0.12900447110E+03 -0.12411544979E+03  0.18122804444E+03  0.00000000000E+00 0.  1.
         14    1    4    4    0    0  0.18093268771E+01 -0.19413548337E+02 -0.94372370896E+02  0.96365470534E+02  0.00000000000E+00 0. -1.
         -5    1    5    5    0  502 -0.36634764857E+02  0.11792859208E+03 -0.32072607630E+02  0.12767145721E+03  0.47000000000E+01 0.  1.
         11    1    6    6    0    0 -0.20584574600E+02 -0.60952058001E+01 -0.54783974362E+02  0.58840123148E+02  0.00000000000E+00 0. -1.
        -12    1    6    6    0    0  0.27953063728E+02  0.80461151647E+02 -0.11363436986E+03  0.14201457922E+03  0.00000000000E+00 0.  1.
</event>
<event>
12    1  0.1035051E+000  0.2888720E+03  0.7818608E-02  0.1091717E+00
         21   -1    0    0  501  502  0.00000000000E+00  0.00000000000E+00  0.26800577994E+03  0.26800577994E+03  0.00000000000E+00 0.  1.
         21   -1    0    0  502  503 -0.00000000000E+00 -0.00000000000E+00 -0.31172930776E+03  0.31172930776E+03  0.00000000000E+00 0.  1.
         -6    2    1    2    0  503  0.15088633577E+03  0.17674875539E+03  0.20692852577E+02  0.28376800667E+03  0.16152175893E+03 0.  0.
        -24    2    3    3    0    0  0.12163814023E+03  0.76109377673E+02  0.55160090808E+02  0.17334236743E+03  0.80102847649E+02 0.  0.
          6    2    1    2  501    0 -0.15088633577E+03 -0.17674875539E+03 -0.64416380400E+02  0.29596708103E+03  0.17158156701E+03 0.  0.
         24    2    5    5    0    0 -0.13139172759E+03 -0.20119343511E+03 -0.72091596010E+02  0.26343123850E+03  0.80350698770E+02 0.  0.
          5    1    5    5  501    0 -0.19494608175E+02  0.24444679721E+02  0.76752156096E+01  0.32535842531E+02  0.47000000000E+01 0. -1.
        -11    1    6    6    0    0 -0.63438244824E+02 -0.32485689590E+02 -0.15347014885E+02  0.72905842018E+02  0.00000000000E+00 0.  1.
         12    1    6    6    0    0 -0.67953482770E+02 -0.16870774552E+03 -0.56744581125E+02  0.19052539648E+03  0.00000000000E+00 0. -1.
         -5    1    3    3    0  503  0.29248195538E+02  0.10063937771E+03 -0.34467238231E+02  0.11042563923E+03  0.47000000000E+01 0.  1.
         11    1    4    4    0    0  0.90726491292E+02  0.18203363897E+02  0.55109827033E+02  0.10770214350E+03  0.00000000000E+00 0. -1.
        -12    1    4    4    0    0  0.30911648938E+02  0.57906013776E+02  0.50263775027E-01  0.65640223933E+02  0.00000000000E+00 0.  1.
</event>
<event>
12    1  0.1035051E+000  0.2276507E+03  0.7818608E-02  0.1128420E+00
         21   -1    0    0  501  502  0.00000000000E+00  0.00000000000E+00  0.62656582080E+02  0.62656582080E+02  0.00000000000E+00 0.  1.
         21   -1    0    0  502  503 -0.00000000000E+00 -0.00000000000E+00 -0.84472482148E+03  0.84472482148E+03  0.00000000000E+00 0.  1.
         -6    2    1    2    0  503 -0.69735084510E+02  0.13054770570E+03 -0.32075612485E+03  0.39295577598E+03  0.17211642797E+03 0.  0.
        -24    2    3    3    0    0 -0.29685316490E+01  0.11541628144E+03 -0.13104678736E+03  0.19121719437E+03  0.77852583417E+02 0.  0.
          6    2    1    2  501    0  0.69735084510E+02 -0.13054770570E+03 -0.46131211456E+03  0.51442562758E+03  0.17297159825E+03 0.  0.
         24    2    5    5    0    0  0.94778475225E+02 -0.82638552526E+02 -0.42078034187E+03  0.44669547940E+03  0.81661897353E+02 0.  0.
          5    1    5    5  501    0 -0.25043390715E+02 -0.47909153170E+02 -0.40531772685E+02  0.67730148183E+02  0.47000000000E+01 0. -1.
        -13    1    6    6    0    0  0.11878118249E+02 -0.27428746616E+02 -0.26230106712E+02  0.39767377738E+02  0.00000000000E+00 0.  1.
         14    1    6    6    0    0  0.82900356976E+02 -0.55209805909E+02 -0.39455023516E+03  0.40692810166E+03  0.00000000000E+00 0. -1.
         -5    1    3    3    0  503 -0.66766552861E+02  0.15131424258E+02 -0.18970933748E+03  0.20173858161E+03  0.47000000000E+01 0.  1.
         13    1    4    4    0    0 -0.19746077891E+02  0.95020746792E+02 -0.13310288140E+03  0.16472773583E+03  0.00000000000E+00 0. -1.
        -14    1    4    4    0    0  0.16777546242E+02  0.20395534645E+02  0.20560940397E+01  0.26489458546E+02  0.00000000000E+00 0.  1.
</event>
<event>
12    1  0.1035051E+000  0.2446593E+03  0.7818608E-02  0.1116748E+00
         21   -1    0    0  503  502  0.00000000000E+00  0.00000000000E+00  0.29355561160E+03  0.29355561160E+03  0.00000000000E+00 0. -1.
         21   -1    0    0  501  503 -0.00000000000E+00 -0.00000000000E+00 -0.10730539263E+04  0.10730539263E+04  0.00000000000E+00 0. -1.
          6    2    1    2  501    0 -0.16465962363E+03  0.56727509696E+02 -0.10047321849E+04  0.10340610729E+04  0.17165295511E+03 0.  0.
         24    2    3    3    0    0 -0.15392859565E+03 -0.43342365455E+01 -0.61430312104E+03  0.63871232083E+03  0.82899373318E+02 0.  0.
         -6    2    1    2    0  502  0.16465962363E+03 -0.56727509696E+02  0.22523387018E+03  0.33254846506E+03  0.17183533782E+03 0.  0.
        -24    2    5    5    0    0  0.10580535367E+03 -0.80997266600E+02  0.82352503316E+02  0.17605558602E+03  0.80363576969E+02 0.  0.
          5    1    3    3  501    0 -0.10731027984E+02  0.61061746241E+02 -0.39042906387E+03  0.39534875203E+03  0.47000000000E+01 0. -1.
        -11    1    4    4    0    0 -0.51955909680E+02  0.37456479406E+02 -0.20021891236E+03  0.21021421756E+03  0.00000000000E+00 0.  1.
         12    1    4    4    0    0 -0.10197268597E+03 -0.41790715951E+02 -0.41408420868E+03  0.42849810327E+03  0.00000000000E+00 0. -1.
         -5    1    5    5    0  502  0.58854269965E+02  0.24269756904E+02  0.14288136687E+03  0.15649287904E+03  0.47000000000E+01 0.  1.
         11    1    6    6    0    0  0.19579122719E+02  0.59608191042E+01  0.42672200308E+02  0.47326420634E+02  0.00000000000E+00 0. -1.
        -12    1    6    6    0    0  0.86226230950E+02 -0.86958085704E+02  0.39680303007E+02  0.12872916538E+03  0.00000000000E+00 0.  1.
</event>
<event>
12    1  0.1035051E+000  0.1940661E+03  0.7818608E-02  0.1155121E+00
         21   -1    0    0  503  502  0.00000000000E+00  0.00000000000E+00  0.56477391722E+03  0.56477391722E+03  0.00000000000E+00 0.  1.
         21   -1    0    0  501  503 -0.00000000000E+00 -0.00000000000E+00 -0.54028526234E+03  0.54028526234E+03  0.00000000000E+00 0.  1.
          6    2    1    2  501    0 -0.88573540801E+02  0.20264254270E+01  0.52978398409E+03  0.56377826416E+03  0.17124684760E+03 0.  0.
         24    2    3    3    0    0 -0.77906785708E+02  0.12219141724E+02  0.53553814539E+03  0.54725944151E+03  0.80455058701E+02 0.  0.
         -6    2    1    2    0  502  0.88573540801E+02 -0.20264254270E+01 -0.50529532921E+03  0.54128091539E+03  0.17266233263E+03 0.  0.
        -24    2    5    5    0    0  0.64291065869E+02  0.65793981526E+02 -0.32551538557E+03  0.34754871795E+03  0.79797593640E+02 0.  0.
          5    1    3    3  501    0 -0.10666755093E+02 -0.10192716297E+02 -0.57541612946E+01  0.16518822655E+02  0.47000000000E+01 0. -1.
        -11    1    4    4    0    0 -0.47579861993E+02  0.93214337116E+01  0.10509736418E+03  0.11574190404E+03  0.00000000000E+00 0.  1.
         12    1    4    4    0    0 -0.30326923716E+02  0.28977080122E+01  0.43044078121E+03  0.43151753747E+03  0.00000000000E+00 0. -1.
         -5    1    5    5    0  502  0.24282474933E+02 -0.67820406953E+02 -0.17977994365E+03  0.19373219744E+03  0.47000000000E+01 0.  1.
         11    1    6    6    0    0  0.66264925449E+02  0.43755872234E+02 -0.31125598990E+03  0.32122563402E+03  0.00000000000E+00 0. -1.
        -12    1    6    6    0    0 -0.19738595808E+01  0.22038109292E+02 -0.14259395661E+02  0.26323083927E+02  0.00000000000E+00 0.  1.
</event>
<event>
12    1  0.1035051E+000  0.4336783E+03  0.7818608E-02  0.1032747E+00
         21   -1    0    0  503  502  0.00000000000E+00  0.00000000000E+00  0.31599559792E+03  0.31599559792E+03  0.00000000000E+00 0.  1.
         21   -1    0    0  501  503 -0.00000000000E+00 -0.00000000000E+00 -0.88804933359E+03  0.88804933359E+03  0.00000000000E+00 0.  1.
          6    2    1    2  501    0  0.70324213417E+02  0.39132328055E+03 -0.63231400008E+03  0.76674495253E+03  0.17319764040E+03 0.  0.
         24    2    3    3    0    0  0.12529067948E+02  0.28511358967E+03 -0.34831132131E+03  0.45803734196E+03  0.83849230871E+02 0.  0.
         -6    2    1    2    0  502 -0.70324213417E+02 -0.39132328055E+03  0.60260264409E+02  0.43729997898E+03  0.17181550353E+03 0.  0.
        -24    2    5    5    0    0  0.14016391747E+02 -0.27734004791E+03  0.20568732477E+02  0.28998052097E+03  0.80942376849E+02 0.  0.
          5    1    3    3  501    0  0.57795145469E+02  0.10620969088E+03 -0.28400267877E+03  0.30870761057E+03  0.47000000000E+01 0. -1.
        -11    1    4    4    0    0 -0.92014852408E+01  0.12494810282E+03 -0.93678260903E+02  0.15643628829E+03  0.00000000000E+00 0.  1.
         12    1    4    4    0    0  0.21730553189E+02  0.16016548685E+03 -0.25463306041E+03  0.30160105367E+03  0.00000000000E+00 0. -1.
         -5    1    5    5    0  502 -0.84340605164E+02 -0.11398323264E+03  0.39691531932E+02  0.14731945801E+03  0.47000000000E+01 0.  1.
         11    1    6    6    0    0  0.21764684967E+02 -0.20954029039E+03 -0.18274857731E+02  0.21145875540E+03  0.00000000000E+00 0. -1.
        -12    1    6    6    0    0 -0.77482932195E+01 -0.67799757522E+02  0.38843590208E+02  0.78521765570E+02  0.00000000000E+00 0.  1.
</event>
<event>
12    1  0.1035051E+000  0.2143101E+03  0.7818608E-02  0.1138488E+00
         21   -1    0    0  503  502  0.00000000000E+00  0.00000000000E+00  0.17010590231E+03  0.17010590231E+03  0.00000000000E+00 0. -1.
         21   -1    0    0  501  503 -0.00000000000E+00 -0.00000000000E+00 -0.28644238510E+03  0.28644238510E+03  0.00000000000E+00 0. -1.
          6    2    1    2  501    0  0.29885019115E+02 -0.12172026866E+03 -0.62042629408E+00  0.21431100834E+03  0.17383867579E+03 0.  0.
         24    2    3    3    0    0 -0.80683924883E+01 -0.14745007114E+03 -0.34711725961E+01  0.16812983314E+03  0.80305475017E+02 0.  0.
         -6    2    1    2    0  502 -0.29885019115E+02  0.12172026866E+03 -0.11571605649E+03  0.24223727907E+03  0.17198766082E+03 0.  0.
        -24    2    5    5    0    0 -0.73308075970E+02  0.12776175710E+03 -0.99440803591E+02  0.19523690348E+03  0.80819765401E+02 0.  0.
          5    1    3    3  501    0  0.37953411604E+02  0.25729802484E+02  0.28507463021E+01  0.46181175198E+02  0.47000000000E+01 0. -1.
        -11    1    4    4    0    0  0.49354448800E+01 -0.89014582341E+02  0.36299826478E+02  0.96258152319E+02  0.00000000000E+00 0.  1.
         12    1    4    4    0    0 -0.13003837368E+02 -0.58435488799E+02 -0.39770999074E+02  0.71871680826E+02  0.00000000000E+00 0. -1.
         -5    1    5    5    0  502  0.43423056855E+02 -0.60414884488E+01 -0.16275252903E+02  0.47000375598E+02  0.47000000000E+01 0.  1.
         11    1    6    6    0    0 -0.54748199431E+02  0.35453147417E+02 -0.72027884372E+02  0.97171534566E+02  0.00000000000E+00 0. -1.
        -12    1    6    6    0    0 -0.18559876539E+02  0.92308609687E+02 -0.27412919219E+02  0.98065368911E+02  0.00000000000E+00 0.  1.
</event>
<event>
12    1  0.1035051E+000  0.3696451E+03  0.7818608E-02  0.1054861E+00
         21   -1    0    0  501  502  0.00000000000E+00  0.00000000000E+00  0.92488943202E+02  0.92488943202E+02  0.00000000000E+00 0. -1.
         21   -1    0    0  502  503 -0.00000000000E+00 -0.00000000000E+00 -0.19455670237E+04  0.19455670237E+04  0.00000000000E+00 0. -1.
         -6    2    1    2    0  503  0.32680682030E+03  0.68859173076E+01 -0.42560614820E+03  0.56350058257E+03  0.17187844404E+03 0.  0.
        -24    2    3    3    0    0  0.18093061637E+03 -0.60587614747E+01 -0.14004796378E+03  0.24254420194E+03  0.80259960172E+02 0.  0.
          6    2    1    2  501    0 -0.32680682030E+03 -0.68859173076E+01 -0.14274719323E+04  0.14745553843E+04  0.17259012220E+03 0.  0.
         24    2    5    5    0    0 -0.24999605140E+03  0.54750041132E+02 -0.11217599774E+04  0.11533377401E+04  0.79667453335E+02 0.  0.
          5    1    5    5  501    0 -0.76810768906E+02 -0.61635958440E+02 -0.30571195488E+03  0.32121764420E+03  0.47000000000E+01 0. -1.
        -13    1    6    6    0    0 -0.15472010530E+03 -0.69341597511E+00 -0.73885322771E+03  0.75487938369E+03  0.00000000000E+00 0.  1.
         14    1    6    6    0    0 -0.95275946096E+02  0.55443457107E+02 -0.38290674972E+03  0.39845835644E+03  0.00000000000E+00 0. -1.
         -5    1    3    3    0  503  0.14587620394E+03  0.12944678782E+02 -0.28555818441E+03  0.32095638063E+03  0.47000000000E+01 0.  1.
         11    1    4    4    0    0  0.19431958492E+02 -0.23216794517E+02 -0.37210744044E+01  0.30503556403E+02  0.00000000000E+00 0. -1.
        -12    1    4    4    0    0  0.16149865787E+03  0.17158033043E+02 -0.13632688938E+03  0.21204064554E+03  0.00000000000E+00 0.  1.
</event>
<event>
12    1  0.1035051E+000  0.1843172E+03  0.7818608E-02  0.1163705E+00
         21   -1    0    0  501  502  0.00000000000E+00  0.00000000000E+00  0.54839378915E+03  0.54839378915E+03  0.00000000000E+00 0. -1.
         21   -1    0    0  502  503 -0.00000000000E+00 -0.00000000000E+00 -0.62055373681E+02  0.62055373681E+02  0.00000000000E+00 0. -1.
         -6    2    1    2    0  503 -0.63645722434E+02  0.16118775520E+02  0.25714250792E+03  0.31637809728E+03  0.17222728630E+03 0.  0.
        -24    2    3    3    0    0 -0.90914051382E+02  0.44401002136E+02  0.24064916628E+03  0.27351125199E+03  0.81606188533E+02 0.  0.
          6    2    1    2  501    0  0.63645722434E+02 -0.16118775520E+02  0.22919590754E+03  0.29407106555E+03  0.17215235883E+03 0.  0.
         24    2    5    5    0    0  0.36949842848E+02 -0.10290200231E+02  0.24698066021E+03  0.26113127648E+03  0.75623527608E+02 0.  0.
          5    1    5    5  501    0  0.26695879586E+02 -0.58285752887E+01 -0.17784752669E+02  0.32939789075E+02  0.47000000000E+01 0. -1.
        -11    1    6    6    0    0  0.13194850353E+02  0.24159108841E+02  0.32429674553E+02  0.42537635189E+02  0.00000000000E+00 0.  1.
         12    1    6    6    0    0  0.23754992495E+02 -0.34449309072E+02  0.21455098566E+03  0.21859364129E+03  0.00000000000E+00 0. -1.
         -5    1    3    3    0  503  0.27268328948E+02 -0.28282226616E+02  0.16493341645E+02  0.42866845284E+02  0.47000000000E+01 0.  1.
         11    1    4    4    0    0 -0.68720628932E+02  0.67009362622E+02  0.15642078575E+03  0.18352177455E+03  0.00000000000E+00 0. -1.
        -12    1    4    4    0    0 -0.22193422451E+02 -0.22608360485E+02  0.84228380526E+02  0.89989477440E+02  0.00000000000E+00 0.  1.
</event>
<event>
12    1  0.1035051E+000  0.1821449E+03  0.7818608E-02  0.1166035E+00
         21   -1    0    0  501  502  0.00000000000E+00  0.00000000000E+00  0.28252605373E+02  0.28252605373E+02  0.00000000000E+00 0. -1.
         21   -1    0    0  502  503 -0.00000000000E+00 -0.00000000000E+00 -0.19832283824E+04  0.19832283824E+04  0.00000000000E+00 0. -1.
         -6    2    1    2    0  503  0.22454532703E+02  0.54933675379E+02 -0.33398240273E+03  0.38042212800E+03  0.17220579379E+03 0.  0.
        -24    2    3    3    0    0 -0.78243014036E+01  0.43113600343E+02 -0.33633683818E+03  0.34749561384E+03  0.75569376702E+02 0.  0.
          6    2    1    2  501    0 -0.22454532703E+02 -0.54933675379E+02 -0.16209933743E+04  0.16310588597E+04  0.17091392506E+03 0.  0.
         24    2    5    5    0    0 -0.31748232401E+01 -0.59098419045E+02 -0.60032988347E+03  0.61019397949E+03  0.91858701141E+02 0.  0.
          5    1    5    5  501    0 -0.19279709463E+02  0.41647436660E+01 -0.10206634908E+04  0.10208648803E+04  0.47000000000E+01 0. -1.
        -13    1    6    6    0    0 -0.42578433664E+02 -0.38155782946E+02 -0.44246344841E+03  0.44614200650E+03  0.00000000000E+00 0.  1.
         14    1    6    6    0    0  0.39403610424E+02 -0.20942636099E+02 -0.15786643506E+03  0.16405197298E+03  0.00000000000E+00 0. -1.
         -5    1    3    3    0  503  0.30278834106E+02  0.11820075036E+02  0.23544354504E+01  0.32926514164E+02  0.47000000000E+01 0.  1.
         11    1    4    4    0    0 -0.27555349338E+02  0.66922710016E+01 -0.25142404143E+03  0.25301804754E+03  0.00000000000E+00 0. -1.
        -12    1    4    4    0    0  0.19731047935E+02  0.36421329342E+02 -0.84912796743E+02  0.94477566302E+02  0.00000000000E+00 0.  1.
</event>
<event>
12    1  0.1035051E+000  0.3813979E+03  0.7818608E-02  0.1050490E+00
         21   -1    0    0  503  502  0.00000000000E+00  0.00000000000E+00  0.12797053207E+03  0.12797053207E+03  0.00000000000E+00 0. -1.
         21   -1    0    0  501  503 -0.00000000000E+00 -0.00000000000E+00 -0.11346158025E+04  0.11346158025E+04  0.00000000000E+00 0. -1.
          6    2    1    2  501    0  0.28118818105E+03 -0.19229380003E+03 -0.51304729721E+03  0.63928230160E+03  0.17152443929E+03 0.  0.
         24    2    3    3    0    0  0.15722133647E+03 -0.68502146322E+02 -0.18196833803E+03  0.26467915253E+03  0.86784128999E+02 0.  0.
         -6    2    1    2    0  502 -0.28118818105E+03  0.19229380003E+03 -0.49359797321E+03  0.62330403295E+03  0.16978003313E+03 0.  0.
        -24    2    5    5    0    0 -0.28523414285E+03  0.17329361265E+03 -0.39659632872E+03  0.52426471772E+03  0.78585328565E+02 0.  0.
          5    1    3    3  501    0  0.12396684458E+03 -0.12379165370E+03 -0.33107895918E+03  0.37460314907E+03  0.47000000000E+01 0. -1.
        -13    1    4    4    0    0  0.11174020019E+03 -0.85351922288E+02 -0.15463957397E+03  0.20900770515E+03  0.00000000000E+00 0.  1.
         14    1    4    4    0    0  0.45481136286E+02  0.16849775966E+02 -0.27328764058E+02  0.55671447375E+02  0.00000000000E+00 0. -1.
         -5    1    5    5    0  502  0.40459617963E+01  0.19000187372E+02 -0.97001644492E+02  0.99039315230E+02  0.47000000000E+01 0.  1.
         11    1    6    6    0    0 -0.17016934509E+03  0.11893522303E+03 -0.18893946870E+03  0.28071572118E+03  0.00000000000E+00 0. -1.
        -12    1    6    6    0    0 -0.11506479776E+03  0.54358389626E+02 -0.20765686001E+03  0.24354899654E+03  0.00000000000E+00 0.  1.
</event>
<event>
12    1  0.1035051E+000  0.2307388E+03  0.7818608E-02  0.1126758E+00
         21   -1    0    0  501  502  0.00000000000E+00  0.00000000000E+00  0.13598982304E+03  0.13598982304E+03  0.00000000000E+00 0.  1.
         21   -1    0    0  502  503 -0.00000000000E+00 -0.00000000000E+00 -0.39841850027E+03  0.39841850027E+03  0.00000000000E+00 0. -1.
         -6    2    1    2    0  503  0.10712387700E+03  0.10378160148E+03 -0.81939578139E+02  0.24146344560E+03  0.17130194180E+03 0.  0.
        -24    2    3    3    0    0  0.10415034800E+03  0.18461784364E+02 -0.14335345989E+02  0.13246465995E+03  0.78442663905E+02 0.  0.
          6    2    1    2  501    0 -0.10712387700E+03 -0.10378160148E+03 -0.18048909909E+03  0.29294487771E+03  0.17605181242E+03 0.  0.
         24    2    5    5    0    0 -0.11385663126E+03 -0.13542625983E+03 -0.13447487881E+03  0.23649921491E+03  0.80899822541E+02 0.  0.
          5    1    5    5  501    0  0.67327542568E+01  0.31644658347E+02 -0.46014220274E+02  0.56445662803E+02  0.47000000000E+01 0. -1.
        -11    1    6    6    0    0 -0.41866002786E+02 -0.54143304188E+02 -0.66215772477E+01  0.68761216270E+02  0.00000000000E+00 0.  1.
         12    1    6    6    0    0 -0.71990628473E+02 -0.81282955641E+02 -0.12785330157E+03  0.16773799864E+03  0.00000000000E+00 0. -1.
         -5    1    3    3    0  503  0.29735289996E+01  0.85319817118E+02 -0.67604232150E+02  0.10899878565E+03  0.47000000000E+01 0.  1.
         11    1    4    4    0    0  0.15382284050E+02  0.66044569180E+01 -0.36543830491E+02  0.40195585090E+02  0.00000000000E+00 0. -1.
        -12    1    4    4    0    0  0.88768063953E+02  0.11857327447E+02  0.22208484501E+02  0.92269074862E+02  0.00000000000E+00 0.  1.
</event>
<event>
12    1  0.1035051E+000  0.3230870E+03  0.7818608E-02  0.1074505E+00
         21   -1    0    0  503  502  0.00000000000E+00  0.00000000000E+00  0.15636692211E+03  0.15636692211E+03  0.00000000000E+00 0.  1.
         21   -1    0    0  501  503 -0.00000000000E+00 -0.00000000000E+00 -0.66302227538E+03  0.66302227538E+03  0.00000000000E+00 0.  1.
          6    2    1    2  501    0  0.16298109224E+03  0.21693264381E+03 -0.24376590634E+03  0.40286059032E+03  0.17103283239E+03 0.  0.
         24    2    3    3    0    0  0.70821860414E+02  0.14828176711E+03 -0.21858851852E+03  0.28512250073E+03  0.80688794895E+02 0.  0.
         -6    2    1    2    0  502 -0.16298109224E+03 -0.21693264381E+03 -0.26288944693E+03  0.41652860717E+03  0.17539273332E+03 0.  0.
        -24    2    5    5    0    0 -0.11249309589E+03 -0.22306919540E+03 -0.25359108125E+03  0.36461286153E+03  0.78864058636E+02 0.  0.
          5    1    3    3  501    0  0.92159231827E+02  0.68650876702E+02 -0.25177387820E+02  0.11773808959E+03  0.47000000000E+01 0. -1.
        -13    1    4    4    0    0  0.40476745725E+01  0.65542523240E+02 -0.13411001224E+03  0.14932414877E+03  0.00000000000E+00 0.  1.
         14    1    4    4    0    0  0.66774185842E+02  0.82739243872E+02 -0.84478506278E+02  0.13579835196E+03  0.00000000000E+00 0. -1.
         -5    1    5    5    0  502 -0.50487996346E+02  0.61365515883E+01 -0.92983656810E+01  0.51915745635E+02  0.47000000000E+01 0.  1.
         13    1    6    6    0    0 -0.12326605732E+03 -0.18416402756E+03 -0.21398097613E+03  0.30805643652E+03  0.00000000000E+00 0. -1.
        -14    1    6    6    0    0  0.10772961428E+02 -0.38905167846E+02 -0.39610105117E+02  0.56556425014E+02  0.00000000000E+00 0.  1.
</event>
<event>
12    1  0.1035051E+000  0.2408556E+03  0.7818608E-02  0.1119363E+00
         21   -1    0    0  501  502  0.00000000000E+00  0.00000000000E+00  0.18834953815E+03  0.18834953815E+03  0.00000000000E+00 0. -1.
         21   -1    0    0  502  503 -0.00000000000E+00 -0.00000000000E+00 -0.31657124857E+03  0.31657124857E+03  0.00000000000E+00 0. -1.
         -6    2    1    2    0  503 -0.40277088129E+02  0.16303164916E+03 -0.20161645348E+02  0.24169799491E+03  0.17265533975E+03 0.  0.
        -24    2    3    3    0    0 -0.83583299910E+00  0.10109391439E+03 -0.77455258830E+02  0.14844273371E+03  0.76257786014E+02 0.  0.
          6    2    1    2  501    0  0.40277088129E+02 -0.16303164916E+03 -0.10806006507E+03  0.26322279181E+03  0.17148672838E+03 0.  0.
         24    2    5    5    0    0  0.30280923585E+02 -0.64685131349E+02 -0.12246341295E+03  0.16321525559E+03  0.80875407857E+02 0.  0.
          5    1    5    5  501    0  0.99961645446E+01 -0.98346517810E+02  0.14403347881E+02  0.10000753622E+03  0.47000000000E+01 0. -1.
        -11    1    6    6    0    0 -0.25085571402E+02 -0.54684787541E+01 -0.19913639607E+02  0.32492202062E+02  0.00000000000E+00 0.  1.
         12    1    6    6    0    0  0.55366494987E+02 -0.59216652595E+02 -0.10254977334E+03  0.13072305353E+03  0.00000000000E+00 0. -1.
         -5    1    3    3    0  503 -0.39441255130E+02  0.61937734772E+02  0.57293613482E+02  0.93255261196E+02  0.47000000000E+01 0.  1.
         13    1    4    4    0    0 -0.24634136858E+02  0.99564002578E+02 -0.59339394024E+02  0.11849470449E+03  0.00000000000E+00 0. -1.
        -14    1    4    4    0    0  0.23798303859E+02  0.15299118095E+01 -0.18115864806E+02  0.29948029224E+02  0.00000000000E+00 0.  1.
</event>
<event>
12    1  0.1035051E+000  0.2236953E+03  0.7818608E-02  0.1131329E+00
         21   -1    0    0  501  502  0.00000000000E+00  0.00000000000E+00  0.15251273830E+03  0.15251273830E+03  0.00000000000E+00 0.  1.
         21   -1    0    0  502  503 -0.00000000000E+00 -0.00000000000E+00 -0.40708973787E+03  0.40708973787E+03  0.00000000000E+00 0.  1.
         -6    2    1    2    0  503  0.11755082909E+03 -0.78844029914E+02 -0.25138816101E+03  0.33588444341E+03  0.17201096871E+03 0.  0.
        -24    2    3    3    0    0  0.11590595615E+03 -0.11324441248E+03 -0.17406783018E+03  0.25111053535E+03  0.80612677876E+02 0.  0.
          6    2    1    2  501    0 -0.11755082909E+03  0.78844029914E+02 -0.31888385531E+01  0.22371803275E+03  0.17321954571E+03 0.  0.
         24    2    5    5    0    0 -0.22273032729E+02  0.15775806149E+02  0.52456538260E+02  0.96541158719E+02  0.76312141066E+02 0.  0.
          5    1    5    5  501    0 -0.95277796361E+02  0.63068223765E+02 -0.55645376813E+02  0.12717687403E+03  0.47000000000E+01 0. -1.
        -13    1    6    6    0    0 -0.47485707197E+02 -0.29421311394E+01  0.20711940463E+02  0.51889623254E+02  0.00000000000E+00 0.  1.
         14    1    6    6    0    0  0.25212674468E+02  0.18717937289E+02  0.31744597796E+02  0.44651535466E+02  0.00000000000E+00 0. -1.
         -5    1    3    3    0  503  0.16448729383E+01  0.34400382562E+02 -0.77320330835E+02  0.84773908060E+02  0.47000000000E+01 0.  1.
         13    1    4    4    0    0  0.44499004463E+02 -0.37135155595E+02 -0.13341619378E+02  0.59474195975E+02  0.00000000000E+00 0. -1.
        -14    1    4    4    0    0  0.71406951690E+02 -0.76109256881E+02 -0.16072621080E+03  0.19163633938E+03  0.00000000000E+00 0.  1.
</event>
<event>
12    1  0.1035051E+000  0.1763200E+03  0.7818608E-02  0.1171615E+00
         21   -1    0    0  501  502  0.00000000000E+00  0.00000000000E+00  0.80779102222E+02  0.80779102222E+02  0.00000000000E+00 0. -1.
         21   -1    0    0  502  503 -0.00000000000E+00 -0.00000000000E+00 -0.38471745494E+03  0.38471745494E+03  0.00000000000E+00 0. -1.
         -6    2    1    2    0  503  0.33342595148E+00  0.44204327828E+02 -0.16673593400E+03  0.24208383250E+03  0.16985163085E+03 0.  0.
        -24    2    3    3    0    0 -0.44729483237E+02 -0.86406626258E+01 -0.14243043909E+03  0.16835388009E+03  0.77338290901E+02 0.  0.
          6    2    1    2  501    0 -0.33342595148E+00 -0.44204327828E+02 -0.13720241872E+03  0.22341272466E+03  0.17068862899E+03 0.  0.
         24    2    5    5    0    0 -0.17795907933E+02 -0.69224094723E+02 -0.15488454309E+03  0.18783640480E+03  0.78642378211E+02 0.  0.
          5    1    5    5  501    0  0.17462481982E+02  0.25019766896E+02  0.17682124371E+02  0.35576319860E+02  0.47000000000E+01 0. -1.
        -11    1    6    6    0    0 -0.17984299676E+02 -0.86733584613E+02 -0.12507095051E+03  0.15326086388E+03  0.00000000000E+00 0.  1.
         12    1    6    6    0    0  0.18839174253E+00  0.17509489890E+02 -0.29813592575E+02  0.34575540920E+02  0.00000000000E+00 0. -1.
         -5    1    3    3    0  503  0.45062909189E+02  0.52844990454E+02 -0.24305494910E+02  0.73729952417E+02  0.47000000000E+01 0.  1.
         11    1    4    4    0    0 -0.60044970844E+02  0.14712290115E+02 -0.99285656578E+02  0.11695935878E+03  0.00000000000E+00 0. -1.
        -12    1    4    4    0    0  0.15315487607E+02 -0.23352952740E+02 -0.43144782513E+02  0.51394521307E+02  0.00000000000E+00 0.  1.
</event>
<event>
12    1  0.1163287E+000  0.3201135E+03  0.7818608E-02  0.1075765E+00
         21   -1    0    0  503  502  0.00000000000E+00  0.00000000000E+00  0.38213258555E+03  0.38213258555E+03  0.00000000000E+00 0. -1.
         21   -1    0    0  501  503 -0.00000000000E+00 -0.00000000000E+00 -0.34125691225E+03  0.34125691225E+03  0.00000000000E+00 0. -1.
          6    2    1    2  501    0  0.61234455319E+02 -0.26218477482E+03  0.18918720701E+03  0.37058786233E+03  0.17044955190E+03 0.  0.
         24    2    3    3    0    0  0.62276228723E+02 -0.13322071731E+03  0.38166578770E+02  0.17193707936E+03  0.80495859138E+02 0.  0.
         -6    2    1    2    0  502 -0.61234455319E+02  0.26218477482E+03 -0.14831153371E+03  0.35280163547E+03  0.17315359742E+03 0.  0.
        -24    2    5    5    0    0 -0.31937701759E+02  0.13271202199E+03 -0.63315662289E+01  0.15837454205E+03  0.80061908939E+02 0.  0.
          5    1    3    3  501    0 -0.10417734040E+01 -0.12896405751E+03  0.15102062824E+03  0.19865078297E+03  0.47000000000E+01 0. -1.
        -13    1    4    4    0    0  0.33312526105E+02 -0.10190097536E+03  0.61210632078E+02  0.12345150729E+03  0.00000000000E+00 0.  1.
         14    1    4    4    0    0  0.28963702617E+02 -0.31319741955E+02 -0.23044053308E+02  0.48485572063E+02  0.00000000000E+00 0. -1.
         -5    1    5    5    0  502 -0.29296753560E+02  0.12947275282E+03 -0.14197996748E+03  0.19442709342E+03  0.47000000000E+01 0.  1.
         13    1    6    6    0    0  0.10797530833E+02 -0.51248477827E+01  0.63040837244E+01  0.13512668444E+02  0.00000000000E+00 0. -1.
        -14    1    6    6    0    0 -0.42735232592E+02  0.13783686978E+03 -0.12635649953E+02  0.14486187361E+03  0.00000000000E+00 0.  1.
</event>
<event>
12    1  0.1035051E+000  0.4201187E+03  0.7818608E-02  0.1037037E+00
         21   -1    0    0  503  502  0.00000000000E+00  0.00000000000E+00  0.64210510268E+03  0.64210510268E+03  0.00000000000E+00 0. -1.
         21   -1    0    0  501  503 -0.00000000000E+00 -0.00000000000E+00 -0.99587461009E+03  0.99587461009E+03  0.00000000000E+00 0. -1.
          6    2    1    2  501    0  0.37841272812E+03  0.60358057372E+02  0.52001477755E+03  0.66844439219E+03  0.17193966585E+03 0.  0.
         24    2    3    3    0    0  0.16035787610E+03  0.28645022463E+02  0.12950890102E+03  0.22003546646E+03  0.71469331310E+02 0.  0.
         -6    2    1    2    0  502 -0.37841272812E+03 -0.60358057372E+02 -0.87378428496E+03  0.96953532057E+03  0.17222216263E+03 0.  0.
        -24    2    5    5    0    0 -0.35271050464E+03 -0.35706794537E+02 -0.66562043595E+03  0.75829477739E+03  0.79251052960E+02 0.  0.
          5    1    3    3  501    0  0.21805485201E+03  0.31713034910E+02  0.39050587653E+03  0.44840892573E+03  0.47000000000E+01 0. -1.
        -11    1    4    4    0    0  0.15798460189E+03  0.20889346110E+02  0.97065691501E+02  0.18659380397E+03  0.00000000000E+00 0.  1.
         12    1    4    4    0    0  0.23732742160E+01  0.77556763531E+01  0.32443209520E+02  0.33441662491E+02  0.00000000000E+00 0. -1.
         -5    1    5    5    0  502 -0.25702223477E+02 -0.24651262835E+02 -0.20816384901E+03  0.21124054318E+03  0.47000000000E+01 0.  1.
         11    1    6    6    0    0 -0.36288082120E+02  0.90691386111E+01 -0.34543001090E+02  0.50914566711E+02  0.00000000000E+00 0. -1.
        -12    1    6    6    0    0 -0.31642242252E+03 -0.44775933148E+02 -0.63107743487E+03  0.70738021068E+03  0.00000000000E+00 0.  1.
</event>
<event>
12    1  0.1035051E+000  0.4696531E+03  0.7818608E-02  0.1022224E+00
         21   -1    0    0  501  502  0.00000000000E+00  0.00000000000E+00  0.25764443171E+03  0.25764443171E+03  0.00000000000E+00 0. -1.
         21   -1    0    0  502  503 -0.00000000000E+00 -0.00000000000E+00 -0.93406685908E+03  0.93406685908E+03  0.00000000000E+00 0.  1.
         -6    2    1    2    0  503 -0.38160493324E+03  0.21219007549E+03 -0.51702445503E+03  0.69849003088E+03  0.17299445924E+03 0.  0.
        -24    2    3    3    0    0 -0.38257028889E+03  0.22225581323E+03 -0.47106676275E+03  0.65119890627E+03  0.79990300013E+02 0.  0.
          6    2    1    2  501    0  0.38160493324E+03 -0.21219007549E+03 -0.15939797234E+03  0.49322125991E+03  0.16496225153E+03 0.  0.
         24    2    5    5    0    0  0.16582722029E+03 -0.15911344751E+03 -0.63080275907E+02  0.25098926678E+03  0.78744743747E+02 0.  0.
          5    1    5    5  501    0  0.21577771296E+03 -0.53076627983E+02 -0.96317696429E+02  0.24223199312E+03  0.47000000000E+01 0. -1.
        -13    1    6    6    0    0  0.61248755032E+02 -0.82986187851E+02  0.78974583665E+01  0.10344315935E+03  0.00000000000E+00 0.  1.
         14    1    6    6    0    0  0.10457846525E+03 -0.76127259654E+02 -0.70977734274E+02  0.14754610744E+03  0.00000000000E+00 0. -1.
         -5    1    3    3    0  503  0.96535564568E+00 -0.10065737739E+02 -0.45957692281E+02  0.47291124617E+02  0.47000000000E+01 0.  1.
         11    1    4    4    0    0 -0.10486634841E+02  0.21644231665E+02 -0.44931430611E+02  0.50963474483E+02  0.00000000000E+00 0. -1.
        -12    1    4    4    0    0 -0.37208365405E+03  0.20061158156E+03 -0.42613533214E+03  0.60023543178E+03  0.00000000000E+00 0.  1.
</event>
<event>
12    1  0.1035051E+000  0.1863649E+03  0.7818608E-02  0.1162194E+00
         21   -1    0    0  501  502  0.00000000000E+00  0.00000000000E+00  0.18084405473E+03  0.18084405473E+03  0.00000000000E+00 0. -1.
         21   -1    0    0  502  503 -0.00000000000E+00 -0.00000000000E+00 -0.33874772172E+03  0.33874772172E+03  0.00000000000E+00 0. -1.
         -6    2    1    2    0  503  0.43024679418E+02  0.52876242188E+02  0.93281823033E+02  0.20682026388E+03  0.17154038305E+03 0.  0.
        -24    2    3    3    0    0  0.53753283496E+02  0.53297148318E+02  0.12886172478E+03  0.16935962432E+03  0.79670174671E+02 0.  0.
          6    2    1    2  501    0 -0.43024679418E+02 -0.52876242188E+02 -0.25118549003E+03  0.31277151257E+03  0.17344984477E+03 0.  0.
         24    2    5    5    0    0 -0.51217376172E+02  0.32829449591E+02 -0.13351672499E+03  0.16689274733E+03  0.79532891791E+02 0.  0.
          5    1    5    5  501    0  0.81926967535E+01 -0.85705691779E+02 -0.11766876503E+03  0.14587876524E+03  0.47000000000E+01 0. -1.
        -11    1    6    6    0    0 -0.52532052776E+02  0.36070911263E+02 -0.44304461856E+02  0.77611935606E+02  0.00000000000E+00 0.  1.
         12    1    6    6    0    0  0.13146766045E+01 -0.32414616720E+01 -0.89212263135E+02  0.89280811724E+02  0.00000000000E+00 0. -1.
         -5    1    3    3    0  503 -0.10728604078E+02 -0.42090613039E+00 -0.35579901749E+02  0.37460639555E+02  0.47000000000E+01 0.  1.
         11    1    4    4    0    0  0.71924090607E+02  0.35384933709E+02  0.75060037114E+02  0.10981428648E+03  0.00000000000E+00 0. -1.
        -12    1    4    4    0    0 -0.18170807111E+02  0.17912214609E+02  0.53801687668E+02  0.59545337846E+02  0.00000000000E+00 0.  1.
</event>
<event>
12    1  0.1035051E+000  0.2829360E+03  0.7818608E-02  0.1094122E+00
         21   -1    0    0  501  502  0.00000000000E+00  0.00000000000E+00  0.87252322646E+03  0.87252322646E+03  0.00000000000E+00 0.  1.
         21   -1    0    0  502  503 -0.00000000000E+00 -0.00000000000E+00 -0.14038536920E+03  0.14038536920E+03  0.00000000000E+00 0.  1.
         -6    2    1    2    0  503 -0.22565729134E+03 -0.62370703467E+01  0.66444541763E+03  0.72217761945E+03  0.17056578451E+03 0.  0.
        -24    2    3    3    0    0 -0.20033382665E+03 -0.56570873654E+02  0.56887165715E+03  0.61113166810E+03  0.80827270138E+02 0.  0.
          6    2    1    2  501    0  0.22565729134E+03  0.62370703467E+01  0.67692439624E+02  0.29073097620E+03  0.17024135797E+03 0.  0.
         24    2    5    5    0    0  0.21236143487E+03 -0.41024637361E+02  0.71425702256E+02  0.24126911145E+03  0.79553461963E+02 0.  0.
          5    1    5    5  501    0  0.13295856469E+02  0.47261707707E+02 -0.37332626321E+01  0.49461864750E+02  0.47000000000E+01 0. -1.
        -11    1    6    6    0    0  0.62330333619E+02 -0.31446811242E+02 -0.96279645826E+01  0.70474606266E+02  0.00000000000E+00 0.  1.
         12    1    6    6    0    0  0.15003110125E+03 -0.95778261188E+01  0.81053666838E+02  0.17079450519E+03  0.00000000000E+00 0. -1.
         -5    1    3    3    0  503 -0.25323464680E+02  0.50333803308E+02  0.95573760485E+02  0.11104595135E+03  0.47000000000E+01 0.  1.
         11    1    4    4    0    0 -0.80400675417E+02  0.16104893897E+02  0.23954955998E+03  0.25319484178E+03  0.00000000000E+00 0. -1.
        -12    1    4    4    0    0 -0.11993315124E+03 -0.72675767551E+02  0.32932209717E+03  0.35793682632E+03  0.00000000000E+00 0.  1.
</event>
<event>
12    1  0.1035051E+000  0.4253298E+03  0.7818608E-02  0.1035395E+00
         21   -1    0    0  503  502  0.00000000000E+00  0.00000000000E+00  0.63168222292E+02  0.63168222292E+02  0.00000000000E+00 0.  1.
         21   -1    0    0  501  503 -0.00000000000E+00 -0.00000000000E+00 -0.35087188755E+04  0.35087188755E+04  0.00000000000E+00 0. -1.
          6    2    1    2  501    0 -0.29290247748E+03  0.25564437833E+03 -0.95570828374E+03  0.10460801725E+04  0.17250940339E+03 0.  0.
         24    2    3    3    0    0 -0.47534527700E+02  0.47252205409E+02 -0.22551779497E+03  0.24806202211E+03  0.78639612932E+02 0.  0.
         -6    2    1    2    0  502  0.29290247748E+03 -0.25564437833E+03 -0.24898423694E+04  0.25258069252E+04  0.17099616790E+03 0.  0.
        -24    2    5    5    0    0  0.28115315617E+03 -0.17700006763E+03 -0.21316097969E+04  0.21588251270E+04  0.79934234648E+02 0.  0.
          5    1    3    3  501    0 -0.24536794978E+03  0.20839217292E+03 -0.73019048877E+03  0.79801815042E+03  0.47000000000E+01 0. -1.
        -11    1    4    4    0    0 -0.32335191745E+02 -0.76035700343E+01 -0.14920568860E+03  0.15285848493E+03  0.00000000000E+00 0.  1.
         12    1    4    4    0    0 -0.15199335955E+02  0.54855775443E+02 -0.76312106373E+02  0.95203537182E+02  0.00000000000E+00 0. -1.
         -5    1    5    5    0  502  0.11749321310E+02 -0.78644310705E+02 -0.35823257255E+03  0.36698179818E+03  0.47000000000E+01 0.  1.
         11    1    6    6    0    0  0.20126741085E+03 -0.16179135931E+03 -0.17176722697E+04  0.17369752562E+04  0.00000000000E+00 0. -1.
        -12    1    6    6    0    0  0.79885745320E+02 -0.15208708313E+02 -0.41393752720E+03  0.42184987086E+03  0.00000000000E+00 0.  1.
</event>
<event>
12    1  0.1035051E+000  0.2699298E+03  0.7818608E-02  0.1101356E+00
         21   -1    0    0  501  502  0.00000000000E+00  0.00000000000E+00  0.17460538307E+03  0.17460538307E+03  0.00000000000E+00 0.  1.
         21   -1    0    0  502  503 -0.00000000000E+00 -0.00000000000E+00 -0.59381842616E+03  0.59381842616E+03  0.00000000000E+00 0.  1.
         -6    2    1    2    0  503 -0.20774553988E+03 -0.74802435333E+01  0.17329041893E+00  0.26967840992E+03  0.17179130177E+03 0.  0.
        -24    2    3    3    0    0 -0.22177618481E+03 -0.13647648152E+02 -0.27257831246E+02  0.23790653064E+03  0.80533182652E+02 0.  0.
          6    2    1    2  501    0  0.20774553988E+03  0.74802435333E+01 -0.41938633351E+03  0.49874539931E+03  0.17218569399E+03 0.  0.
         24    2    5    5    0    0  0.14966036084E+03  0.68758652243E+02 -0.25531020317E+03  0.31415938157E+03  0.79917715928E+02 0.  0.
          5    1    5    5  501    0  0.58085179036E+02 -0.61278408710E+02 -0.16407613034E+03  0.18458601774E+03  0.47000000000E+01 0. -1.
        -11    1    6    6    0    0  0.59966645215E+02  0.45244369309E+02 -0.53982719707E+02  0.92505056724E+02  0.00000000000E+00 0.  1.
         12    1    6    6    0    0  0.89693715627E+02  0.23514282934E+02 -0.20132748346E+03  0.22165432485E+03  0.00000000000E+00 0. -1.
         -5    1    3    3    0  503  0.14030644932E+02  0.61674046183E+01  0.27431121665E+02  0.31771879276E+02  0.47000000000E+01 0.  1.
         11    1    4    4    0    0 -0.11418253452E+03 -0.72354957615E+01  0.26528830664E+02  0.11744693459E+03  0.00000000000E+00 0. -1.
        -12    1    4    4    0    0 -0.10759365029E+03 -0.64121523901E+01 -0.53786661910E+02  0.12045959605E+03  0.00000000000E+00 0.  1.
</event>
<event>
12    1  0.1035051E+000  0.2035451E+03  0.7818608E-02  0.1146867E+00
         21   -1    0    0  501  502  0.00000000000E+00  0.00000000000E+00  0.22257585090E+03  0.22257585090E+03  0.00000000000E+00 0. -1.
         21   -1    0    0  502  503 -0.00000000000E+00 -0.00000000000E+00 -0.19968937786E+03  0.19968937786E+03  0.00000000000E+00 0. -1.
         -6    2    1    2    0  503 -0.10294419578E+03  0.34502818835E+02 -0.44320381754E+02  0.20791186548E+03  0.17168312561E+03 0.  0.
        -24    2    3    3    0    0 -0.11185896445E+03  0.60168721239E+01  0.16746273138E+02  0.13977855058E+03  0.81908332046E+02 0.  0.
          6    2    1    2  501    0  0.10294419578E+03 -0.34502818835E+02  0.67206854790E+02  0.21435336327E+03  0.17217041285E+03 0.  0.
         24    2    5    5    0    0  0.12081503092E+02 -0.51220043615E+02  0.11985940606E+02  0.10661788216E+03  0.91947019738E+02 0.  0.
          5    1    5    5  501    0  0.90862692691E+02  0.16717224780E+02  0.55220914183E+02  0.10773548111E+03  0.47000000000E+01 0. -1.
        -13    1    6    6    0    0 -0.37294062598E+02 -0.66998627378E+01 -0.43988918829E+01  0.38145583173E+02  0.00000000000E+00 0.  1.
         14    1    6    6    0    0  0.49375565690E+02 -0.44520180877E+02  0.16384832489E+02  0.68472298985E+02  0.00000000000E+00 0. -1.
         -5    1    3    3    0  503  0.89147686725E+01  0.28485946712E+02 -0.61066654892E+02  0.68133314907E+02  0.47000000000E+01 0.  1.
         13    1    4    4    0    0 -0.17241096054E+02 -0.13732350793E+02  0.35049252282E+02  0.41403900022E+02  0.00000000000E+00 0. -1.
        -14    1    4    4    0    0 -0.94617868400E+02  0.19749222917E+02 -0.18302979144E+02  0.98374650556E+02  0.00000000000E+00 0.  1.
</event>
<event>
12    1  0.1035051E+000  0.2624762E+03  0.7818608E-02  0.1105712E+00
         21   -1    0    0  501  502  0.00000000000E+00  0.00000000000E+00  0.36478533236E+03  0.36478533236E+03  0.00000000000E+00 0. -1.
         21   -1    0    0  502  503 -0.00000000000E+00 -0.00000000000E+00 -0.18887137631E+03  0.18887137631E+03  0.00000000000E+00 0. -1.
         -6    2    1    2    0  503 -0.12510871480E+03 -0.15152843893E+03  0.97874286909E+02  0.28013053913E+03  0.17401346094E+03 0.  0.
        -24    2    3    3    0    0 -0.52129044794E+02 -0.20354484199E+02 -0.16065558784E+01  0.99988465427E+02  0.82845457682E+02 0.  0.
          6    2    1    2  501    0  0.12510871480E+03  0.15152843893E+03  0.78039669138E+02  0.27352616954E+03  0.17353189085E+03 0.  0.
         24    2    5    5    0    0  0.10809225695E+02  0.90504569521E+02 -0.84622431049E+00  0.12175871574E+03  0.80725165213E+02 0.  0.
          5    1    5    5  501    0  0.11429948911E+03  0.61023869410E+02  0.78885893448E+02  0.15176745380E+03  0.47000000000E+01 0. -1.
        -11    1    6    6    0    0  0.33908846775E+02  0.92510116274E+02 -0.19170184591E+01  0.98547483288E+02  0.00000000000E+00 0.  1.
         12    1    6    6    0    0 -0.23099621080E+02 -0.20055467527E+01  0.10707941486E+01  0.23211232452E+02  0.00000000000E+00 0. -1.
         -5    1    3    3    0  503 -0.72979670010E+02 -0.13117395473E+03  0.99480842788E+02  0.18014207370E+03  0.47000000000E+01 0.  1.
         11    1    4    4    0    0 -0.69209888434E+02 -0.20289315388E+02  0.17647061220E+02  0.74250143069E+02  0.00000000000E+00 0. -1.
        -12    1    4    4    0    0  0.17080843640E+02 -0.65168810936E-01 -0.19253617099E+02  0.25738322358E+02  0.00000000000E+00 0.  1.
</event>
<event>
12    1  0.1035051E+000  0.2339942E+03  0.7818608E-02  0.1124904E+00
         21   -1    0    0  503  502  0.00000000000E+00  0.00000000000E+00  0.32334684018E+03  0.32334684018E+03  0.00000000000E+00 0.  1.
         21   -1    0    0  501  503 -0.00000000000E+00 -0.00000000000E+00 -0.16722773246E+03  0.16722773246E+03  0.00000000000E+00 0.  1.
          6    2    1    2  501    0  0.10643146937E+03 -0.11387131896E+03  0.10717400161E+03  0.25737046179E+03  0.17452493526E+03 0.  0.
         24    2    3    3    0    0  0.44049979678E+02 -0.73202584009E+02 -0.10222902980E+02  0.11826791161E+03  0.81140447103E+02 0.  0.
         -6    2    1    2    0  502 -0.10643146937E+03  0.11387131896E+03  0.48945106114E+02  0.23320411085E+03  0.16641574130E+03 0.  0.
        -24    2    5    5    0    0 -0.12582129221E+03  0.13291184479E+03  0.49448987032E+02  0.20562058770E+03  0.79611982193E+02 0.  0.
          5    1    3    3  501    0  0.62381489694E+02 -0.40668734951E+02  0.11739690459E+03  0.13910255018E+03  0.47000000000E+01 0. -1.
        -11    1    4    4    0    0  0.31177506627E+02  0.18404028896E+01  0.19177488416E+02  0.36649693917E+02  0.00000000000E+00 0.  1.
         12    1    4    4    0    0  0.12872473052E+02 -0.75042986898E+02 -0.29400391396E+02  0.81618217693E+02  0.00000000000E+00 0. -1.
         -5    1    5    5    0  502  0.19389822835E+02 -0.19040525833E+02 -0.50388091789E+00  0.27583523154E+02  0.47000000000E+01 0.  1.
         13    1    6    6    0    0 -0.81665658679E+02  0.11056048495E+03  0.67256411007E+02  0.15302393754E+03  0.00000000000E+00 0. -1.
        -14    1    6    6    0    0 -0.44155633528E+02  0.22351359844E+02 -0.17807423975E+02  0.52596650158E+02  0.00000000000E+00 0.  1.
</event>
<event>
12    1  0.1035051E+000  0.2054855E+03  0.7818608E-02  0.1145387E+00
         21   -1    0    0  503  502  0.00000000000E+00  0.00000000000E+00  0.39022573207E+03  0.39022573207E+03  0.00000000000E+00 0. -1.
         21   -1    0    0  501  503 -0.00000000000E+00 -0.00000000000E+00 -0.24815464654E+03  0.24815464654E+03  0.00000000000E+00 0.  1.
          6    2    1    2  501    0  0.94124462617E+02 -0.61414806505E+02  0.31124141350E+03  0.37295508336E+03  0.17202640438E+03 0.  0.
         24    2    3    3    0    0  0.13867436215E+02  0.18920869318E+02  0.77785234855E+02  0.11330360841E+03  0.78973792069E+02 0.  0.
         -6    2    1    2    0  502 -0.94124462617E+02  0.61414806505E+02 -0.16917032797E+03  0.26542529526E+03  0.17088239984E+03 0.  0.
        -24    2    5    5    0    0 -0.86637513307E+02 -0.17467253903E+02 -0.69977508065E+02  0.13838302125E+03  0.80261106799E+02 0.  0.
          5    1    3    3  501    0  0.80257026402E+02 -0.80335675824E+02  0.23345617864E+03  0.25965147495E+03  0.47000000000E+01 0. -1.
        -11    1    4    4    0    0 -0.49158889902E+01  0.19376765039E+02 -0.10818073408E+02  0.22730061597E+02  0.00000000000E+00 0.  1.
         12    1    4    4    0    0  0.18783325205E+02 -0.45589572061E+00  0.88603308263E+02  0.90573546811E+02  0.00000000000E+00 0. -1.
         -5    1    5    5    0  502 -0.74869493106E+01  0.78882060408E+02 -0.99192819905E+02  0.12704227401E+03  0.47000000000E+01 0.  1.
         11    1    6    6    0    0 -0.93353095753E+02 -0.23132311002E+02 -0.35044673942E+02  0.10236226585E+03  0.00000000000E+00 0. -1.
        -12    1    6    6    0    0  0.67155824459E+01  0.56650570996E+01 -0.34932834123E+02  0.36020755397E+02  0.00000000000E+00 0.  1.
</event>
<event>
12    1  0.1035051E+000  0.2108627E+03  0.7818608E-02  0.1141000E+00
         21   -1    0    0  501  502  0.00000000000E+00  0.00000000000E+00  0.13756863182E+03  0.13756863182E+03  0.00000000000E+00 0.  1.
         21   -1    0    0  502  503 -0.00000000000E+00 -0.00000000000E+00 -0.35130908345E+03  0.35130908345E+03  0.00000000000E+00 0.  1.
         -6    2    1    2    0  503 -0.11660075991E+03 -0.36367806030E+02 -0.36781162569E+02  0.21404655283E+03  0.17188577118E+03 0.  0.
        -24    2    3    3    0    0 -0.60755465743E+02 -0.88972876165E+02 -0.29135909409E+02  0.13680323481E+03  0.79112733020E+02 0.  0.
          6    2    1    2  501    0  0.11660075991E+03  0.36367806030E+02 -0.17695928906E+03  0.27483116243E+03  0.17117015899E+03 0.  0.
         24    2    5    5    0    0  0.18244042738E+02  0.56828848374E+02 -0.13124002670E+03  0.16435474405E+03  0.78906109908E+02 0.  0.
          5    1    5    5  501    0  0.98356717169E+02 -0.20461042344E+02 -0.45719262358E+02  0.11047641837E+03  0.47000000000E+01 0. -1.
        -11    1    6    6    0    0 -0.11663991187E+02 -0.12503198651E+02 -0.60146190650E+01  0.18126067125E+02  0.00000000000E+00 0.  1.
         12    1    6    6    0    0  0.29908033925E+02  0.69332047025E+02 -0.12522540764E+03  0.14622867693E+03  0.00000000000E+00 0. -1.
         -5    1    3    3    0  503 -0.55845294163E+02  0.52605070135E+02 -0.76452531599E+01  0.77243318028E+02  0.47000000000E+01 0.  1.
         11    1    4    4    0    0 -0.31552209544E+01 -0.70450941368E+02 -0.29122772127E+02  0.76298272689E+02  0.00000000000E+00 0. -1.
        -12    1    4    4    0    0 -0.57600244789E+02 -0.18521934797E+02 -0.13137281993E-01  0.60504962118E+02  0.00000000000E+00 0.  1.
</event>
<event>
12    1  0.1035051E+000  0.2122694E+03  0.7818608E-02  0.1139821E+00
         21   -1    0    0  501  502  0.00000000000E+00  0.00000000000E+00  0.25142636400E+03  0.25142636400E+03  0.00000000000E+00 0.  1.
         21   -1    0    0  502  503 -0.00000000000E+00 -0.00000000000E+00 -0.19306368600E+03  0.19306368600E+03  0.00000000000E+00 0.  1.
         -6    2    1    2    0  503 -0.11837883149E+03  0.34829103179E+02 -0.30726985209E+02  0.21428304132E+03  0.17247162086E+03 0.  0.
        -24    2    3    3    0    0 -0.94105946624E+02  0.41647386697E+02  0.42783253892E+02  0.13642735956E+03  0.78686616482E+02 0.  0.
          6    2    1    2  501    0  0.11837883149E+03 -0.34829103179E+02  0.89089663211E+02  0.23020700867E+03  0.17271851255E+03 0.  0.
         24    2    5    5    0    0  0.46539508614E+01 -0.43309779855E+02  0.71296920689E+02  0.11469102693E+03  0.78570888179E+02 0.  0.
          5    1    5    5  501    0  0.11372488063E+03  0.84806766758E+01  0.17792742522E+02  0.11551598174E+03  0.47000000000E+01 0. -1.
        -11    1    6    6    0    0  0.77068445176E+01 -0.52215485817E+01  0.75661632443E+02  0.76232162805E+02  0.00000000000E+00 0.  1.
         12    1    6    6    0    0 -0.30528936562E+01 -0.38088231273E+02 -0.43647117542E+01  0.38458864126E+02  0.00000000000E+00 0. -1.
         -5    1    3    3    0  503 -0.24272884869E+02 -0.68182835177E+01 -0.73510239101E+02  0.77855681762E+02  0.47000000000E+01 0.  1.
         11    1    4    4    0    0 -0.18517536912E+02  0.33277974077E+02 -0.14984106746E+02  0.40924884691E+02  0.00000000000E+00 0. -1.
        -12    1    4    4    0    0 -0.75588409712E+02  0.83694126193E+01  0.57767360638E+02  0.95502474866E+02  0.00000000000E+00 0.  1.
</event>
<event>
12    1  0.1035051E+000  0.2034069E+03  0.7818608E-02  0.1147075E+00
         21   -1    0    0  501  502  0.00000000000E+00  0.00000000000E+00  0.11108534489E+04  0.11108534489E+04  0.00000000000E+00 0. -1.
         21   -1    0    0  502  503 -0.00000000000E+00 -0.00000000000E+00 -0.59992744975E+02  0.59992744975E+02  0.00000000000E+00 0. -1.
         -6    2    1    2    0  503  0.63562765946E+02  0.87034633666E+02  0.88647243946E+03  0.90931633803E+03  0.17148633769E+03 0.  0.
        -24    2    3    3    0    0 -0.11959738947E+02  0.76117926551E+02  0.68340266689E+03  0.69233190133E+03  0.79669833600E+02 0.  0.
          6    2    1    2  501    0 -0.63562765946E+02 -0.87034633666E+02  0.16438826441E+03  0.26152985579E+03  0.17250829349E+03 0.  0.
         24    2    5    5    0    0  0.17998692514E+02 -0.51539726108E+02  0.31775346791E+02  0.10177868713E+03  0.79805589973E+02 0.  0.
          5    1    5    5  501    0 -0.81561458461E+02 -0.35494907558E+02  0.13261291762E+03  0.15975116866E+03  0.47000000000E+01 0. -1.
        -11    1    6    6    0    0 -0.26180315257E+02 -0.30476255151E+02  0.34218729059E+02  0.52774354126E+02  0.00000000000E+00 0.  1.
         12    1    6    6    0    0  0.44179007771E+02 -0.21063470957E+02 -0.24433822680E+01  0.49004333005E+02  0.00000000000E+00 0. -1.
         -5    1    3    3    0  503  0.75522504893E+02  0.10916707115E+02  0.20306977257E+03  0.21698443670E+03  0.47000000000E+01 0.  1.
         11    1    4    4    0    0 -0.35238554851E+02  0.46711418893E+01  0.23626291034E+03  0.23892203356E+03  0.00000000000E+00 0. -1.
        -12    1    4    4    0    0  0.23278815905E+02  0.71446784661E+02  0.44713975655E+03  0.45340986777E+03  0.00000000000E+00 0.  1.
</event>
<event>
12    1  0.1035051E+000  0.2387457E+03  0.7818608E-02  0.1121406E+00
         21   -1    0    0  503  502  0.00000000000E+00  0.00000000000E+00  0.89702896838E+03  0.89702896838E+03  0.00000000000E+00 0.  1.
         21   -1    0    0  501  503 -0.00000000000E+00 -0.00000000000E+00 -0.19153680992E+03  0.19153680992E+03  0.00000000000E+00 0.  1.
          6    2    1    2  501    0 -0.55873647312E+02 -0.15402653255E+03 -0.95391405520E+02  0.25285410269E+03  0.16730104544E+03 0.  0.
         24    2    3    3    0    0 -0.55837798727E+02 -0.87517296401E+02 -0.12337696304E+03  0.18054392907E+03  0.81222523843E+02 0.  0.
         -6    2    1    2    0  502  0.55873647312E+02  0.15402653255E+03  0.80088356398E+03  0.83571167561E+03  0.17364758707E+03 0.  0.
        -24    2    5    5    0    0  0.73561572974E+02  0.13154671912E+03  0.78369455275E+03  0.80201068403E+03  0.79549613193E+02 0.  0.
          5    1    3    3  501    0 -0.35848585572E-01 -0.66509236152E+02  0.27985557523E+02  0.72310173617E+02  0.47000000000E+01 0. -1.
        -13    1    4    4    0    0 -0.46943703604E+02 -0.53622816852E+02 -0.24049365845E+02  0.75216286752E+02  0.00000000000E+00 0.  1.
         14    1    4    4    0    0 -0.88940951231E+01 -0.33894479550E+02 -0.99327597197E+02  0.10532764232E+03  0.00000000000E+00 0. -1.
         -5    1    5    5    0  502 -0.17687925661E+02  0.22479813436E+02  0.17189011235E+02  0.33700991581E+02  0.47000000000E+01 0.  1.
         11    1    6    6    0    0  0.42175553987E+02  0.67156273330E+02  0.59348827546E+03  0.59876295436E+03  0.00000000000E+00 0. -1.
        -12    1    6    6    0    0  0.31386018987E+02  0.64390445788E+02  0.19020627728E+03  0.20324772967E+03  0.00000000000E+00 0.  1.
</event>
<event>
12    1  0.1035051E+000  0.6830697E+03  0.7818608E-02  0.9746790E-01
         21   -1    0    0  503  502  0.00000000000E+00  0.00000000000E+00  0.34425316098E+03  0.34425316098E+03  0.00000000000E+00 0. -1.
         21   -1    0    0  501  503 -0.00000000000E+00 -0.00000000000E+00 -0.16819225917E+04  0.16819225917E+04  0.00000000000E+00 0. -1.
          6    2    1    2  501    0  0.62024905861E+03  0.22731246158E+03 -0.11158709702E+04  0.13083395084E+04  0.17379412333E+03 0.  0.
         24    2    3    3    0    0  0.29396889453E+03  0.16369696216E+03 -0.64418502348E+03  0.73126464364E+03  0.80989062217E+02 0.  0.
         -6    2    1    2    0  502 -0.62024905861E+03 -0.22731246158E+03 -0.22179846051E+03  0.71783624423E+03  0.17237884597E+03 0.  0.
        -24    2    5    5    0    0 -0.40636411328E+03 -0.21478572727E+03 -0.17745971439E+03  0.49899451301E+03  0.78986534202E+02 0.  0.
          5    1    3    3  501    0  0.32628016409E+03  0.63615499421E+02 -0.47168594669E+03  0.57707486477E+03  0.47000000000E+01 0. -1.
        -11    1    4    4    0    0  0.13588654961E+03  0.49840999627E+02 -0.34630709839E+03  0.37533702989E+03  0.00000000000E+00 0.  1.
         12    1    4    4    0    0  0.15808234492E+03  0.11385596254E+03 -0.29787792508E+03  0.35592761376E+03  0.00000000000E+00 0. -1.
         -5    1    5    5    0  502 -0.21388494533E+03 -0.12526734316E+02 -0.44338746122E+02  0.21884173121E+03  0.47000000000E+01 0.  1.
         11    1    6    6    0    0 -0.35701464058E+03 -0.16009470550E+03 -0.16332111953E+03  0.42398532569E+03  0.00000000000E+00 0. -1.
        -12    1    6    6    0    0 -0.49349472703E+02 -0.54691021769E+02 -0.14138594855E+02  0.75009187321E+02  0.00000000000E+00 0.  1.
</event>
<event>
12    1  0.1035051E+000  0.1727605E+03  0.7818608E-02  0.1175396E+00
         21   -1    0    0  503  502  0.00000000000E+00  0.00000000000E+00  0.12266425882E+03  0.12266425882E+03  0.00000000000E+00 0.  1.
         21   -1    0    0  501  503 -0.00000000000E+00 -0.00000000000E+00 -0.24371109071E+03  0.24371109071E+03  0.00000000000E+00 0.  1.
          6    2    1    2  501    0  0.12032219022E+02 -0.92049814451E+01 -0.41981041280E+02  0.17778805462E+03  0.17209496959E+03 0.  0.
         24    2    3    3    0    0  0.56063546629E+02  0.39575158819E+02 -0.95630220063E+01  0.10436273290E+03  0.78043668372E+02 0.  0.
         -6    2    1    2    0  502 -0.12032219022E+02  0.92049814451E+01 -0.79065790605E+02  0.18858729491E+03  0.17054108766E+03 0.  0.
        -24    2    5    5    0    0 -0.11332817960E+02 -0.35116528338E+02 -0.10467086212E+03  0.13718111748E+03  0.80629190060E+02 0.  0.
          5    1    3    3  501    0 -0.44031327607E+02 -0.48780140265E+02 -0.32418019274E+02  0.73425321713E+02  0.47000000000E+01 0. -1.
        -11    1    4    4    0    0  0.13142805041E+02  0.29313948642E+02 -0.39591011237E+02  0.50985184908E+02  0.00000000000E+00 0.  1.
         12    1    4    4    0    0  0.42920741587E+02  0.10261210178E+02  0.30027989231E+02  0.53377547995E+02  0.00000000000E+00 0. -1.
         -5    1    5    5    0  502 -0.69940106190E+00  0.44321509783E+02  0.25605071516E+02  0.51406177437E+02  0.47000000000E+01 0.  1.
         11    1    6    6    0    0  0.27971406211E+02 -0.80557908714E+01 -0.76303297517E+02  0.81666936663E+02  0.00000000000E+00 0. -1.
        -12    1    6    6    0    0 -0.39304224171E+02 -0.27060737467E+02 -0.28367564604E+02  0.55514180814E+02  0.00000000000E+00 0.  1.
</event>
<event>
12    1  0.1035051E+000  0.2441525E+03  0.7818608E-02  0.1117175E+00
         21   -1    0    0  501  502  0.00000000000E+00  0.00000000000E+00  0.12158689953E+04  0.12158689953E+04  0.00000000000E+00 0. -1.
         21   -1    0    0  502  503 -0.00000000000E+00 -0.00000000000E+00 -0.48957242605E+02  0.48957242605E+02  0.00000000000E+00 0. -1.
         -6    2    1    2    0  503 -0.17365294787E+03 -0.68434961990E+00  0.60731054026E+03  0.65428226659E+03  0.17059712023E+03 0.  0.
        -24    2    3    3    0    0 -0.18135630414E+03 -0.33438739046E+02  0.44779846910E+03  0.49119216092E+03  0.82085392700E+02 0.  0.
          6    2    1    2  501    0  0.17365294787E+03  0.68434961990E+00  0.55960121248E+03  0.61054397136E+03  0.17162345211E+03 0.  0.
         24    2    5    5    0    0  0.24354673676E+02  0.26271177855E+02  0.14521343710E+03  0.16931389664E+03  0.79353187479E+02 0.  0.
          5    1    5    5  501    0  0.14929827419E+03 -0.25586828235E+02  0.41438777538E+03  0.44123007472E+03  0.47000000000E+01 0. -1.
        -13    1    6    6    0    0  0.48593085929E+02  0.36481597669E+02  0.10138715360E+03  0.11820131083E+03  0.00000000000E+00 0.  1.
         14    1    6    6    0    0 -0.24238412253E+02 -0.10210419814E+02  0.43826283505E+02  0.51112585801E+02  0.00000000000E+00 0. -1.
         -5    1    3    3    0  503  0.77033562745E+01  0.32754389426E+02  0.15951207115E+03  0.16309010567E+03  0.47000000000E+01 0.  1.
         11    1    4    4    0    0 -0.30142342312E+02  0.25384782719E+02  0.79162926703E+02  0.88429163504E+02  0.00000000000E+00 0. -1.
        -12    1    4    4    0    0 -0.15121396183E+03 -0.58823521766E+02  0.36863554240E+03  0.40276299741E+03  0.00000000000E+00 0.  1.
</event>
<event>
12    1  0.1035051E+000  0.2886296E+03  0.7818608E-02  0.1091222E+00
         21   -1    0    0  501  502  0.00000000000E+00  0.00000000000E+00  0.11604359958E+03  0.11604359958E+03  0.00000000000E+00 0.  1.
         21   -1    0    0  502  503 -0.00000000000E+00 -0.00000000000E+00 -0.73572079501E+03  0.73572079501E+03  0.00000000000E+00 0. -1.
         -6    2    1    2    0  503  0.76216989200E+02  0.21791417315E+03 -0.38197495041E+03  0.47876081169E+03  0.17323808984E+03 0.  0.
        -24    2    3    3    0    0 -0.14238128559E+02  0.14730371789E+03 -0.18259228805E+03  0.24866626424E+03  0.81202572031E+02 0.  0.
          6    2    1    2  501    0 -0.76216989200E+02 -0.21791417315E+03 -0.23770224502E+03  0.37300358289E+03  0.17127083599E+03 0.  0.
         24    2    5    5    0    0 -0.41133181843E+02 -0.10889648602E+03 -0.43966462843E+02  0.14790055550E+03  0.79944612991E+02 0.  0.
          5    1    5    5  501    0 -0.35083807357E+02 -0.10901768714E+03 -0.19373578218E+03  0.22510302740E+03  0.47000000000E+01 0. -1.
        -13    1    6    6    0    0 -0.34895132095E+01 -0.35238735967E+02 -0.53999671159E+02  0.64574837981E+02  0.00000000000E+00 0.  1.
         14    1    6    6    0    0 -0.37643668633E+02 -0.73657750050E+02  0.10033208316E+02  0.83325717517E+02  0.00000000000E+00 0. -1.
         -5    1    3    3    0  503  0.90455117759E+02  0.70610455257E+02 -0.19938266236E+03  0.23009454746E+03  0.47000000000E+01 0.  1.
         11    1    4    4    0    0 -0.28224082315E+02  0.12555176737E+03 -0.10254628544E+03  0.16454660668E+03  0.00000000000E+00 0. -1.
        -12    1    4    4    0    0  0.13985953755E+02  0.21751950525E+02 -0.80046002608E+02  0.84119657558E+02  0.00000000000E+00 0.  1.
</event>
<event>
12    1  0.1035051E+000  0.2635925E+03  0.7818608E-02  0.1105029E+00
         21   -1    0    0  503  502  0.00000000000E+00  0.00000000000E+00  0.18422750140E+03  0.18422750140E+03  0.00000000000E+00 0.  1.
         21   -1    0    0  501  503 -0.00000000000E+00 -0.00000000000E+00 -0.49547700702E+03  0.49547700702E+03  0.00000000000E+00 0.  1.
          6    2    1    2  501    0  0.19776932335E+03 -0.24694172719E+02  0.10668307263E+02  0.26363712293E+03  0.17224462947E+03 0.  0.
         24    2    3    3    0    0  0.10452110259E+03  0.40266213673E+02 -0.31296578156E+02  0.14240089038E+03  0.82173651042E+02 0.  0.
         -6    2    1    2    0  502 -0.19776932335E+03  0.24694172719E+02 -0.32191781287E+03  0.41606738549E+03  0.17250647408E+03 0.  0.
        -24    2    5    5    0    0 -0.14288310676E+03  0.82037210032E+02 -0.23213509132E+03  0.29613512216E+03  0.81631023047E+02 0.  0.
          5    1    3    3  501    0  0.93248220760E+02 -0.64960386391E+02  0.41964885419E+02  0.12123623255E+03  0.47000000000E+01 0. -1.
        -13    1    4    4    0    0  0.82286874014E+02 -0.10290177999E+02 -0.26047909994E+02  0.86922442518E+02  0.00000000000E+00 0.  1.
         14    1    4    4    0    0  0.22234228576E+02  0.50556391672E+02 -0.52486681615E+01  0.55478447858E+02  0.00000000000E+00 0. -1.
         -5    1    5    5    0  502 -0.54886216588E+02 -0.57343037314E+02 -0.89782721553E+02  0.11993226334E+03  0.47000000000E+01 0.  1.
         13    1    6    6    0    0 -0.42686757468E+02 -0.22811403623E+01 -0.10608055692E+03  0.11436978369E+03  0.00000000000E+00 0. -1.
        -14    1    6    6    0    0 -0.10019634929E+03  0.84318350394E+02 -0.12605453440E+03  0.18176533847E+03  0.00000000000E+00 0.  1.
</event>
<event>
12    1  0.1035051E+000  0.2182289E+03  0.7818608E-02  0.1139025E+00
         21   -1    0    0  503  502  0.00000000000E+00  0.00000000000E+00  0.25273960623E+03  0.25273960623E+03  0.00000000000E+00 0.  1.
         21   -1    0    0  501  503 -0.00000000000E+00 -0.00000000000E+00 -0.17231253715E+03  0.17231253715E+03  0.00000000000E+00 0.  1.
          6    2    1    2  501    0 -0.91342462168E+02 -0.52267151768E+02  0.44804362605E+02  0.20393489412E+03  0.16883930106E+03 0.  0.
         24    2    3    3    0    0 -0.76633254695E+02 -0.42512617920E+02 -0.34274275283E+02  0.12277435762E+03  0.78859612824E+02 0.  0.
         -6    2    1    2    0  502  0.91342462168E+02  0.52267151768E+02  0.35622706476E+02  0.22111724926E+03  0.19117677724E+03 0.  0.
        -24    2    5    5    0    0  0.83197617023E+00  0.14114643126E+02 -0.43881685572E+02  0.94662512911E+02  0.82676923546E+02 0.  0.
          5    1    3    3  501    0 -0.14709207473E+02 -0.97545338479E+01  0.79078637888E+02  0.81160536502E+02  0.47000000000E+01 0. -1.
        -13    1    4    4    0    0 -0.79647812438E+02 -0.53714359127E+02 -0.10905435605E+02  0.96684719208E+02  0.00000000000E+00 0.  1.
         14    1    4    4    0    0  0.30145577427E+01  0.11201741207E+02 -0.23368839679E+02  0.26089638410E+02  0.00000000000E+00 0. -1.
         -5    1    5    5    0  502  0.90510485998E+02  0.38152508642E+02  0.79504392048E+02  0.12645473635E+03  0.47000000000E+01 0.  1.
         13    1    6    6    0    0  0.21367445034E+02  0.25438326055E+02  0.10988025899E+02  0.34991611179E+02  0.00000000000E+00 0. -1.
        -14    1    6    6    0    0 -0.20535468864E+02 -0.11323682930E+02 -0.54869711471E+02  0.59670901731E+02  0.00000000000E+00 0.  1.
</event>
<event>
12    1  0.1035051E+000  0.1846225E+03  0.7818608E-02  0.1163474E+00
         21   -1    0    0  503  502  0.00000000000E+00  0.00000000000E+00  0.71836868227E+03  0.71836868227E+03  0.00000000000E+00 0. -1.
         21   -1    0    0  501  503 -0.00000000000E+00 -0.00000000000E+00 -0.47471836966E+02  0.47471836966E+02  0.00000000000E+00 0. -1.
          6    2    1    2  501    0  0.55929756758E+02 -0.37113473156E+02  0.35289916559E+03  0.39813414871E+03  0.17166080426E+03 0.  0.
         24    2    3    3    0    0  0.57217820410E+01 -0.77241803611E+02  0.16033345753E+03  0.19507069669E+03  0.79666329699E+02 0.  0.
         -6    2    1    2    0  502 -0.55929756758E+02  0.37113473156E+02  0.31799767972E+03  0.36770637053E+03  0.17198808981E+03 0.  0.
        -24    2    5    5    0    0 -0.48398714837E+02  0.89233947061E+02  0.19441821484E+03  0.23329195711E+03  0.79508251682E+02 0.  0.
          5    1    3    3  501    0  0.50207974717E+02  0.40128330455E+02  0.19256570805E+03  0.20306345203E+03  0.47000000000E+01 0. -1.
        -11    1    4    4    0    0 -0.24606121760E+02 -0.75789882027E+02  0.10334115951E+03  0.13049506770E+03  0.00000000000E+00 0.  1.
         12    1    4    4    0    0  0.30327903801E+02 -0.14519215841E+01  0.56992298021E+02  0.64575628986E+02  0.00000000000E+00 0. -1.
         -5    1    5    5    0  502 -0.75310419209E+01 -0.52120473905E+02  0.12357946489E+03  0.13441441342E+03  0.47000000000E+01 0.  1.
         13    1    6    6    0    0  0.81189999957E+01  0.68121056673E+02  0.10207644215E+03  0.12298779031E+03  0.00000000000E+00 0. -1.
        -14    1    6    6    0    0 -0.56517714833E+02  0.21112890388E+02  0.92341772684E+02  0.11030416680E+03  0.00000000000E+00 0.  1.
</event>
<event>
12    1  0.1035051E+000  0.2430485E+03  0.7818608E-02  0.1118015E+00
         21   -1    0    0  503  502  0.00000000000E+00  0.00000000000E+00  0.13477486605E+03  0.13477486605E+03  0.00000000000E+00 0.  1.
         21   -1    0    0  501  503 -0.00000000000E+00 -0.00000000000E+00 -0.47058511572E+03  0.47058511572E+03  0.00000000000E+00 0.  1.
          6    2    1    2  501    0 -0.14328275880E+03  0.90388414174E+02 -0.85970876047E+02  0.25780531511E+03  0.17427729222E+03 0.  0.
         24    2    3    3    0    0 -0.24121151675E+02  0.40300564898E+02  0.13384113896E+02  0.94704777756E+02  0.81141203688E+02 0.  0.
         -6    2    1    2    0  502  0.14328275880E+03 -0.90388414174E+02 -0.24983937362E+03  0.34755466666E+03  0.17226293658E+03 0.  0.
        -24    2    5    5    0    0  0.14147572941E+03 -0.87923329520E+02 -0.12594868599E+03  0.22353719015E+03  0.79749043829E+02 0.  0.
          5    1    3    3  501    0 -0.11916160713E+03  0.50087849277E+02 -0.99354989943E+02  0.16310053735E+03  0.47000000000E+01 0. -1.
        -13    1    4    4    0    0  0.28706467530E+01 -0.19190809461E+02 -0.13939935869E+02  0.23892458906E+02  0.00000000000E+00 0.  1.
         14    1    4    4    0    0 -0.26991798428E+02  0.59491374358E+02  0.27324049765E+02  0.70812318850E+02  0.00000000000E+00 0. -1.
         -5    1    5    5    0  502  0.18070293939E+01 -0.24650846540E+01 -0.12389068764E+03  0.12401747651E+03  0.47000000000E+01 0.  1.
         13    1    6    6    0    0  0.59902109080E+02 -0.82774075389E+02 -0.80023322744E+02  0.12978267377E+03  0.00000000000E+00 0. -1.
        -14    1    6    6    0    0  0.81573620328E+02 -0.51492541314E+01 -0.45925363241E+02  0.93754516373E+02  0.00000000000E+00 0.  1.
</event>
<event>
12    1  0.1035051E+000  0.1735874E+03  0.7818608E-02  0.1174243E+00
         21   -1    0    0  501  502  0.00000000000E+00  0.00000000000E+00  0.45081641239E+03  0.45081641239E+03  0.00000000000E+00 0. -1.
         21   -1    0    0  502  503 -0.00000000000E+00 -0.00000000000E+00 -0.88491017129E+02  0.88491017129E+02  0.00000000000E+00 0. -1.
         -6    2    1    2    0  503  0.24703826338E+02  0.36768594141E+01  0.47248358577E+02  0.17957681485E+03  0.17143986325E+03 0.  0.
        -24    2    3    3    0    0 -0.22711642670E+02 -0.53285921354E+02  0.19526507874E+02  0.10030780388E+03  0.79530892625E+02 0.  0.
          6    2    1    2  501    0 -0.24703826338E+02 -0.36768594141E+01  0.31507703668E+03  0.35973061467E+03  0.17178119150E+03 0.  0.
         24    2    5    5    0    0 -0.68384683244E+02  0.26843231646E+02  0.14316604713E+03  0.17968903184E+03  0.79966287430E+02 0.  0.
          5    1    5    5  501    0  0.43680856906E+02 -0.30520091060E+02  0.17191098956E+03  0.18004158283E+03  0.47000000000E+01 0. -1.
        -13    1    6    6    0    0 -0.36652347915E+02  0.49448325041E+02  0.11862661715E+03  0.13364432556E+03  0.00000000000E+00 0.  1.
         14    1    6    6    0    0 -0.31732335329E+02 -0.22605093395E+02  0.24539429974E+02  0.46044706279E+02  0.00000000000E+00 0. -1.
         -5    1    3    3    0  503  0.47415469008E+02  0.56962780768E+02  0.27721850703E+02  0.79269010972E+02  0.47000000000E+01 0.  1.
         13    1    4    4    0    0  0.11323489069E+02  0.15966723828E+02  0.11560938875E+02  0.22733521112E+02  0.00000000000E+00 0. -1.
        -14    1    4    4    0    0 -0.34035131739E+02 -0.69252645182E+02  0.79655689996E+01  0.77574282766E+02  0.00000000000E+00 0.  1.
</event>
<event>
12    1  0.1035051E+000  0.1746933E+03  0.7818608E-02  0.1173325E+00
         21   -1    0    0  503  502  0.00000000000E+00  0.00000000000E+00  0.20963180954E+02  0.20963180954E+02  0.00000000000E+00 0. -1.
         21   -1    0    0  501  503 -0.00000000000E+00 -0.00000000000E+00 -0.14944688969E+04  0.14944688969E+04  0.00000000000E+00 0. -1.
          6    2    1    2  501    0  0.24291590774E+02 -0.69102665664E+01 -0.87034330012E+03  0.88748092446E+03  0.17171807721E+03 0.  0.
         24    2    3    3    0    0  0.22376253063E+02 -0.26868907654E+02 -0.86042978507E+03  0.86462521066E+03  0.77554529022E+02 0.  0.
         -6    2    1    2    0  502 -0.24291590774E+02  0.69102665664E+01 -0.60316241583E+03  0.62795115341E+03  0.17285808637E+03 0.  0.
        -24    2    5    5    0    0 -0.51012277491E+02 -0.51907153051E+01 -0.58580615896E+03  0.59354536155E+03  0.80610448176E+02 0.  0.
          5    1    3    3  501    0  0.19153377117E+01  0.19958641088E+02 -0.99135150562E+01  0.22855713802E+02  0.47000000000E+01 0. -1.
        -11    1    4    4    0    0  0.37029260149E+02  0.14152693104E+02 -0.32076849553E+03  0.32320874456E+03  0.00000000000E+00 0.  1.
         12    1    4    4    0    0 -0.14653007087E+02 -0.41021600758E+02 -0.53966128953E+03  0.54141646610E+03  0.00000000000E+00 0. -1.
         -5    1    5    5    0  502  0.26720686717E+02  0.12100981872E+02 -0.17356256870E+02  0.34405791859E+02  0.47000000000E+01 0.  1.
         11    1    6    6    0    0 -0.32280247267E+02 -0.30722519004E+02 -0.14720294933E+03  0.15380050660E+03  0.00000000000E+00 0. -1.
        -12    1    6    6    0    0 -0.18732030224E+02  0.25531803698E+02 -0.43860320963E+03  0.43974485495E+03  0.00000000000E+00 0.  1.
</event>
<event>
12    1  0.1035051E+000  0.2364251E+03  0.7818608E-02  0.1122667E+00
         21   -1    0    0  503  502  0.00000000000E+00  0.00000000000E+00  0.26501868232E+03  0.26501868232E+03  0.00000000000E+00 0.  1.
         21   -1    0    0  501  503 -0.00000000000E+00 -0.00000000000E+00 -0.21937136102E+03  0.21937136102E+03  0.00000000000E+00 0.  1.
          6    2    1    2  501    0 -0.51202115153E+02 -0.15014771663E+03  0.76674422961E+02  0.24593770520E+03  0.17158203373E+03 0.  0.
         24    2    3    3    0    0 -0.24663054925E+02 -0.94951312398E+01  0.57648291184E+02  0.10146779420E+03  0.79208358064E+02 0.  0.
         -6    2    1    2    0  502  0.51202115153E+02  0.15014771663E+03 -0.31027101664E+02  0.23845233813E+03  0.17530214807E+03 0.  0.
        -24    2    5    5    0    0 -0.38208577960E+02  0.56870365119E+02 -0.28058574073E+02  0.10912392476E+03  0.80166161928E+02 0.  0.
          5    1    3    3  501    0 -0.26539060228E+02 -0.14065258539E+03  0.19026131776E+02  0.14446991101E+03  0.47000000000E+01 0. -1.
        -13    1    4    4    0    0 -0.36204838835E+02 -0.31972942957E+02  0.12763816606E+02  0.49959728289E+02  0.00000000000E+00 0.  1.
         14    1    4    4    0    0  0.11541783909E+02  0.22477811717E+02  0.44884474579E+02  0.51508065908E+02  0.00000000000E+00 0. -1.
         -5    1    5    5    0  502  0.89410693113E+02  0.93277351514E+02 -0.29685275907E+01  0.12932841337E+03  0.47000000000E+01 0.  1.
         11    1    6    6    0    0 -0.53613652383E+02  0.62250129575E+02 -0.69571034829E+01  0.82449400500E+02  0.00000000000E+00 0. -1.
        -12    1    6    6    0    0  0.15405074424E+02 -0.53797644557E+01 -0.21101470590E+02  0.26674524263E+02  0.00000000000E+00 0.  1.
</event>
<event>
12    1  0.1035051E+000  0.1815852E+03  0.7818608E-02  0.1166501E+00
         21   -1    0    0  503  502  0.00000000000E+00  0.00000000000E+00  0.86241378886E+02  0.86241378886E+02  0.00000000000E+00 0.  1.
         21   -1    0    0  501  503 -0.00000000000E+00 -0.00000000000E+00 -0.38107168642E+03  0.38107168642E+03  0.00000000000E+00 0.  1.
          6    2    1    2  501    0  0.24359123054E+02 -0.51113685361E+02 -0.13780144020E+03  0.22795269428E+03  0.17253178896E+03 0.  0.
         24    2    3    3    0    0 -0.40419806205E+02 -0.24435956783E+02 -0.13464139251E+03  0.15766694339E+03  0.67079682033E+02 0.  0.
         -6    2    1    2    0  502 -0.24359123054E+02  0.51113685361E+02 -0.15702886733E+03  0.23936037102E+03  0.17154983629E+03 0.  0.
        -24    2    5    5    0    0 -0.25708477469E+02  0.72994306244E+02 -0.17676146793E+03  0.20949320085E+03  0.81570154465E+02 0.  0.
          5    1    3    3  501    0  0.64778929259E+02 -0.26677728578E+02 -0.31600476915E+01  0.70285750899E+02  0.47000000000E+01 0. -1.
        -11    1    4    4    0    0  0.18065077805E+01 -0.14182912211E+02 -0.10281670493E+03  0.10380603682E+03  0.00000000000E+00 0.  1.
         12    1    4    4    0    0 -0.42226313985E+02 -0.10253044572E+02 -0.31824687584E+02  0.53860906561E+02  0.00000000000E+00 0. -1.
         -5    1    5    5    0  502  0.13493544141E+01 -0.21880620883E+02  0.19732600600E+02  0.29867170170E+02  0.47000000000E+01 0.  1.
         13    1    6    6    0    0 -0.35493563402E+01 -0.17743780140E+02 -0.19643086730E+02  0.26707499328E+02  0.00000000000E+00 0. -1.
        -14    1    6    6    0    0 -0.22159121128E+02  0.90738086384E+02 -0.15711838120E+03  0.18278570152E+03  0.00000000000E+00 0.  1.
</event>
<event>
12    1  0.1035051E+000  0.2283259E+03  0.7818608E-02  0.1127825E+00
         21   -1    0    0  503  502  0.00000000000E+00  0.00000000000E+00  0.47895803069E+03  0.47895803069E+03  0.00000000000E+00 0. -1.
         21   -1    0    0  501  503 -0.00000000000E+00 -0.00000000000E+00 -0.15149208868E+03  0.15149208868E+03  0.00000000000E+00 0.  1.
          6    2    1    2  501    0  0.12778426890E+03  0.79072234995E+02  0.33098946677E+03  0.40210291015E+03  0.17190545516E+03 0.  0.
         24    2    3    3    0    0  0.60058836851E+02  0.11291491409E+03  0.18036651759E+03  0.23345705667E+03  0.74921792126E+02 0.  0.
         -6    2    1    2    0  502 -0.12778426890E+03 -0.79072234995E+02 -0.35235247560E+01  0.22834720922E+03  0.17189762944E+03 0.  0.
        -24    2    5    5    0    0 -0.18086960361E+02 -0.71434292498E+02 -0.35389667158E+02  0.11376370824E+03  0.79118622909E+02 0.  0.
          5    1    3    3  501    0  0.67725432045E+02 -0.33842679096E+02  0.15062294918E+03  0.16864585348E+03  0.47000000000E+01 0. -1.
        -11    1    4    4    0    0 -0.69886138387E+01  0.40606008075E+01 -0.40652405752E+01  0.90473964895E+01  0.00000000000E+00 0.  1.
         12    1    4    4    0    0  0.67047450690E+02  0.10885431328E+03  0.18443175816E+03  0.22440966018E+03  0.00000000000E+00 0. -1.
         -5    1    5    5    0  502 -0.10969730854E+03 -0.76379424972E+01  0.31866142401E+02  0.11458350098E+03  0.47000000000E+01 0.  1.
         11    1    6    6    0    0 -0.25449578617E+02  0.83881025356E+01 -0.18226801571E+01  0.26858210642E+02  0.00000000000E+00 0. -1.
        -12    1    6    6    0    0  0.73626182555E+01 -0.79822395033E+02 -0.33566987000E+02  0.86905497598E+02  0.00000000000E+00 0.  1.
</event>
<event>
12    1  0.1035051E+000  0.2185321E+03  0.7818608E-02  0.1135150E+00
         21   -1    0    0  501  502  0.00000000000E+00  0.00000000000E+00  0.20727820260E+04  0.20727820260E+04  0.00000000000E+00 0.  1.
         21   -1    0    0  502  503 -0.00000000000E+00 -0.00000000000E+00 -0.26516567478E+02  0.26516567478E+02  0.00000000000E+00 0.  1.
         -6    2    1    2    0  503  0.12401817861E+03 -0.49616388956E+02  0.63616293085E+03  0.67236292221E+03  0.17183227254E+03 0.  0.
        -24    2    3    3    0    0  0.80052134219E+02  0.36197024418E+02  0.29646529580E+03  0.31921489625E+03  0.79296340432E+02 0.  0.
          6    2    1    2  501    0 -0.12401817861E+03  0.49616388956E+02  0.14101025277E+04  0.14269356713E+04  0.17295657471E+03 0.  0.
         24    2    5    5    0    0 -0.12036624852E+03  0.39441241210E+02  0.65868846295E+03  0.67542914642E+03  0.79312012528E+02 0.  0.
          5    1    5    5  501    0 -0.36519300873E+01  0.10175147746E+02  0.75141406476E+03  0.75150652489E+03  0.47000000000E+01 0. -1.
        -11    1    6    6    0    0 -0.17388488691E+02  0.41546775635E+02  0.16019179574E+03  0.16640284110E+03  0.00000000000E+00 0.  1.
         12    1    6    6    0    0 -0.10297775983E+03 -0.21055344247E+01  0.49849666721E+03  0.50902630533E+03  0.00000000000E+00 0. -1.
         -5    1    3    3    0  503  0.43966044391E+02 -0.85813413374E+02  0.33969763505E+03  0.35314802595E+03  0.47000000000E+01 0.  1.
         13    1    4    4    0    0  0.10923452683E+02  0.31607053441E+02  0.33726382308E+02  0.47495226174E+02  0.00000000000E+00 0. -1.
        -14    1    4    4    0    0  0.69128681536E+02  0.45899709773E+01  0.26273891349E+03  0.27171967008E+03  0.00000000000E+00 0.  1.
</event>
<event>
12    1  0.1035051E+000  0.1870358E+03  0.7818608E-02  0.1161316E+00
         21   -1    0    0  503  502  0.00000000000E+00  0.00000000000E+00  0.13406216668E+03  0.13406216668E+03  0.00000000000E+00 0. -1.
         21   -1    0    0  501  503 -0.00000000000E+00 -0.00000000000E+00 -0.30200692353E+03  0.30200692353E+03  0.00000000000E+00 0. -1.
          6    2    1    2  501    0 -0.15639018782E+02 -0.70275416615E+02 -0.27953213637E+01  0.18705665682E+03  0.17262434924E+03 0.  0.
         24    2    3    3    0    0  0.15069862220E+02 -0.60193713405E+02  0.60052541533E+02  0.11622855518E+03  0.77797078435E+02 0.  0.
         -6    2    1    2    0  502  0.15639018782E+02  0.70275416615E+02 -0.16514943549E+03  0.24901243339E+03  0.17190009555E+03 0.  0.
        -24    2    5    5    0    0  0.52677900854E+02  0.89575491058E+02 -0.15919229217E+03  0.20656306101E+03  0.80792217771E+02 0.  0.
          5    1    3    3  501    0 -0.30708881002E+02 -0.10081703211E+02 -0.62847862897E+02  0.70828101646E+02  0.47000000000E+01 0. -1.
        -11    1    4    4    0    0 -0.84147344768E+01 -0.61636817054E+02  0.67262676868E+02  0.91619717705E+02  0.00000000000E+00 0.  1.
         12    1    4    4    0    0  0.23484596697E+02  0.14431036488E+01 -0.72101353346E+01  0.24608837472E+02  0.00000000000E+00 0. -1.
         -5    1    5    5    0  502 -0.37038882073E+02 -0.19300074443E+02 -0.59571433238E+01  0.42449372378E+02  0.47000000000E+01 0.  1.
         13    1    6    6    0    0 -0.13140176748E+02 -0.50453995718E+01 -0.31748005563E+02  0.34728319266E+02  0.00000000000E+00 0. -1.
        -14    1    6    6    0    0  0.65818077602E+02  0.94620890630E+02 -0.12744428660E+03  0.17183474175E+03  0.00000000000E+00 0.  1.
</event>
<event>
12    1  0.1035051E+000  0.2045845E+03  0.7818608E-02  0.1146463E+00
         21   -1    0    0  503  502  0.00000000000E+00  0.00000000000E+00  0.31612111428E+03  0.31612111428E+03  0.00000000000E+00 0.  1.
         21   -1    0    0  501  503 -0.00000000000E+00 -0.00000000000E+00 -0.15180432097E+03  0.15180432097E+03  0.00000000000E+00 0.  1.
          6    2    1    2  501    0  0.10665325478E+03  0.64522377791E+01  0.16978561140E+03  0.26586079819E+03  0.17446564719E+03 0.  0.
         24    2    3    3    0    0  0.77592652909E+02 -0.32294505904E+02  0.36921856446E+02  0.12436628908E+03  0.83905872739E+02 0.  0.
         -6    2    1    2    0  502 -0.10665325478E+03 -0.64522377791E+01 -0.54688180918E+01  0.20206463706E+03  0.17141663120E+03 0.  0.
        -24    2    5    5    0    0 -0.30395726955E+02  0.41664482768E+02 -0.43783158597E+02  0.10398044856E+03  0.78962898656E+02 0.  0.
          5    1    3    3  501    0  0.29060601869E+02  0.38746743683E+02  0.13286375496E+03  0.14149450911E+03  0.47000000000E+01 0. -1.
        -13    1    4    4    0    0  0.42529248320E+02  0.16947188507E+02 -0.11164648840E+02  0.47123174178E+02  0.00000000000E+00 0.  1.
         14    1    4    4    0    0  0.35063404590E+02 -0.49241694411E+02  0.48086505285E+02  0.77243114906E+02  0.00000000000E+00 0. -1.
         -5    1    5    5    0  502 -0.76257527823E+02 -0.48116720547E+02  0.38314340505E+02  0.98084188503E+02  0.47000000000E+01 0.  1.
         11    1    6    6    0    0 -0.86126531830E+01 -0.10769073564E+02  0.16275452578E+02  0.21331692312E+02  0.00000000000E+00 0. -1.
        -12    1    6    6    0    0 -0.21783073772E+02  0.52433556332E+02 -0.60058611175E+02  0.82648756245E+02  0.00000000000E+00 0.  1.
</event>
<event>
12    1  0.1035051E+000  0.1871007E+03  0.7818608E-02  0.1164237E+00
         21   -1    0    0  503  502  0.00000000000E+00  0.00000000000E+00  0.86399042386E+02  0.86399042386E+02  0.00000000000E+00 0.  1.
         21   -1    0    0  501  503 -0.00000000000E+00 -0.00000000000E+00 -0.98645237932E+03  0.98645237932E+03  0.00000000000E+00 0.  1.
          6    2    1    2  501    0  0.21291343390E+02  0.16088316451E+02 -0.87770554058E+03  0.89742614835E+03  0.18518779805E+03 0.  0.
         24    2    3    3    0    0 -0.47384977116E+02  0.17228488602E+02 -0.27503119828E+03  0.29083222334E+03  0.79994157475E+02 0.  0.
         -6    2    1    2    0  502 -0.21291343390E+02 -0.16088316451E+02 -0.22347796350E+02  0.17542527335E+03  0.17193733539E+03 0.  0.
        -24    2    5    5    0    0 -0.67441697406E+02 -0.27364149819E+02  0.13412057391E+02  0.11577750111E+03  0.89035763801E+02 0.  0.
          5    1    3    3  501    0  0.68676320507E+02 -0.11401721511E+01 -0.60267434231E+03  0.60659392501E+03  0.47000000000E+01 0. -1.
        -13    1    4    4    0    0 -0.31832542867E+02 -0.30633465051E+01 -0.25831283873E+03  0.26028487764E+03  0.00000000000E+00 0.  1.
         14    1    4    4    0    0 -0.15552434249E+02  0.20291835107E+02 -0.16718359550E+02  0.30547345697E+02  0.00000000000E+00 0. -1.
         -5    1    5    5    0  502  0.46150354016E+02  0.11275833368E+02 -0.35759853741E+02  0.59647772243E+02  0.47000000000E+01 0.  1.
         13    1    6    6    0    0 -0.21315720824E+02 -0.55530031313E+02 -0.22028825328E+01  0.59521399709E+02  0.00000000000E+00 0. -1.
        -14    1    6    6    0    0 -0.46125976582E+02  0.28165881495E+02  0.15614939924E+02  0.56256101401E+02  0.00000000000E+00 0.  1.
</event>
<event>
12    1  0.1035051E+000  0.2073188E+03  0.7818608E-02  0.1144052E+00
         21   -1    0    0  501  502  0.00000000000E+00  0.00000000000E+00  0.90307136700E+03  0.90307136700E+03  0.00000000000E+00 0.  1.
         21   -1    0    0  502  503 -0.00000000000E+00 -0.00000000000E+00 -0.47656243036E+02  0.47656243036E+02  0.00000000000E+00 0. -1.
         -6    2    1    2    0  503 -0.97971267612E+02 -0.57727775728E+02  0.37964856056E+03  0.43175275533E+03  0.17130833848E+03 0.  0.
        -24    2    3    3    0    0 -0.10112702309E+03 -0.98364529278E+02  0.32852936276E+03  0.36620455234E+03  0.79195811376E+02 0.  0.
          6    2    1    2  501    0  0.97971267612E+02  0.57727775728E+02  0.47576656340E+03  0.51897485470E+03  0.17334996854E+03 0.  0.
         24    2    5    5    0    0  0.57442462481E+01 -0.18133555585E+02  0.25716042895E+03  0.26983333452E+03  0.79477795624E+02 0.  0.
          5    1    5    5  501    0  0.92227021364E+02  0.75861331313E+02  0.21860613445E+03  0.24914152018E+03  0.47000000000E+01 0. -1.
        -13    1    6    6    0    0  0.35348061784E+02 -0.32860390418E+02  0.16539587135E+03  0.17229360113E+03  0.00000000000E+00 0.  1.
         14    1    6    6    0    0 -0.29603815536E+02  0.14726834832E+02  0.91764557597E+02  0.97539733388E+02  0.00000000000E+00 0. -1.
         -5    1    3    3    0  503  0.31557554813E+01  0.40636753551E+02  0.51119197802E+02  0.65548202994E+02  0.47000000000E+01 0.  1.
         11    1    4    4    0    0 -0.65417400316E+02 -0.10253986103E+02  0.12095150517E+03  0.13789070707E+03  0.00000000000E+00 0. -1.
        -12    1    4    4    0    0 -0.35709622777E+02 -0.88110543176E+02  0.20757785759E+03  0.22831384526E+03  0.00000000000E+00 0.  1.
</event>
<event>
12    1  0.1035051E+000  0.2049593E+03  0.7818608E-02  0.1146527E+00
         21   -1    0    0  503  502  0.00000000000E+00  0.00000000000E+00  0.32793840568E+03  0.32793840568E+03  0.00000000000E+00 0. -1.
         21   -1    0    0  501  503 -0.00000000000E+00 -0.00000000000E+00 -0.13698245562E+03  0.13698245562E+03  0.00000000000E+00 0. -1.
          6    2    1    2  501    0 -0.11169601066E+03  0.33234585114E+01  0.16220229220E+03  0.25795447800E+03  0.16656495716E+03 0.  0.
         24    2    3    3    0    0  0.74801914478E+01  0.50687117909E+01  0.64851093728E+02  0.10398903090E+03  0.80786193663E+02 0.  0.
         -6    2    1    2    0  502  0.11169601066E+03 -0.33234585114E+01  0.28753657861E+02  0.20696638329E+03  0.17181753927E+03 0.  0.
        -24    2    5    5    0    0  0.92039793264E+02  0.33901231601E+02  0.72799872043E+02  0.14585825437E+03  0.79713185556E+02 0.  0.
          5    1    3    3  501    0 -0.11917620211E+03 -0.17452532795E+01  0.97351198473E+02  0.15396544710E+03  0.47000000000E+01 0. -1.
        -13    1    4    4    0    0  0.29366915618E+02  0.12724535884E+02  0.72761777367E+02  0.79489658397E+02  0.00000000000E+00 0.  1.
         14    1    4    4    0    0 -0.21886724170E+02 -0.76558240936E+01 -0.79106836389E+01  0.24499372504E+02  0.00000000000E+00 0. -1.
         -5    1    5    5    0  502  0.19656217394E+02 -0.37224690112E+02 -0.44046214182E+02  0.61108128919E+02  0.47000000000E+01 0.  1.
         11    1    6    6    0    0  0.88002257715E+02  0.71914302869E+01  0.26382800384E+02  0.92152949973E+02  0.00000000000E+00 0. -1.
        -12    1    6    6    0    0  0.40375355491E+01  0.26709801314E+02  0.46417071658E+02  0.53705304402E+02  0.00000000000E+00 0.  1.
</event>
<event>
12    1  0.1035051E+000  0.5053490E+03  0.7818608E-02  0.1012445E+00
         21   -1    0    0  501  502  0.00000000000E+00  0.00000000000E+00  0.10107770358E+04  0.10107770358E+04  0.00000000000E+00 0.  1.
         21   -1    0    0  502  503 -0.00000000000E+00 -0.00000000000E+00 -0.27326480984E+03  0.27326480984E+03  0.00000000000E+00 0.  1.
         -6    2    1    2    0  503  0.46649408427E+03 -0.86892218107E+02  0.54708940184E+03  0.74477138229E+03  0.17381199627E+03 0.  0.
        -24    2    3    3    0    0  0.36816153318E+03 -0.43669171990E+02  0.33893479419E+03  0.51048960108E+03  0.90955632074E+02 0.  0.
          6    2    1    2  501    0 -0.46649408427E+03  0.86892218107E+02  0.19042282415E+03  0.53927046339E+03  0.17141993027E+03 0.  0.
         24    2    5    5    0    0 -0.27413209525E+03 -0.16421550534E+02  0.10382922857E+03  0.30432917198E+03  0.80110319215E+02 0.  0.
          5    1    5    5  501    0 -0.19236198902E+03  0.10331376864E+03  0.86593595576E+02  0.23494129140E+03  0.47000000000E+01 0. -1.
        -11    1    6    6    0    0 -0.59846417312E+02 -0.32056781388E+02  0.57139912651E+01  0.68131348102E+02  0.00000000000E+00 0.  1.
         12    1    6    6    0    0 -0.21428567794E+03  0.15635230854E+02  0.98115237309E+02  0.23619782388E+03  0.00000000000E+00 0. -1.
         -5    1    3    3    0  503  0.98332551095E+02 -0.43223046117E+02  0.20815460765E+03  0.23428178121E+03  0.47000000000E+01 0.  1.
         13    1    4    4    0    0  0.21239742591E+03  0.95323024505E+00  0.24066882253E+03  0.32099074335E+03  0.00000000000E+00 0. -1.
        -14    1    4    4    0    0  0.15576410726E+03 -0.44622402235E+02  0.98265971660E+02  0.18949885773E+03  0.00000000000E+00 0.  1.
</event>
<event>
12    1  0.1035051E+000  0.1888238E+03  0.7818608E-02  0.1160004E+00
         21   -1    0    0  501  502  0.00000000000E+00  0.00000000000E+00  0.30624757129E+02  0.30624757129E+02  0.00000000000E+00 0. -1.
         21   -1    0    0  502  503 -0.00000000000E+00 -0.00000000000E+00 -0.12077176163E+04  0.12077176163E+04  0.00000000000E+00 0. -1.
         -6    2    1    2    0  503 -0.61890925730E+02 -0.49108307030E+02 -0.45796058575E+03  0.49536079185E+03  0.17150015596E+03 0.  0.
        -24    2    3    3    0    0  0.16856411666E+02  0.64026568616E+01 -0.29597273577E+03  0.30682760167E+03  0.78855463965E+02 0.  0.
          6    2    1    2  501    0  0.61890925730E+02  0.49108307030E+02 -0.71913227346E+03  0.74298158162E+03  0.16919896981E+03 0.  0.
         24    2    5    5    0    0 -0.62647008929E+01 -0.16581123397E+02 -0.46040509568E+03  0.46744186899E+03  0.78834438107E+02 0.  0.
          5    1    5    5  501    0  0.68155626623E+02  0.65689430427E+02 -0.25872717778E+03  0.27553971262E+03  0.47000000000E+01 0. -1.
        -11    1    6    6    0    0  0.34320301607E+02  0.42832718618E+01 -0.17121852416E+03  0.17467688037E+03  0.00000000000E+00 0.  1.
         12    1    6    6    0    0 -0.40585002500E+02 -0.20864395259E+02 -0.28918657152E+03  0.29276498863E+03  0.00000000000E+00 0. -1.
         -5    1    3    3    0  503 -0.78747337396E+02 -0.55510963892E+02 -0.16198784998E+03  0.18853319018E+03  0.47000000000E+01 0.  1.
         11    1    4    4    0    0 -0.26010248286E+02 -0.16430143530E+02 -0.14526769352E+03  0.14848968117E+03  0.00000000000E+00 0. -1.
        -12    1    4    4    0    0  0.42866659952E+02  0.22832800391E+02 -0.15070504225E+03  0.15833792050E+03  0.00000000000E+00 0.  1.
</event>
<event>
12    1  0.1035051E+000  0.1915536E+03  0.7818608E-02  0.1157402E+00
         21   -1    0    0  503  502  0.00000000000E+00  0.00000000000E+00  0.27037551481E+03  0.27037551481E+03  0.00000000000E+00 0.  1.
         21   -1    0    0  501  503 -0.00000000000E+00 -0.00000000000E+00 -0.13529192595E+03  0.13529192595E+03  0.00000000000E+00 0.  1.
          6    2    1    2  501    0 -0.73354887844E+02 -0.34238805879E+02  0.53349750451E+02  0.19740507781E+03  0.17195735946E+03 0.  0.
         24    2    3    3    0    0 -0.56380689763E+02  0.16393954202E+02 -0.25553351792E+02  0.10201331015E+03  0.79411571875E+02 0.  0.
         -6    2    1    2    0  502  0.73354887844E+02  0.34238805879E+02  0.81733838409E+02  0.20826236294E+03  0.17360747702E+03 0.  0.
        -24    2    5    5    0    0  0.11706303588E+03  0.38030219108E+02  0.51754292826E+02  0.15491782083E+03  0.78555537370E+02 0.  0.
          5    1    3    3  501    0 -0.16974198081E+02 -0.50632760081E+02  0.78903102243E+02  0.95391767661E+02  0.47000000000E+01 0. -1.
        -11    1    4    4    0    0  0.19430654075E+02  0.58632114970E+01  0.25970395792E+01  0.20461480430E+02  0.00000000000E+00 0.  1.
         12    1    4    4    0    0 -0.75811343838E+02  0.10530742705E+02 -0.28150391371E+02  0.81551829721E+02  0.00000000000E+00 0. -1.
         -5    1    5    5    0  502 -0.43708148036E+02 -0.37914132285E+01  0.29979545583E+02  0.53344542105E+02  0.47000000000E+01 0.  1.
         11    1    6    6    0    0  0.33536865604E+02  0.50877883175E+02  0.14956306693E+02  0.62745290347E+02  0.00000000000E+00 0. -1.
        -12    1    6    6    0    0  0.83526170277E+02 -0.12847664067E+02  0.36797986133E+02  0.92172530488E+02  0.00000000000E+00 0.  1.
</event>
<event>
12    1  0.1035051E+000  0.2744544E+03  0.7818608E-02  0.1098880E+00
         21   -1    0    0  503  502  0.00000000000E+00  0.00000000000E+00  0.28347812459E+03  0.28347812459E+03  0.00000000000E+00 0. -1.
         21   -1    0    0  501  503 -0.00000000000E+00 -0.00000000000E+00 -0.28602965700E+03  0.28602965700E+03  0.00000000000E+00 0. -1.
          6    2    1    2  501    0 -0.20102730038E+03  0.72943686763E+02  0.76166242089E+02  0.28482716213E+03  0.17202458810E+03 0.  0.
         24    2    3    3    0    0 -0.16751955461E+03  0.44318099770E+02 -0.51464101169E+01  0.19222030133E+03  0.83037723733E+02 0.  0.
         -6    2    1    2    0  502  0.20102730038E+03 -0.72943686763E+02 -0.78717774496E+02  0.28468061946E+03  0.17062769452E+03 0.  0.
        -24    2    5    5    0    0  0.16570789380E+03 -0.60150607974E+02 -0.12047053491E+03  0.22832011602E+03  0.80868559347E+02 0.  0.
          5    1    3    3  501    0 -0.33507745777E+02  0.28625586993E+02  0.81312652206E+02  0.92606860796E+02  0.47000000000E+01 0. -1.
        -13    1    4    4    0    0 -0.89759097925E+02  0.79612933041E+01  0.35989714660E+02  0.97032661577E+02  0.00000000000E+00 0.  1.
         14    1    4    4    0    0 -0.77760456683E+02  0.36356806466E+02 -0.41136124777E+02  0.95187639752E+02  0.00000000000E+00 0. -1.
         -5    1    5    5    0  502  0.35319406585E+02 -0.12793078789E+02  0.41752760411E+02  0.56360503443E+02  0.47000000000E+01 0.  1.
         13    1    6    6    0    0  0.11326479738E+02 -0.35352588922E+02 -0.17043413383E+02  0.40848165521E+02  0.00000000000E+00 0. -1.
        -14    1    6    6    0    0  0.15438141406E+03 -0.24798019053E+02 -0.10342712152E+03  0.18747195050E+03  0.00000000000E+00 0.  1.
</event>
<event>
12    1  0.1035051E+000  0.1992730E+03  0.7818608E-02  0.1151930E+00
         21   -1    0    0  501  502  0.00000000000E+00  0.00000000000E+00  0.87471694984E+03  0.87471694984E+03  0.00000000000E+00 0. -1.
         21   -1    0    0  502  503 -0.00000000000E+00 -0.00000000000E+00 -0.47832279215E+02  0.47832279215E+02  0.00000000000E+00 0. -1.
         -6    2    1    2    0  503 -0.66124445109E+02 -0.54785021031E+02  0.55520776960E+03  0.58988592510E+03  0.17982184639E+03 0.  0.
        -24    2    3    3    0    0 -0.11048312077E+03 -0.35500885763E+02  0.35427232075E+03  0.38315732383E+03  0.88508896106E+02 0.  0.
          6    2    1    2  501    0  0.66124445109E+02  0.54785021031E+02  0.27167690102E+03  0.33266330395E+03  0.17170525465E+03 0.  0.
         24    2    5    5    0    0 -0.11684165061E+02  0.31783725141E+02  0.58926176700E+02  0.10491739262E+03  0.79928968942E+02 0.  0.
          5    1    5    5  501    0  0.77808610171E+02  0.23001295890E+02  0.21275072432E+03  0.22774591133E+03  0.47000000000E+01 0. -1.
        -11    1    6    6    0    0  0.11304636741E+02  0.53404072729E+02  0.43448723823E+02  0.69768054278E+02  0.00000000000E+00 0.  1.
         12    1    6    6    0    0 -0.22988801803E+02 -0.21620347588E+02  0.15477452877E+02  0.35149338339E+02  0.00000000000E+00 0. -1.
         -5    1    3    3    0  503  0.44358675660E+02 -0.19284135267E+02  0.20093544885E+03  0.20672860127E+03  0.47000000000E+01 0.  1.
         13    1    4    4    0    0 -0.99485606628E+01 -0.43219983532E+02  0.90862175304E+02  0.10110823773E+03  0.00000000000E+00 0. -1.
        -14    1    4    4    0    0 -0.10053456011E+03  0.77190977687E+01  0.26341014545E+03  0.28204908610E+03  0.00000000000E+00 0.  1.
</event>
<event>
12    1  0.1035051E+000  0.1773559E+03  0.7818608E-02  0.1170824E+00
         21   -1    0    0  501  502  0.00000000000E+00  0.00000000000E+00  0.92006057528E+02  0.92006057528E+02  0.00000000000E+00 0. -1.
         21   -1    0    0  502  503 -0.00000000000E+00 -0.00000000000E+00 -0.34059863196E+03  0.34059863196E+03  0.00000000000E+00 0. -1.
         -6    2    1    2    0  503 -0.36618818050E+02  0.24423789451E+02 -0.10665936295E+03  0.20544804174E+03  0.16998593713E+03 0.  0.
        -24    2    3    3    0    0  0.28395340499E+01  0.54532150880E+02 -0.11825361364E+03  0.15426218795E+03  0.82650390568E+02 0.  0.
          6    2    1    2  501    0  0.36618818050E+02 -0.24423789451E+02 -0.14193321148E+03  0.22715664775E+03  0.17180700442E+03 0.  0.
         24    2    5    5    0    0 -0.16636593491E+02 -0.60448323144E+02 -0.42197264140E+02  0.10839952132E+03  0.77711460590E+02 0.  0.
          5    1    5    5  501    0  0.53255411541E+02  0.36024533693E+02 -0.99735947342E+02  0.11875712643E+03  0.47000000000E+01 0. -1.
        -11    1    6    6    0    0 -0.41778932475E+02 -0.96424693367E+01 -0.22243830390E+02  0.48303668640E+02  0.00000000000E+00 0.  1.
         12    1    6    6    0    0  0.25142338984E+02 -0.50805853807E+02 -0.19953433751E+02  0.60095852678E+02  0.00000000000E+00 0. -1.
         -5    1    3    3    0  503 -0.39458352100E+02 -0.30108361429E+02  0.11594250689E+02  0.51185853782E+02  0.47000000000E+01 0.  1.
         11    1    4    4    0    0  0.94041676693E+01 -0.16686265928E+02 -0.56880362271E+02  0.60018709186E+02  0.00000000000E+00 0. -1.
        -12    1    4    4    0    0 -0.65646336194E+01  0.71218416808E+02 -0.61373251366E+02  0.94243478769E+02  0.00000000000E+00 0.  1.
</event>
<event>
12    1  0.1035051E+000  0.2888649E+03  0.7818608E-02  0.1091005E+00
         21   -1    0    0  501  502  0.00000000000E+00  0.00000000000E+00  0.88376831619E+02  0.88376831619E+02  0.00000000000E+00 0.  1.
         21   -1    0    0  502  503 -0.00000000000E+00 -0.00000000000E+00 -0.11056239987E+04  0.11056239987E+04  0.00000000000E+00 0.  1.
         -6    2    1    2    0  503  0.12902193866E+02 -0.23160642984E+03 -0.73749412235E+03  0.79187560267E+03  0.17135164033E+03 0.  0.
        -24    2    3    3    0    0  0.55335337433E+02 -0.10797008780E+03 -0.50017382641E+03  0.52089676657E+03  0.80249893266E+02 0.  0.
          6    2    1    2  501    0 -0.12902193866E+02  0.23160642984E+03 -0.27975304469E+03  0.40212522761E+03  0.17214798203E+03 0.  0.
         24    2    5    5    0    0  0.68738501054E-01  0.13089773423E+03 -0.24534536796E+03  0.29481043518E+03  0.97901080459E+02 0.  0.
          5    1    5    5  501    0 -0.12970932367E+02  0.10070869561E+03 -0.34407676722E+02  0.10731479243E+03  0.47000000000E+01 0. -1.
        -11    1    6    6    0    0 -0.23172079885E+02  0.13330542566E+03 -0.23003109835E+03  0.26687373045E+03  0.00000000000E+00 0.  1.
         12    1    6    6    0    0  0.23240818386E+02 -0.24076914233E+01 -0.15314269616E+02  0.27936704729E+02  0.00000000000E+00 0. -1.
         -5    1    3    3    0  503 -0.42433143567E+02 -0.12363634204E+03 -0.23732029595E+03  0.27097883610E+03  0.47000000000E+01 0.  1.
         13    1    4    4    0    0  0.82766274202E+01 -0.80149120425E+02 -0.38586882374E+03  0.39419174675E+03  0.00000000000E+00 0. -1.
        -14    1    4    4    0    0  0.47058710013E+02 -0.27820967380E+02 -0.11430500267E+03  0.12670501982E+03  0.00000000000E+00 0.  1.
</event>
<event>
12    1  0.1035051E+000  0.3508997E+03  0.7818608E-02  0.1062356E+00
         21   -1    0    0  501  502  0.00000000000E+00  0.00000000000E+00  0.32020433101E+03  0.32020433101E+03  0.00000000000E+00 0.  1.
         21   -1    0    0  502  503 -0.00000000000E+00 -0.00000000000E+00 -0.46208034763E+03  0.46208034763E+03  0.00000000000E+00 0.  1.
         -6    2    1    2    0  503  0.17985245491E+03  0.24583710283E+03  0.90589194469E+02  0.36136822283E+03  0.17204012221E+03 0.  0.
        -24    2    3    3    0    0  0.15615589469E+03  0.14376682105E+03  0.48353721789E+01  0.22588509684E+03  0.77117662499E+02 0.  0.
          6    2    1    2  501    0 -0.17985245491E+03 -0.24583710283E+03 -0.23246521109E+03  0.42091645581E+03  0.17420620465E+03 0.  0.
         24    2    5    5    0    0 -0.24715885677E+02 -0.71354412606E+02 -0.11476182161E+03  0.15940595469E+03  0.80855769659E+02 0.  0.
          5    1    5    5  501    0 -0.15513656924E+03 -0.17448269022E+03 -0.11770338948E+03  0.26151050112E+03  0.47000000000E+01 0. -1.
        -13    1    6    6    0    0 -0.43854410065E+02 -0.33395455682E+02 -0.10039668159E+03  0.11453366063E+03  0.00000000000E+00 0.  1.
         14    1    6    6    0    0  0.19138524388E+02 -0.37958956924E+02 -0.14365140024E+02  0.44872294062E+02  0.00000000000E+00 0. -1.
         -5    1    3    3    0  503  0.23696560218E+02  0.10207028178E+03  0.85753822291E+02  0.13548312598E+03  0.47000000000E+01 0.  1.
         13    1    4    4    0    0  0.15992204701E+03  0.14953596447E+03  0.47809012133E+01  0.21899525750E+03  0.00000000000E+00 0. -1.
        -14    1    4    4    0    0 -0.37661523140E+01 -0.57691434247E+01  0.54470965624E-01  0.68898393445E+01  0.00000000000E+00 0.  1.
</event>
<event>
12    1  0.1035051E+000  0.3618655E+03  0.7818608E-02  0.1057913E+00
         21   -1    0    0  503  502  0.00000000000E+00  0.00000000000E+00  0.38198864482E+03  0.38198864482E+03  0.00000000000E+00 0.  1.
         21   -1    0    0  501  503 -0.00000000000E+00 -0.00000000000E+00 -0.35889842986E+03  0.35889842986E+03  0.00000000000E+00 0. -1.
          6    2    1    2  501    0 -0.25506895186E+03 -0.18931625787E+03 -0.68420648353E+02  0.36827714301E+03  0.17333739713E+03 0.  0.
         24    2    3    3    0    0 -0.24181144299E+03 -0.19305377374E+03 -0.23341160904E+02  0.32090646901E+03  0.81814537490E+02 0.  0.
         -6    2    1    2    0  502  0.25506895186E+03  0.18931625787E+03  0.91510863312E+02  0.37260993167E+03  0.17193925490E+03 0.  0.
        -24    2    5    5    0    0  0.79232524088E+02  0.99412000067E+02  0.88004484897E+02  0.17503561757E+03  0.82049615627E+02 0.  0.
          5    1    3    3  501    0 -0.13257508869E+02  0.37375158695E+01 -0.45079487449E+02  0.47370673997E+02  0.47000000000E+01 0. -1.
        -13    1    4    4    0    0 -0.15481405380E+03 -0.88473185638E+02  0.16723735348E+02  0.17909377196E+03  0.00000000000E+00 0.  1.
         14    1    4    4    0    0 -0.86997389198E+02 -0.10458058810E+03 -0.40064896252E+02  0.14181269706E+03  0.00000000000E+00 0. -1.
         -5    1    5    5    0  502  0.17583642777E+03  0.89904257804E+02  0.35063784158E+01  0.19757431410E+03  0.47000000000E+01 0.  1.
         13    1    6    6    0    0  0.24675169691E+02 -0.57202801935E+01 -0.32186742147E+01  0.25533222838E+02  0.00000000000E+00 0. -1.
        -14    1    6    6    0    0  0.54557354397E+02  0.10513228026E+03  0.91223159111E+02  0.14950239473E+03  0.00000000000E+00 0.  1.
</event>
<event>
12    1  0.1035051E+000  0.2267079E+03  0.7818608E-02  0.1129224E+00
         21   -1    0    0  501  502  0.00000000000E+00  0.00000000000E+00  0.39102020413E+03  0.39102020413E+03  0.00000000000E+00 0. -1.
         21   -1    0    0  502  503 -0.00000000000E+00 -0.00000000000E+00 -0.30402929628E+03  0.30402929628E+03  0.00000000000E+00 0.  1.
         -6    2    1    2    0  503  0.83302691249E+02  0.11871424084E+03 -0.21888496636E+03  0.31513028983E+03  0.17425286719E+03 0.  0.
        -24    2    3    3    0    0  0.82214285532E+02  0.81020969752E+02 -0.23504799418E+03  0.27383500220E+03  0.80090340082E+02 0.  0.
          6    2    1    2  501    0 -0.83302691249E+02 -0.11871424084E+03  0.30587587421E+03  0.37991921057E+03  0.17247071285E+03 0.  0.
         24    2    5    5    0    0 -0.58879327559E+02 -0.14967069969E+03  0.21014987620E+03  0.27628350373E+03  0.79382053420E+02 0.  0.
          5    1    5    5  501    0 -0.24423363690E+02  0.30956458850E+02  0.95725998008E+02  0.10363570684E+03  0.47000000000E+01 0. -1.
        -13    1    6    6    0    0 -0.56540009982E+02 -0.12471744395E+03  0.21061464623E+03  0.25121652565E+03  0.00000000000E+00 0.  1.
         14    1    6    6    0    0 -0.23393175768E+01 -0.24953255739E+02 -0.46477002755E+00  0.25066978076E+02  0.00000000000E+00 0. -1.
         -5    1    3    3    0  503  0.10884057169E+01  0.37693271092E+02  0.16163027821E+02  0.41295287636E+02  0.47000000000E+01 0.  1.
         13    1    4    4    0    0 -0.10517710518E+02  0.35739513919E+02 -0.59489587054E+02  0.70192207955E+02  0.00000000000E+00 0. -1.
        -14    1    4    4    0    0  0.92731996050E+02  0.45281455833E+02 -0.17555840713E+03  0.20364279424E+03  0.00000000000E+00 0.  1.
</event>
<event>
12    1  0.1035051E+000  0.1760057E+03  0.7818608E-02  0.1172230E+00
         21   -1    0    0  501  502  0.00000000000E+00  0.00000000000E+00  0.16457539440E+03  0.16457539440E+03  0.00000000000E+00 0.  1.
         21   -1    0    0  502  503 -0.00000000000E+00 -0.00000000000E+00 -0.64467597278E+03  0.64467597278E+03  0.00000000000E+00 0.  1.
         -6    2    1    2    0  503 -0.53773483964E+01  0.21658435645E+02  0.10161480802E+03  0.20149252966E+03  0.17255627079E+03 0.  0.
        -24    2    3    3    0    0  0.15235365124E+02  0.56578683278E+02  0.12083705518E+03  0.15637166487E+03  0.80107677034E+02 0.  0.
          6    2    1    2  501    0  0.53773483964E+01 -0.21658435645E+02 -0.58171538640E+03  0.60775883752E+03  0.17458525164E+03 0.  0.
         24    2    5    5    0    0 -0.39905668846E+02 -0.17822411670E+02 -0.16629893117E+03  0.18983756741E+03  0.80454128095E+02 0.  0.
          5    1    5    5  501    0  0.45283017243E+02 -0.38360239747E+01 -0.41541645523E+03  0.41792127011E+03  0.47000000000E+01 0. -1.
        -13    1    6    6    0    0  0.93277331048E+01  0.23642694841E+02 -0.65287928131E+02  0.70060667880E+02  0.00000000000E+00 0.  1.
         14    1    6    6    0    0 -0.49233401951E+02 -0.41465106511E+02 -0.10101100304E+03  0.11977689953E+03  0.00000000000E+00 0. -1.
         -5    1    3    3    0  503 -0.20612713520E+02 -0.34920247633E+02 -0.19222247154E+02  0.45120864786E+02  0.47000000000E+01 0.  1.
         13    1    4    4    0    0 -0.10683673704E+02  0.69399552845E+02  0.88967118508E+02  0.11333837388E+03  0.00000000000E+00 0. -1.
        -14    1    4    4    0    0  0.25919038827E+02 -0.12820869567E+02  0.31869936668E+02  0.43033290990E+02  0.00000000000E+00 0.  1.
</event>
<event>
12    1  0.1035051E+000  0.2764731E+03  0.7818608E-02  0.1097653E+00
         21   -1    0    0  503  502  0.00000000000E+00  0.00000000000E+00  0.10371214243E+04  0.10371214243E+04  0.00000000000E+00 0.  1.
         21   -1    0    0  501  503 -0.00000000000E+00 -0.00000000000E+00 -0.76626388934E+02  0.76626388934E+02  0.00000000000E+00 0.  1.
          6    2    1    2  501    0  0.21550072559E+03 -0.20461097139E+02  0.58996006143E+03  0.65152918015E+03  0.17198307848E+03 0.  0.
         24    2    3    3    0    0  0.45898495539E+02 -0.55337390164E+02  0.29233532096E+03  0.30716912383E+03  0.61024848291E+02 0.  0.
         -6    2    1    2    0  502 -0.21550072559E+03  0.20461097139E+02  0.37053497392E+03  0.46221863306E+03  0.17172850266E+03 0.  0.
        -24    2    5    5    0    0 -0.13288547421E+03 -0.18574697200E+02  0.32133269695E+03  0.35833395152E+03  0.84527806353E+02 0.  0.
          5    1    3    3  501    0  0.16960223005E+03  0.34876293026E+02  0.29762474047E+03  0.34436005633E+03  0.47000000000E+01 0. -1.
        -11    1    4    4    0    0 -0.56316963388E+01  0.19709336807E+01  0.96948761071E+02  0.97132192688E+02  0.00000000000E+00 0.  1.
         12    1    4    4    0    0  0.51530191878E+02 -0.57308323845E+02  0.19538655989E+03  0.21003693114E+03  0.00000000000E+00 0. -1.
         -5    1    5    5    0  502 -0.82615251383E+02  0.39035794339E+02  0.49202276963E+02  0.10388468154E+03  0.47000000000E+01 0.  1.
         11    1    6    6    0    0 -0.14556952493E+02 -0.23085385988E+02  0.17962787188E+02  0.32672643537E+02  0.00000000000E+00 0. -1.
        -12    1    6    6    0    0 -0.11832852172E+03  0.45106887878E+01  0.30336990977E+03  0.32566130798E+03  0.00000000000E+00 0.  1.
</event>
<event>
12    1  0.1035051E+000  0.1921742E+03  0.7818608E-02  0.1156984E+00
         21   -1    0    0  503  502  0.00000000000E+00  0.00000000000E+00  0.20116427080E+03  0.20116427080E+03  0.00000000000E+00 0.  1.
         21   -1    0    0  501  503 -0.00000000000E+00 -0.00000000000E+00 -0.20973907594E+03  0.20973907594E+03  0.00000000000E+00 0.  1.
          6    2    1    2  501    0 -0.84182168852E+02  0.19936148754E+01  0.71002586900E+02  0.20290458497E+03  0.17040625341E+03 0.  0.
         24    2    3    3    0    0 -0.92952024184E+02  0.48856092234E+02  0.20678509096E+02  0.13342361669E+03  0.79669719488E+02 0.  0.
         -6    2    1    2    0  502  0.84182168852E+02 -0.19936148754E+01 -0.79577392034E+02  0.20799876177E+03  0.17274348474E+03 0.  0.
        -24    2    5    5    0    0  0.90821462028E+02  0.33239451368E+02 -0.52989909101E+01  0.12538629271E+03  0.79625649146E+02 0.  0.
          5    1    3    3  501    0  0.87698553314E+01 -0.46862477359E+02  0.50324077804E+02  0.69480968283E+02  0.47000000000E+01 0. -1.
        -11    1    4    4    0    0 -0.79965404262E+02  0.19414418756E+02  0.44347361298E+02  0.93477665720E+02  0.00000000000E+00 0.  1.
         12    1    4    4    0    0 -0.12986619922E+02  0.29441673479E+02 -0.23668852201E+02  0.39945950968E+02  0.00000000000E+00 0. -1.
         -5    1    5    5    0  502 -0.66392931752E+01 -0.35233066243E+02 -0.74278401124E+02  0.82612469060E+02  0.47000000000E+01 0.  1.
         13    1    6    6    0    0  0.41312084738E+02 -0.10796503284E+02  0.28168753049E+02  0.51153997663E+02  0.00000000000E+00 0. -1.
        -14    1    6    6    0    0  0.49509377289E+02  0.44035954652E+02 -0.33467743959E+02  0.74232295043E+02  0.00000000000E+00 0.  1.
</event>
<event>
12    1  0.1035051E+000  0.4343033E+03  0.7818608E-02  0.1032529E+00
         21   -1    0    0  503  502  0.00000000000E+00  0.00000000000E+00  0.65515542811E+03  0.65515542811E+03  0.00000000000E+00 0. -1.
         21   -1    0    0  501  503 -0.00000000000E+00 -0.00000000000E+00 -0.28882122052E+03  0.28882122052E+03  0.00000000000E+00 0.  1.
          6    2    1    2  501    0  0.26309519317E+01 -0.39875320574E+03  0.21222411532E+03  0.48338229082E+03  0.17207069177E+03 0.  0.
         24    2    3    3    0    0 -0.64850310144E+02 -0.27301295340E+03  0.15293794182E+03  0.32878192809E+03  0.77239282368E+02 0.  0.
         -6    2    1    2    0  502 -0.26309519317E+01  0.39875320574E+03  0.15411009228E+03  0.46059435780E+03  0.17142403830E+03 0.  0.
        -24    2    5    5    0    0  0.58360880364E+02  0.20304404036E+03  0.59188416448E+02  0.23464238158E+03  0.83191970210E+02 0.  0.
          5    1    3    3  501    0  0.67481262076E+02 -0.12574025234E+03  0.59286173502E+02  0.15460036274E+03  0.47000000000E+01 0. -1.
        -11    1    4    4    0    0 -0.39450072159E+02 -0.20309065307E+03  0.14771043014E+03  0.25420561113E+03  0.00000000000E+00 0.  1.
         12    1    4    4    0    0 -0.25400237985E+02 -0.69922300324E+02  0.52275116794E+01  0.74576316956E+02  0.00000000000E+00 0. -1.
         -5    1    5    5    0  502 -0.60991832296E+02  0.19570916538E+03  0.94921675828E+02  0.22595197623E+03  0.47000000000E+01 0.  1.
         11    1    6    6    0    0  0.57731890935E+01  0.68385680345E+02 -0.17741113901E+02  0.70884963927E+02  0.00000000000E+00 0. -1.
        -12    1    6    6    0    0  0.52587691270E+02  0.13465836001E+03  0.76929530349E+02  0.16375741765E+03  0.00000000000E+00 0.  1.
</event>
<event>
12    1  0.1035051E+000  0.1870352E+03  0.7818608E-02  0.1161628E+00
         21   -1    0    0  501  502  0.00000000000E+00  0.00000000000E+00  0.53330321611E+03  0.53330321611E+03  0.00000000000E+00 0. -1.
         21   -1    0    0  502  503 -0.00000000000E+00 -0.00000000000E+00 -0.13938640262E+03  0.13938640262E+03  0.00000000000E+00 0. -1.
         -6    2    1    2    0  503  0.50390370700E+02  0.46862228096E+02  0.44234873011E+03  0.47948550782E+03  0.17175184218E+03 0.  0.
        -24    2    3    3    0    0  0.43907727070E+02  0.67648881891E+02  0.15760752829E+03  0.19387431816E+03  0.79011762094E+02 0.  0.
          6    2    1    2  501    0 -0.50390370700E+02 -0.46862228096E+02 -0.48431916619E+02  0.19320411092E+03  0.17391641684E+03 0.  0.
         24    2    5    5    0    0 -0.79795100985E+02 -0.67139501257E+02 -0.72859724106E+02  0.14967694987E+03  0.78864942505E+02 0.  0.
          5    1    5    5  501    0  0.29404730284E+02  0.20277273161E+02  0.24427807488E+02  0.43527161045E+02  0.47000000000E+01 0. -1.
        -11    1    6    6    0    0 -0.64602215460E+02 -0.50268692039E+02 -0.95398708813E+01  0.82409931308E+02  0.00000000000E+00 0.  1.
         12    1    6    6    0    0 -0.15192885524E+02 -0.16870809218E+02 -0.63319853225E+02  0.67267018565E+02  0.00000000000E+00 0. -1.
         -5    1    3    3    0  503  0.64826436309E+01 -0.20786653795E+02  0.28474120182E+03  0.28561118966E+03  0.47000000000E+01 0.  1.
         11    1    4    4    0    0  0.27192811413E+02  0.16379377938E+01  0.10313698490E+03  0.10667412754E+03  0.00000000000E+00 0. -1.
        -12    1    4    4    0    0  0.16714915657E+02  0.66010944097E+02  0.54470543394E+02  0.87200190617E+02  0.00000000000E+00 0.  1.
</event>
<event>
12    1  0.1035051E+000  0.2353419E+03  0.7818608E-02  0.1123081E+00
         21   -1    0    0  503  502  0.00000000000E+00  0.00000000000E+00  0.11415215837E+04  0.11415215837E+04  0.00000000000E+00 0. -1.
         21   -1    0    0  501  503 -0.00000000000E+00 -0.00000000000E+00 -0.59290155927E+02  0.59290155927E+02  0.00000000000E+00 0. -1.
          6    2    1    2  501    0 -0.10922492326E+03 -0.11754853448E+03  0.79989025024E+03  0.83379267273E+03  0.17215709931E+03 0.  0.
         24    2    3    3    0    0 -0.51767063924E+02 -0.13455582018E+03  0.45605928983E+03  0.48474758581E+03  0.78772129922E+02 0.  0.
         -6    2    1    2    0  502  0.10922492326E+03  0.11754853448E+03  0.28234117750E+03  0.36701906687E+03  0.17099331307E+03 0.  0.
        -24    2    5    5    0    0  0.11411131387E+03  0.34736743440E+02  0.22646134610E+03  0.26688757779E+03  0.75605585800E+02 0.  0.
          5    1    3    3  501    0 -0.57457859338E+02  0.17007285704E+02  0.34383096041E+03  0.34904508692E+03  0.47000000000E+01 0. -1.
        -13    1    4    4    0    0 -0.30815992259E+02 -0.11354039085E+02  0.16097875192E+03  0.16429454694E+03  0.00000000000E+00 0.  1.
         14    1    4    4    0    0 -0.20951071665E+02 -0.12320178109E+03  0.29508053791E+03  0.32045303887E+03  0.00000000000E+00 0. -1.
         -5    1    5    5    0  502 -0.48863906109E+01  0.82811791035E+02  0.55879831406E+02  0.10013148908E+03  0.47000000000E+01 0.  1.
         13    1    6    6    0    0  0.96678991138E+02  0.56447968234E+02  0.16477519737E+03  0.19920859949E+03  0.00000000000E+00 0. -1.
        -14    1    6    6    0    0  0.17432322735E+02 -0.21711224794E+02  0.61686148732E+02  0.67678978297E+02  0.00000000000E+00 0.  1.
</event>
<event>
12    1  0.1035051E+000  0.2977333E+03  0.7818608E-02  0.1086503E+00
         21   -1    0    0  501  502  0.00000000000E+00  0.00000000000E+00  0.77424885442E+03  0.77424885442E+03  0.00000000000E+00 0. -1.
         21   -1    0    0  502  503 -0.00000000000E+00 -0.00000000000E+00 -0.20066427651E+03  0.20066427651E+03  0.00000000000E+00 0. -1.
         -6    2    1    2    0  503  0.24063943945E+03  0.28332523763E+02  0.60665775673E+03  0.67534855998E+03  0.17132417209E+03 0.  0.
        -24    2    3    3    0    0  0.71921966541E+02 -0.38794895041E+02  0.22973840014E+03  0.25694448807E+03  0.81011877503E+02 0.  0.
          6    2    1    2  501    0 -0.24063943945E+03 -0.28332523763E+02 -0.33073178822E+02  0.29956457095E+03  0.17301741325E+03 0.  0.
         24    2    5    5    0    0 -0.23973366919E+03  0.78786091403E+01 -0.36567554617E+01  0.25266592993E+03  0.79324622042E+02 0.  0.
          5    1    5    5  501    0 -0.90577025888E+00 -0.36211132903E+02 -0.29416423361E+02  0.46898641017E+02  0.47000000000E+01 0. -1.
        -13    1    6    6    0    0 -0.92253647659E+01  0.19482994771E+02  0.30311342809E+01  0.21768835875E+02  0.00000000000E+00 0.  1.
         14    1    6    6    0    0 -0.23050830442E+03 -0.11604385631E+02 -0.66878897426E+01  0.23089709405E+03  0.00000000000E+00 0. -1.
         -5    1    3    3    0  503  0.16871747291E+03  0.67127418804E+02  0.37691935659E+03  0.41840407191E+03  0.47000000000E+01 0.  1.
         11    1    4    4    0    0  0.78437626803E+02 -0.54018084304E+02  0.21337265629E+03  0.23366280231E+03  0.00000000000E+00 0. -1.
        -12    1    4    4    0    0 -0.65156602613E+01  0.15223189262E+02  0.16365743846E+02  0.23281685755E+02  0.00000000000E+00 0.  1.
</event>
<event>
12    1  0.1035051E+000  0.2022592E+03  0.7818608E-02  0.1148152E+00
         21   -1    0    0  503  502  0.00000000000E+00  0.00000000000E+00  0.79947559341E+02  0.79947559341E+02  0.00000000000E+00 0. -1.
         21   -1    0    0  501  503 -0.00000000000E+00 -0.00000000000E+00 -0.52998082991E+03  0.52998082991E+03  0.00000000000E+00 0. -1.
          6    2    1    2  501    0 -0.10385988381E+03  0.41532203781E+01 -0.28634365190E+03  0.34973027198E+03  0.17179770502E+03 0.  0.
         24    2    3    3    0    0 -0.69373681634E+02  0.58557547021E+02 -0.11648700952E+03  0.16800933796E+03  0.80101312351E+02 0.  0.
         -6    2    1    2    0  502  0.10385988381E+03 -0.41532203781E+01 -0.16368961867E+03  0.26019811727E+03  0.17350689976E+03 0.  0.
        -24    2    5    5    0    0  0.10259060971E+03  0.56136206311E+02 -0.10850029699E+03  0.17831785558E+03  0.79679585285E+02 0.  0.
          5    1    3    3  501    0 -0.34486202179E+02 -0.54404326643E+02 -0.16985664238E+03  0.18172093402E+03  0.47000000000E+01 0. -1.
        -13    1    4    4    0    0 -0.56934832169E+02  0.10186909207E+02 -0.99803687529E+02  0.11535217500E+03  0.00000000000E+00 0.  1.
         14    1    4    4    0    0 -0.12438849464E+02  0.48370637814E+02 -0.16683321986E+02  0.52657162960E+02  0.00000000000E+00 0. -1.
         -5    1    5    5    0  502  0.12692741023E+01 -0.60289426690E+02 -0.55189321679E+02  0.81880261692E+02  0.47000000000E+01 0.  1.
         13    1    6    6    0    0  0.60332181858E+02  0.50936789283E+01 -0.12751592112E+02  0.61875042094E+02  0.00000000000E+00 0. -1.
        -14    1    6    6    0    0  0.42258427852E+02  0.51042527383E+02 -0.95748704876E+02  0.11644281348E+03  0.00000000000E+00 0.  1.
</event>
<event>
12    1  0.1035051E+000  0.1902904E+03  0.7818608E-02  0.1159512E+00
         21   -1    0    0  501  502  0.00000000000E+00  0.00000000000E+00  0.19524244538E+03  0.19524244538E+03  0.00000000000E+00 0. -1.
         21   -1    0    0  502  503 -0.00000000000E+00 -0.00000000000E+00 -0.18236703126E+03  0.18236703126E+03  0.00000000000E+00 0. -1.
         -6    2    1    2    0  503  0.40493858052E+01 -0.69490638989E+02 -0.15364385116E+02  0.19090963205E+03  0.17710188268E+03 0.  0.
        -24    2    3    3    0    0  0.46359947161E+02  0.20558148072E+02  0.17414454858E+02  0.86050154640E+02  0.67301439233E+02 0.  0.
          6    2    1    2  501    0 -0.40493858052E+01  0.69490638989E+02  0.28239799232E+02  0.18669984458E+03  0.17092103228E+03 0.  0.
         24    2    5    5    0    0 -0.31120642613E+02  0.10359674286E+03  0.40771382956E+02  0.14114537327E+03  0.80987228624E+02 0.  0.
          5    1    5    5  501    0  0.27071256808E+02 -0.34106103867E+02 -0.12531583724E+02  0.45554471314E+02  0.47000000000E+01 0. -1.
        -13    1    6    6    0    0 -0.83065328068E+00  0.10388832034E+03  0.24422353489E+02  0.10672358895E+03  0.00000000000E+00 0.  1.
         14    1    6    6    0    0 -0.30289989332E+02 -0.29157748726E+00  0.16349029467E+02  0.34421784319E+02  0.00000000000E+00 0. -1.
         -5    1    3    3    0  503 -0.42310561356E+02 -0.90048787060E+02 -0.32778839974E+02  0.10485947741E+03  0.47000000000E+01 0.  1.
         13    1    4    4    0    0  0.44703613787E+02 -0.75106745358E+01 -0.10391063712E+02  0.46505886968E+02  0.00000000000E+00 0. -1.
        -14    1    4    4    0    0  0.16563333736E+01  0.28068822608E+02  0.27805518570E+02  0.39544267672E+02  0.00000000000E+00 0.  1.
</event>
<event>
12    1  0.1035051E+000  0.2873572E+03  0.7818608E-02  0.1091741E+00
         21   -1    0    0  501  502  0.00000000000E+00  0.00000000000E+00  0.48038127494E+02  0.48038127494E+02  0.00000000000E+00 0. -1.
         21   -1    0    0  502  503 -0.00000000000E+00 -0.00000000000E+00 -0.17581760619E+04  0.17581760619E+04  0.00000000000E+00 0. -1.
         -6    2    1    2    0  503  0.15984029094E+03  0.16582064408E+03 -0.71979862496E+03  0.77502743558E+03  0.17179074712E+03 0.  0.
        -24    2    3    3    0    0  0.88723411382E+02  0.10793912576E+03 -0.25798549446E+03  0.30417571983E+03  0.80272377470E+02 0.  0.
          6    2    1    2  501    0 -0.15984029094E+03 -0.16582064408E+03 -0.99033930944E+03  0.10311867538E+04  0.17183936919E+03 0.  0.
         24    2    5    5    0    0 -0.94488478055E+02 -0.84006656102E+02 -0.33126389828E+03  0.36382862231E+03  0.81549404401E+02 0.  0.
          5    1    5    5  501    0 -0.65351812883E+02 -0.81813987973E+02 -0.65907541117E+03  0.66735813150E+03  0.47000000000E+01 0. -1.
        -13    1    6    6    0    0 -0.90385476160E+02 -0.34152892324E+02 -0.25429556753E+03  0.27203343548E+03  0.00000000000E+00 0.  1.
         14    1    6    6    0    0 -0.41030018943E+01 -0.49853763779E+02 -0.76968330749E+02  0.91795186833E+02  0.00000000000E+00 0. -1.
         -5    1    3    3    0  503  0.71116879555E+02  0.57881518315E+02 -0.46181313051E+03  0.47085171575E+03  0.47000000000E+01 0.  1.
         11    1    4    4    0    0  0.19179004552E+02  0.53908165377E+02 -0.42157400960E+02  0.71071590426E+02  0.00000000000E+00 0. -1.
        -12    1    4    4    0    0  0.69544406830E+02  0.54030960383E+02 -0.21582809350E+03  0.23310412940E+03  0.00000000000E+00 0.  1.
</event>
<event>
12    1  0.1035051E+000  0.1860102E+03  0.7818608E-02  0.1163035E+00
         21   -1    0    0  501  502  0.00000000000E+00  0.00000000000E+00  0.76906276714E+02  0.76906276714E+02  0.00000000000E+00 0.  1.
         21   -1    0    0  502  503 -0.00000000000E+00 -0.00000000000E+00 -0.47603295241E+03  0.47603295241E+03  0.00000000000E+00 0.  1.
         -6    2    1    2    0  503  0.43204630822E+02 -0.48718859528E+02 -0.12195668828E+03  0.21913839520E+03  0.17002363081E+03 0.  0.
        -24    2    3    3    0    0  0.47143821291E+01 -0.20392961837E+02  0.65796335283E+01  0.81924941961E+02  0.78932288999E+02 0.  0.
          6    2    1    2  501    0 -0.43204630822E+02  0.48718859528E+02 -0.27716998742E+03  0.33380083393E+03  0.17424014293E+03 0.  0.
         24    2    5    5    0    0 -0.20952291805E+02 -0.14820044495E+02 -0.52407786739E+02  0.99125535336E+02  0.80129042139E+02 0.  0.
          5    1    5    5  501    0 -0.22252339017E+02  0.63538904023E+02 -0.22476220068E+03  0.23467529860E+03  0.47000000000E+01 0. -1.
        -13    1    6    6    0    0  0.29739834351E+02  0.30070370715E+00 -0.10168978818E+02  0.31431772145E+02  0.00000000000E+00 0.  1.
         14    1    6    6    0    0 -0.50692126157E+02 -0.15120748202E+02 -0.42238807921E+02  0.67693763192E+02  0.00000000000E+00 0. -1.
         -5    1    3    3    0  503  0.38490248693E+02 -0.28325897691E+02 -0.12853632181E+03  0.13721345324E+03  0.47000000000E+01 0.  1.
         11    1    4    4    0    0  0.22883105599E+02 -0.35529210410E+02 -0.19653067561E+02  0.46606913423E+02  0.00000000000E+00 0. -1.
        -12    1    4    4    0    0 -0.18168723470E+02  0.15136248573E+02  0.26232701089E+02  0.35318028539E+02  0.00000000000E+00 0.  1.
</event>
<event>
12    1  0.1035051E+000  0.2068123E+03  0.7818608E-02  0.1144150E+00
         21   -1    0    0  503  502  0.00000000000E+00  0.00000000000E+00  0.63830783720E+03  0.63830783720E+03  0.00000000000E+00 0.  1.
         21   -1    0    0  501  503 -0.00000000000E+00 -0.00000000000E+00 -0.78537970062E+02  0.78537970062E+02  0.00000000000E+00 0.  1.
          6    2    1    2  501    0  0.56983876195E+02 -0.99585220424E+02  0.41744986952E+03  0.46579539902E+03  0.17186210146E+03 0.  0.
         24    2    3    3    0    0  0.22072602169E+02 -0.96108073453E+02  0.15459815435E+03  0.20057096242E+03  0.81265983590E+02 0.  0.
         -6    2    1    2    0  502 -0.56983876195E+02  0.99585220424E+02  0.14231999762E+03  0.25105040824E+03  0.17206669486E+03 0.  0.
        -24    2    5    5    0    0  0.18109151915E+02  0.80413237641E+02  0.38342182403E+02  0.12128136782E+03  0.80279617941E+02 0.  0.
          5    1    3    3  501    0  0.34911274026E+02 -0.34771469713E+01  0.26285171517E+03  0.26522443661E+03  0.47000000000E+01 0. -1.
        -13    1    4    4    0    0  0.17740397541E+02 -0.11611683627E+02 -0.32763730797E+01  0.21454312437E+02  0.00000000000E+00 0.  1.
         14    1    4    4    0    0  0.43322046277E+01 -0.84496389826E+02  0.15787452743E+03  0.17911664998E+03  0.00000000000E+00 0. -1.
         -5    1    5    5    0  502 -0.75093028110E+02  0.19171982783E+02  0.10397781522E+03  0.12976904042E+03  0.47000000000E+01 0.  1.
         11    1    6    6    0    0 -0.12293768623E+02  0.65657676880E+02 -0.42228703044E+01  0.66932054457E+02  0.00000000000E+00 0. -1.
        -12    1    6    6    0    0  0.30402920538E+02  0.14755560762E+02  0.42565052707E+02  0.54349313359E+02  0.00000000000E+00 0.  1.
</event>
<event>
12    1  0.1035051E+000  0.1962334E+03  0.7818608E-02  0.1153396E+00
         21   -1    0    0  501  502  0.00000000000E+00  0.00000000000E+00  0.57205528209E+03  0.57205528209E+03  0.00000000000E+00 0. -1.
         21   -1    0    0  502  503 -0.00000000000E+00 -0.00000000000E+00 -0.97122525613E+02  0.97122525613E+02  0.00000000000E+00 0. -1.
         -6    2    1    2    0  503 -0.86642052550E+01  0.90850106943E+02  0.42581038061E+03  0.46885182096E+03  0.17372029069E+03 0.  0.
        -24    2    3    3    0    0  0.25730344510E+02  0.10189073201E+03  0.19873444272E+03  0.23887257836E+03  0.80752449339E+02 0.  0.
          6    2    1    2  501    0  0.86642052550E+01 -0.90850106943E+02  0.49122375863E+02  0.20032598674E+03  0.17143127710E+03 0.  0.
         24    2    5    5    0    0  0.60688319341E+02 -0.94521430193E+02  0.17159960303E+02  0.13897720461E+03  0.80017662378E+02 0.  0.
          5    1    5    5  501    0 -0.52024114086E+02  0.36713232491E+01  0.31962415560E+02  0.61348782133E+02  0.47000000000E+01 0. -1.
        -11    1    6    6    0    0  0.27503042578E+02 -0.19905120420E+02 -0.29454437470E+02  0.44946580033E+02  0.00000000000E+00 0.  1.
         12    1    6    6    0    0  0.33185276763E+02 -0.74616309773E+02  0.46614397773E+02  0.94030624573E+02  0.00000000000E+00 0. -1.
         -5    1    3    3    0  503 -0.34394549765E+02 -0.11040625063E+02  0.22707593789E+03  0.22997924260E+03  0.47000000000E+01 0.  1.
         13    1    4    4    0    0 -0.18547093773E+02  0.94343234262E+01  0.79198308346E+01  0.22264879662E+02  0.00000000000E+00 0. -1.
        -14    1    4    4    0    0  0.44277438283E+02  0.92456408581E+02  0.19081461188E+03  0.21660769870E+03  0.00000000000E+00 0.  1.
</event>
<event>
12    1  0.1035051E+000  0.2084079E+03  0.7818608E-02  0.1142853E+00
         21   -1    0    0  503  502  0.00000000000E+00  0.00000000000E+00  0.51340243980E+03  0.51340243980E+03  0.00000000000E+00 0. -1.
         21   -1    0    0  501  503 -0.00000000000E+00 -0.00000000000E+00 -0.10037123028E+03  0.10037123028E+03  0.00000000000E+00 0. -1.
          6    2    1    2  501    0  0.11283405107E+03  0.33936695365E+02  0.84670763544E+02  0.22485923171E+03  0.17178275091E+03 0.  0.
         24    2    3    3    0    0  0.52548647169E+02  0.73558589237E+02  0.87701595864E+02  0.15250247430E+03  0.85983768121E+02 0.  0.
         -6    2    1    2    0  502 -0.11283405107E+03 -0.33936695365E+02  0.32836044598E+03  0.38891443837E+03  0.17190298285E+03 0.  0.
        -24    2    5    5    0    0 -0.17396888771E+02 -0.12471033796E+02  0.25028078318E+03  0.26366448700E+03  0.80126854753E+02 0.  0.
          5    1    3    3  501    0  0.60285403906E+02 -0.39621893873E+02 -0.30308323200E+01  0.72356757408E+02  0.47000000000E+01 0. -1.
        -13    1    4    4    0    0  0.40278079064E+02  0.69119474592E+02  0.18538014845E+02  0.82118715378E+02  0.00000000000E+00 0.  1.
         14    1    4    4    0    0  0.12270568105E+02  0.44391146457E+01  0.69163581019E+02  0.70383758921E+02  0.00000000000E+00 0. -1.
         -5    1    5    5    0  502 -0.95437162304E+02 -0.21465661569E+02  0.78079662798E+02  0.12524995137E+03  0.47000000000E+01 0.  1.
         13    1    6    6    0    0 -0.27946723314E+02  0.28102526694E+02  0.97794356169E+02  0.10552017555E+03  0.00000000000E+00 0. -1.
        -14    1    6    6    0    0  0.10549834543E+02 -0.40573560490E+02  0.15248642701E+03  0.15814431145E+03  0.00000000000E+00 0.  1.
</event>
<event>
12    1  0.1035051E+000  0.2010090E+03  0.7818608E-02  0.1148943E+00
         21   -1    0    0  501  502  0.00000000000E+00  0.00000000000E+00  0.14914553512E+03  0.14914553512E+03  0.00000000000E+00 0.  1.
         21   -1    0    0  502  503 -0.00000000000E+00 -0.00000000000E+00 -0.27114295191E+03  0.27114295191E+03  0.00000000000E+00 0. -1.
         -6    2    1    2    0  503 -0.92927567352E+02  0.42000999018E+02 -0.70717850052E+02  0.21308597339E+03  0.17321951693E+03 0.  0.
        -24    2    3    3    0    0 -0.11039388332E+03  0.80125859852E+02 -0.64700596641E+02  0.17046116200E+03  0.79144662835E+02 0.  0.
          6    2    1    2  501    0  0.92927567352E+02 -0.42000999018E+02 -0.51279566739E+02  0.20720251364E+03  0.17292677931E+03 0.  0.
         24    2    5    5    0    0  0.26887180715E+02  0.33189187374E+02  0.84569943530E+01  0.90560139147E+02  0.79405134617E+02 0.  0.
          5    1    5    5  501    0  0.66040386637E+02 -0.75190186392E+02 -0.59736561092E+02  0.11664237450E+03  0.47000000000E+01 0. -1.
        -13    1    6    6    0    0  0.44540241164E+02  0.21286901358E+02  0.31990632055E+02  0.58824873919E+02  0.00000000000E+00 0.  1.
         14    1    6    6    0    0 -0.17653060448E+02  0.11902286015E+02 -0.23533637702E+02  0.31735265228E+02  0.00000000000E+00 0. -1.
         -5    1    3    3    0  503  0.17466315964E+02 -0.38124860834E+02 -0.60172534111E+01  0.42624811385E+02  0.47000000000E+01 0.  1.
         11    1    4    4    0    0 -0.78471692074E+02  0.64698907510E+02 -0.82343534585E+02  0.13085951543E+03  0.00000000000E+00 0. -1.
        -12    1    4    4    0    0 -0.31922191243E+02  0.15426952342E+02  0.17642937944E+02  0.39601646577E+02  0.00000000000E+00 0.  1.
</event>
<event>
12    1  0.1035051E+000  0.2271716E+03  0.7818608E-02  0.1128928E+00
         21   -1    0    0  503  502  0.00000000000E+00  0.00000000000E+00  0.31670677293E+03  0.31670677293E+03  0.00000000000E+00 0. -1.
         21   -1    0    0  501  503 -0.00000000000E+00 -0.00000000000E+00 -0.23655740508E+03  0.23655740508E+03  0.00000000000E+00 0. -1.
          6    2    1    2  501    0  0.14725191502E+03  0.18263946472E+02  0.19546479649E+03  0.29850035712E+03  0.16993904295E+03 0.  0.
         24    2    3    3    0    0  0.42033700002E+02  0.50932878803E+02  0.46613644155E+02  0.11325217910E+03  0.79323604118E+02 0.  0.
         -6    2    1    2    0  502 -0.14725191502E+03 -0.18263946472E+02 -0.11531542863E+03  0.25476382088E+03  0.17201819128E+03 0.  0.
        -24    2    5    5    0    0 -0.52005427395E+02  0.15111017806E+02 -0.11983899583E+03  0.15362859307E+03  0.79419470842E+02 0.  0.
          5    1    3    3  501    0  0.10521821501E+03 -0.32668932331E+02  0.14885115233E+03  0.18524817803E+03  0.47000000000E+01 0. -1.
        -13    1    4    4    0    0  0.50520079618E+02  0.87605522159E+00  0.12393677552E+02  0.52025466462E+02  0.00000000000E+00 0.  1.
         14    1    4    4    0    0 -0.84863796161E+01  0.50056823581E+02  0.34219966603E+02  0.61226712637E+02  0.00000000000E+00 0. -1.
         -5    1    5    5    0  502 -0.95246487621E+02 -0.33374964277E+02  0.45235671968E+01  0.10113522781E+03  0.47000000000E+01 0.  1.
         11    1    6    6    0    0 -0.12803582467E+02 -0.25927535312E+02 -0.77803434779E+02  0.83003272675E+02  0.00000000000E+00 0. -1.
        -12    1    6    6    0    0 -0.39201844928E+02  0.41038553117E+02 -0.42035561052E+02  0.70625320394E+02  0.00000000000E+00 0.  1.
</event>
<event>
12    1  0.1035051E+000  0.1770927E+03  0.7818608E-02  0.1171134E+00
         21   -1    0    0  501  502  0.00000000000E+00  0.00000000000E+00  0.12003267068E+03  0.12003267068E+03  0.00000000000E+00 0. -1.
         21   -1    0    0  502  503 -0.00000000000E+00 -0.00000000000E+00 -0.29903441325E+03  0.29903441325E+03  0.00000000000E+00 0. -1.
         -6    2    1    2    0  503  0.33649738422E+02  0.18257741676E+02 -0.16717275459E+03  0.24353350059E+03  0.17290513585E+03 0.  0.
        -24    2    3    3    0    0  0.89124330580E+02  0.81203243552E+01 -0.11612859898E+03  0.16732462035E+03  0.80638645236E+02 0.  0.
          6    2    1    2  501    0 -0.33649738422E+02 -0.18257741676E+02 -0.11828987978E+02  0.17553358334E+03  0.17089898740E+03 0.  0.
         24    2    5    5    0    0 -0.41916529407E+02 -0.54988310025E+02  0.38507964725E+02  0.11249888423E+03  0.79952648037E+02 0.  0.
          5    1    5    5  501    0  0.82667909850E+01  0.36730568349E+02 -0.50336952702E+02  0.63034699109E+02  0.47000000000E+01 0. -1.
        -11    1    6    6    0    0 -0.59335421462E+02 -0.35195694836E+02  0.40452250965E+01  0.69107112667E+02  0.00000000000E+00 0.  1.
         12    1    6    6    0    0  0.17418892055E+02 -0.19792615189E+02  0.34462739628E+02  0.43391771560E+02  0.00000000000E+00 0. -1.
         -5    1    3    3    0  503 -0.55474592158E+02  0.10137417320E+02 -0.51044155613E+02  0.76208880239E+02  0.47000000000E+01 0.  1.
         11    1    4    4    0    0  0.83234524588E+02 -0.45294385595E+01 -0.44779814310E+02  0.94624170626E+02  0.00000000000E+00 0. -1.
        -12    1    4    4    0    0  0.58898059919E+01  0.12649762915E+02 -0.71348784666E+02  0.72700449721E+02  0.00000000000E+00 0.  1.
</event>
<event>
12    1  0.1035051E+000  0.2429890E+03  0.7818608E-02  0.1118001E+00
         21   -1    0    0  501  502  0.00000000000E+00  0.00000000000E+00  0.15295718240E+04  0.15295718240E+04  0.00000000000E+00 0. -1.
         21   -1    0    0  502  503 -0.00000000000E+00 -0.00000000000E+00 -0.66439870791E+02  0.66439870791E+02  0.00000000000E+00 0. -1.
         -6    2    1    2    0  503  0.13623535423E+03  0.10153761727E+03  0.12487825960E+04  0.12719911962E+04  0.17214433402E+03 0.  0.
        -24    2    3    3    0    0  0.70287437090E+02  0.71841750628E+01  0.85772835120E+03  0.86431827315E+03  0.79725884522E+02 0.  0.
          6    2    1    2  501    0 -0.13623535423E+03 -0.10153761727E+03  0.21434935717E+03  0.32402049853E+03  0.17370571978E+03 0.  0.
         24    2    5    5    0    0 -0.26116288580E+02 -0.92799880222E+02  0.77303841179E+02  0.14793495079E+03  0.81332573462E+02 0.  0.
          5    1    5    5  501    0 -0.11011906565E+03 -0.87377370503E+01  0.13704551599E+03  0.17608554774E+03  0.47000000000E+01 0. -1.
        -13    1    6    6    0    0 -0.51015139171E+02 -0.34990820727E+02  0.27630226506E+02  0.67751984300E+02  0.00000000000E+00 0.  1.
         14    1    6    6    0    0  0.24898850591E+02 -0.57809059495E+02  0.49673614674E+02  0.80182966491E+02  0.00000000000E+00 0. -1.
         -5    1    3    3    0  503  0.65947917144E+02  0.94353442209E+02  0.39105424479E+03  0.40767292307E+03  0.47000000000E+01 0.  1.
         11    1    4    4    0    0  0.33824457528E+02  0.31922192509E+02  0.66467909785E+03  0.66630430242E+03  0.00000000000E+00 0. -1.
        -12    1    4    4    0    0  0.36462979563E+02 -0.24738017446E+02  0.19304925335E+03  0.19801397073E+03  0.00000000000E+00 0.  1.
</event>
<event>
12    1  0.1035051E+000  0.2236694E+03  0.7818608E-02  0.1131290E+00
         21   -1    0    0  503  502  0.00000000000E+00  0.00000000000E+00  0.67404935690E+03  0.67404935690E+03  0.00000000000E+00 0. -1.
         21   -1    0    0  501  503 -0.00000000000E+00 -0.00000000000E+00 -0.76456356564E+02  0.76456356564E+02  0.00000000000E+00 0. -1.
          6    2    1    2  501    0 -0.83343087863E+02 -0.11462462493E+03  0.36627334622E+03  0.42916683814E+03  0.17304085031E+03 0.  0.
         24    2    3    3    0    0 -0.12346611089E+03 -0.11072040867E+03  0.29790951718E+03  0.34966336022E+03  0.77533835307E+02 0.  0.
         -6    2    1    2    0  502  0.83343087863E+02  0.11462462493E+03  0.23131965411E+03  0.32133887532E+03  0.17223534909E+03 0.  0.
        -24    2    5    5    0    0 -0.56718411182E+00  0.83841576666E+02  0.19008448408E+03  0.22279467685E+03  0.80471269841E+02 0.  0.
          5    1    3    3  501    0  0.40123023025E+02 -0.39042162562E+01  0.68363829038E+02  0.79503477924E+02  0.47000000000E+01 0. -1.
        -11    1    4    4    0    0 -0.50096559366E+02 -0.28031677262E+02  0.17585899196E+03  0.18499141938E+03  0.00000000000E+00 0.  1.
         12    1    4    4    0    0 -0.73369551522E+02 -0.82688731412E+02  0.12205052522E+03  0.16467194084E+03  0.00000000000E+00 0. -1.
         -5    1    5    5    0  502  0.83910271975E+02  0.30783048264E+02  0.41235170030E+02  0.98544198463E+02  0.47000000000E+01 0.  1.
         11    1    6    6    0    0  0.19527961146E+02  0.19250613956E+02  0.12824403397E+03  0.13114289784E+03  0.00000000000E+00 0. -1.
        -12    1    6    6    0    0 -0.20095145258E+02  0.64590962710E+02  0.61840450112E+02  0.91651779016E+02  0.00000000000E+00 0.  1.
</event>
<event>
12    1  0.1035051E+000  0.2260881E+03  0.7818608E-02  0.1129465E+00
         21   -1    0    0  501  502  0.00000000000E+00  0.00000000000E+00  0.12747124724E+04  0.12747124724E+04  0.00000000000E+00 0.  1.
         21   -1    0    0  502  503 -0.00000000000E+00 -0.00000000000E+00 -0.41276422402E+02  0.41276422402E+02  0.00000000000E+00 0.  1.
         -6    2    1    2    0  503  0.12023224009E+03  0.82094049427E+02  0.50402392786E+03  0.55240923481E+03  0.17297577386E+03 0.  0.
        -24    2    3    3    0    0  0.13777531962E+03  0.10028544959E+03  0.34811697799E+03  0.39439735647E+03  0.72970092000E+02 0.  0.
          6    2    1    2  501    0 -0.12023224009E+03 -0.82094049427E+02  0.72941212214E+03  0.76357965999E+03  0.17267492211E+03 0.  0.
         24    2    5    5    0    0 -0.45646840753E+02 -0.27889936613E+02  0.15738699748E+03  0.18415244206E+03  0.79246276290E+02 0.  0.
          5    1    5    5  501    0 -0.74585399333E+02 -0.54204112814E+02  0.57202512466E+03  0.57942721794E+03  0.47000000000E+01 0. -1.
        -13    1    6    6    0    0 -0.21578500369E+02  0.21673260108E+02  0.10010520315E+03  0.10467288846E+03  0.00000000000E+00 0.  1.
         14    1    6    6    0    0 -0.24068340384E+02 -0.49563196721E+02  0.57281794330E+02  0.79479553596E+02  0.00000000000E+00 0. -1.
         -5    1    3    3    0  503 -0.17543079538E+02 -0.18191400166E+02  0.15590694987E+03  0.15801187834E+03  0.47000000000E+01 0.  1.
         13    1    4    4    0    0  0.33559976317E+02  0.56783340049E+02  0.81480868420E+02  0.10483201627E+03  0.00000000000E+00 0. -1.
        -14    1    4    4    0    0  0.10421534331E+03  0.43502109544E+02  0.26663610957E+03  0.28956534019E+03  0.00000000000E+00 0.  1.
</event>
<event>
12    1  0.1035051E+000  0.2682768E+03  0.7818608E-02  0.1102744E+00
         21   -1    0    0  503  502  0.00000000000E+00  0.00000000000E+00  0.10339452697E+03  0.10339452697E+03  0.00000000000E+00 0.  1.
         21   -1    0    0  501  503 -0.00000000000E+00 -0.00000000000E+00 -0.70704518978E+03  0.70704518978E+03  0.00000000000E+00 0. -1.
          6    2    1    2  501    0  0.20465154343E+03  0.12491332453E+02 -0.23290845006E+03  0.35281296074E+03  0.16790578174E+03 0.  0.
         24    2    3    3    0    0  0.72121376489E+02 -0.18842512990E+02 -0.16659563300E+03  0.20126912310E+03  0.84844691858E+02 0.  0.
         -6    2    1    2    0  502 -0.20465154343E+03 -0.12491332453E+02 -0.37074221275E+03  0.45762675601E+03  0.17301494700E+03 0.  0.
        -24    2    5    5    0    0 -0.42023752492E+02 -0.10501301330E+02 -0.21126942992E+03  0.22979915216E+03  0.79351151311E+02 0.  0.
          5    1    3    3  501    0  0.13253016695E+03  0.31333845443E+02 -0.66312817059E+02  0.15154383764E+03  0.47000000000E+01 0. -1.
        -13    1    4    4    0    0  0.74553552321E+02  0.13138594084E+02 -0.86261226343E+02  0.11476869777E+03  0.00000000000E+00 0.  1.
         14    1    4    4    0    0 -0.24321758327E+01 -0.31981107074E+02 -0.80334406656E+02  0.86500425327E+02  0.00000000000E+00 0. -1.
         -5    1    5    5    0  502 -0.16262779094E+03 -0.19900311229E+01 -0.15947278283E+03  0.22782760385E+03  0.47000000000E+01 0.  1.
         13    1    6    6    0    0 -0.61825625583E+02 -0.23199506431E+02 -0.16867875364E+03  0.18114399523E+03  0.00000000000E+00 0. -1.
        -14    1    6    6    0    0  0.19801873091E+02  0.12698205101E+02 -0.42590676274E+02  0.48655156933E+02  0.00000000000E+00 0.  1.
</event>
<event>
12    1  0.1035051E+000  0.1967873E+03  0.7818608E-02  0.1154124E+00
         21   -1    0    0  503  502  0.00000000000E+00  0.00000000000E+00  0.81645488704E+02  0.81645488704E+02  0.00000000000E+00 0. -1.
         21   -1    0    0  501  503 -0.00000000000E+00 -0.00000000000E+00 -0.76312576150E+03  0.76312576150E+03  0.00000000000E+00 0. -1.
          6    2    1    2  501    0  0.34950636447E+02  0.65270277944E+02 -0.76954369987E+02  0.21129888613E+03  0.18232796837E+03 0.  0.
         24    2    3    3    0    0  0.34830357714E+02  0.11647213750E+03 -0.59251460010E+02  0.15691940553E+03  0.79586755714E+02 0.  0.
         -6    2    1    2    0  502 -0.34950636447E+02 -0.65270277944E+02 -0.60452590281E+03  0.63347236407E+03  0.17422374323E+03 0.  0.
        -24    2    5    5    0    0  0.26721199367E+01  0.76367016138E+00 -0.48520111682E+03  0.49192220105E+03  0.80991386612E+02 0.  0.
          5    1    3    3  501    0  0.12027873334E+00 -0.51201859558E+02 -0.17702909977E+02  0.54379480604E+02  0.47000000000E+01 0. -1.
        -13    1    4    4    0    0 -0.25416886114E+02  0.41981406236E+02 -0.14468099959E+02  0.51164269620E+02  0.00000000000E+00 0.  1.
         14    1    4    4    0    0  0.60247243828E+02  0.74490731266E+02 -0.44783360051E+02  0.10575513591E+03  0.00000000000E+00 0. -1.
         -5    1    5    5    0  502 -0.37622756384E+02 -0.66033948105E+02 -0.11932478599E+03  0.14155016302E+03  0.47000000000E+01 0.  1.
         13    1    6    6    0    0 -0.27644837496E+02 -0.24051748942E+01 -0.65761782280E+02  0.71376704288E+02  0.00000000000E+00 0. -1.
        -14    1    6    6    0    0  0.30316957433E+02  0.31688450555E+01 -0.41943933454E+03  0.42054549676E+03  0.00000000000E+00 0.  1.
</event>
<event>
12    1  0.1035051E+000  0.2152929E+03  0.7818608E-02  0.1138932E+00
         21   -1    0    0  503  502  0.00000000000E+00  0.00000000000E+00  0.63594456757E+02  0.63594456757E+02  0.00000000000E+00 0.  1.
         21   -1    0    0  501  503 -0.00000000000E+00 -0.00000000000E+00 -0.70387708991E+03  0.70387708991E+03  0.00000000000E+00 0.  1.
          6    2    1    2  501    0  0.72929321086E+02 -0.88929659735E+02 -0.30311133353E+03  0.36742713042E+03  0.17291340435E+03 0.  0.
         24    2    3    3    0    0  0.58978276834E+02 -0.56546293510E+02 -0.75133325556E+02  0.13669053566E+03  0.79770705664E+02 0.  0.
         -6    2    1    2    0  502 -0.72929321086E+02  0.88929659735E+02 -0.33717129962E+03  0.40004441624E+03  0.18199966874E+03 0.  0.
        -24    2    5    5    0    0 -0.65461570319E+02  0.57669236152E+02 -0.84407902447E+02  0.14520249203E+03  0.79675038179E+02 0.  0.
          5    1    3    3  501    0  0.13951044252E+02 -0.32383366225E+02 -0.22797800797E+03  0.23073659476E+03  0.47000000000E+01 0. -1.
        -11    1    4    4    0    0  0.24878476417E+00  0.15431756675E+02  0.24872786638E+01  0.15632900022E+02  0.00000000000E+00 0.  1.
         12    1    4    4    0    0  0.58729492070E+02 -0.71978050185E+02 -0.77620604220E+02  0.12105763564E+03  0.00000000000E+00 0. -1.
         -5    1    5    5    0  502 -0.74677507673E+01  0.31260423583E+02 -0.25276339717E+03  0.25484192421E+03  0.47000000000E+01 0.  1.
         11    1    6    6    0    0 -0.14128855107E+02 -0.18369340528E+02 -0.46493076853E+01  0.23636270434E+02  0.00000000000E+00 0. -1.
        -12    1    6    6    0    0 -0.51332715212E+02  0.76038576680E+02 -0.79758594761E+02  0.12156622159E+03  0.00000000000E+00 0.  1.
</event>
<event>
12    1  0.1035051E+000  0.1844309E+03  0.7818608E-02  0.1164003E+00
         21   -1    0    0  501  502  0.00000000000E+00  0.00000000000E+00  0.25210137813E+03  0.25210137813E+03  0.00000000000E+00 0. -1.
         21   -1    0    0  502  503 -0.00000000000E+00 -0.00000000000E+00 -0.13769768997E+03  0.13769768997E+03  0.00000000000E+00 0. -1.
         -6    2    1    2    0  503  0.16823387726E+02  0.58092197060E+02  0.90995563211E+02  0.20565736759E+03  0.17423269092E+03 0.  0.
        -24    2    3    3    0    0 -0.35267301397E+02  0.89797537040E+02  0.53838142772E+02  0.13409318402E+03  0.75993790386E+02 0.  0.
          6    2    1    2  501    0 -0.16823387726E+02 -0.58092197060E+02  0.23408124955E+02  0.18414170051E+03  0.17234412035E+03 0.  0.
         24    2    5    5    0    0  0.38363706750E+02 -0.82324965144E+02  0.10666596689E+02  0.12235756833E+03  0.81292215876E+02 0.  0.
          5    1    5    5  501    0 -0.55187094476E+02  0.24232768084E+02  0.12741528266E+02  0.61784132172E+02  0.47000000000E+01 0. -1.
        -13    1    6    6    0    0  0.43020675875E+02 -0.42126846808E+02 -0.27985180101E+02  0.66397440312E+02  0.00000000000E+00 0.  1.
         14    1    6    6    0    0 -0.46569691252E+01 -0.40198118336E+02  0.38651776790E+02  0.55960128022E+02  0.00000000000E+00 0. -1.
         -5    1    3    3    0  503  0.52090689123E+02 -0.31705339980E+02  0.37157420439E+02  0.71564183571E+02  0.47000000000E+01 0.  1.
         11    1    4    4    0    0 -0.24667956211E+02  0.59619375659E+02  0.72507170223E+02  0.97058063814E+02  0.00000000000E+00 0. -1.
        -12    1    4    4    0    0 -0.10599345186E+02  0.30178161381E+02 -0.18669027451E+02  0.37035120206E+02  0.00000000000E+00 0.  1.
</event>
<event>
12    1  0.1035051E+000  0.3006595E+03  0.7818608E-02  0.1084952E+00
         21   -1    0    0  503  502  0.00000000000E+00  0.00000000000E+00  0.17092603890E+03  0.17092603890E+03  0.00000000000E+00 0.  1.
         21   -1    0    0  501  503 -0.00000000000E+00 -0.00000000000E+00 -0.58687721748E+03  0.58687721748E+03  0.00000000000E+00 0.  1.
          6    2    1    2  501    0  0.10747254840E+03 -0.22114238986E+03 -0.88359627023E+02  0.31337448970E+03  0.17303711121E+03 0.  0.
         24    2    3    3    0    0  0.12299268728E+03 -0.11958982604E+03 -0.20281735017E+02  0.19004368532E+03  0.79223266399E+02 0.  0.
         -6    2    1    2    0  502 -0.10747254840E+03  0.22114238986E+03 -0.32759155156E+03  0.44442876667E+03  0.17247144325E+03 0.  0.
        -24    2    5    5    0    0  0.21578323847E+01  0.73374229349E+02 -0.74586205444E+02  0.13155811478E+03  0.79724536675E+02 0.  0.
          5    1    3    3  501    0 -0.15520138879E+02 -0.10155256382E+03 -0.68077892007E+02  0.12333080438E+03  0.47000000000E+01 0. -1.
        -13    1    4    4    0    0  0.87101226466E+02 -0.32181596179E+02 -0.22438561798E+02  0.95528884847E+02  0.00000000000E+00 0.  1.
         14    1    4    4    0    0  0.35891460809E+02 -0.87408229862E+02  0.21568267818E+01  0.94514800473E+02  0.00000000000E+00 0. -1.
         -5    1    5    5    0  502 -0.10963038078E+03  0.14776816052E+03 -0.25300534611E+03  0.31287065189E+03  0.47000000000E+01 0.  1.
         11    1    6    6    0    0  0.36666529489E+00  0.67557690753E+02 -0.11926254956E+02  0.68603291325E+02  0.00000000000E+00 0. -1.
        -12    1    6    6    0    0  0.17911670898E+01  0.58165385962E+01 -0.62659950488E+02  0.62954823452E+02  0.00000000000E+00 0.  1.
</event>
<event>
12    1  0.1035051E+000  0.2144479E+03  0.7818608E-02  0.1138346E+00
         21   -1    0    0  501  502  0.00000000000E+00  0.00000000000E+00  0.42972435343E+03  0.42972435343E+03  0.00000000000E+00 0. -1.
         21   -1    0    0  502  503 -0.00000000000E+00 -0.00000000000E+00 -0.10686637797E+03  0.10686637797E+03  0.00000000000E+00 0. -1.
         -6    2    1    2    0  503 -0.58830824865E+02 -0.11105836358E+03  0.17938601676E+03  0.27857502507E+03  0.17213272643E+03 0.  0.
        -24    2    3    3    0    0 -0.56439486577E+02 -0.22207368141E+02  0.30739088308E+02  0.10531736369E+03  0.80425572422E+02 0.  0.
          6    2    1    2  501    0  0.58830824865E+02  0.11105836358E+03  0.14347195870E+03  0.25801570633E+03  0.17376097291E+03 0.  0.
         24    2    5    5    0    0  0.90746115098E+02  0.64685563231E+02  0.43691038619E+02  0.14335383658E+03  0.78881785672E+02 0.  0.
          5    1    5    5  501    0 -0.31915290234E+02  0.46372800349E+02  0.99780920078E+02  0.11466186975E+03  0.47000000000E+01 0. -1.
        -11    1    6    6    0    0  0.38305229052E+02  0.71899186705E+02  0.13999438067E+02  0.82660558236E+02  0.00000000000E+00 0.  1.
         12    1    6    6    0    0  0.52440886046E+02 -0.72136234745E+01  0.29691600552E+02  0.60693278345E+02  0.00000000000E+00 0. -1.
         -5    1    3    3    0  503 -0.23913382873E+01 -0.88850995439E+02  0.14864692845E+03  0.17325766138E+03  0.47000000000E+01 0.  1.
         13    1    4    4    0    0  0.28572029513E+01  0.41493038396E+01 -0.21456379383E+02  0.22039885374E+02  0.00000000000E+00 0. -1.
        -14    1    4    4    0    0 -0.59296689529E+02 -0.26356671980E+02  0.52195467691E+02  0.83277478315E+02  0.00000000000E+00 0.  1.
</event>
<event>
12    1  0.1035051E+000  0.1861322E+03  0.7818608E-02  0.1162400E+00
         21   -1    0    0  503  502  0.00000000000E+00  0.00000000000E+00  0.11440645048E+03  0.11440645048E+03  0.00000000000E+00 0. -1.
         21   -1    0    0  501  503 -0.00000000000E+00 -0.00000000000E+00 -0.40243929164E+03  0.40243929164E+03  0.00000000000E+00 0. -1.
          6    2    1    2  501    0  0.69676699826E+02  0.79365508173E+01 -0.13145303516E+02  0.18486931534E+03  0.17054627938E+03 0.  0.
         24    2    3    3    0    0  0.20420601765E+02 -0.57785865078E+02 -0.41236386456E+02  0.97939469552E+02  0.64307798508E+02 0.  0.
         -6    2    1    2    0  502 -0.69676699826E+02 -0.79365508173E+01 -0.27488753764E+03  0.33197642679E+03  0.17241623547E+03 0.  0.
        -24    2    5    5    0    0 -0.98856729378E+02 -0.20960063690E+02 -0.27012886700E+03  0.29932951333E+03  0.80103530194E+02 0.  0.
          5    1    3    3  501    0  0.49256098060E+02  0.65722415895E+02  0.28091082940E+02  0.86929845784E+02  0.47000000000E+01 0. -1.
        -13    1    4    4    0    0  0.16208773712E+02 -0.59960490882E+01 -0.42588086594E+02  0.45961092999E+02  0.00000000000E+00 0.  1.
         14    1    4    4    0    0  0.42118280536E+01 -0.51789815990E+02  0.13517001387E+01  0.51978376553E+02  0.00000000000E+00 0. -1.
         -5    1    5    5    0  502  0.29180029552E+02  0.13023512873E+02 -0.47586706453E+01  0.32646913461E+02  0.47000000000E+01 0.  1.
         13    1    6    6    0    0 -0.60779630958E+02  0.14234547857E+01 -0.63028745841E+02  0.87571756664E+02  0.00000000000E+00 0. -1.
        -14    1    6    6    0    0 -0.38077098419E+02 -0.22383518476E+02 -0.20710012116E+03  0.21175775666E+03  0.00000000000E+00 0.  1.
</event>
<event>
12    1  0.1035051E+000  0.1805430E+03  0.7818608E-02  0.1167813E+00
         21   -1    0    0  503  502  0.00000000000E+00  0.00000000000E+00  0.94125901189E+02  0.94125901189E+02  0.00000000000E+00 0.  1.
         21   -1    0    0  501  503 -0.00000000000E+00 -0.00000000000E+00 -0.53379747388E+03  0.53379747388E+03  0.00000000000E+00 0.  1.
          6    2    1    2  501    0  0.15285001815E+02 -0.50123334864E+02 -0.40712076907E+03  0.44446949274E+03  0.17046943827E+03 0.  0.
         24    2    3    3    0    0  0.18030452892E+02  0.19271530041E+02 -0.33353671978E+03  0.34317839200E+03  0.76342492735E+02 0.  0.
         -6    2    1    2    0  502 -0.15285001815E+02  0.50123334864E+02 -0.32550803623E+02  0.18345388234E+03  0.17277092391E+03 0.  0.
        -24    2    5    5    0    0  0.64304311541E+00  0.93269519808E+02 -0.51601927061E+02  0.13345057050E+03  0.80291214093E+02 0.  0.
          5    1    3    3  501    0 -0.27454510776E+01 -0.69394864906E+02 -0.73584049297E+02  0.10129110073E+03  0.47000000000E+01 0. -1.
        -13    1    4    4    0    0  0.37751098196E+01  0.36696613885E+02 -0.74182551279E+02  0.82848921773E+02  0.00000000000E+00 0.  1.
         14    1    4    4    0    0  0.14255343073E+02 -0.17425083843E+02 -0.25935416850E+03  0.26032947023E+03  0.00000000000E+00 0. -1.
         -5    1    5    5    0  502 -0.15928044930E+02 -0.43146184944E+02  0.19051123438E+02  0.50003311838E+02  0.47000000000E+01 0.  1.
         13    1    6    6    0    0  0.20193346647E+02  0.69937992044E+02  0.85688488056E+00  0.72799919173E+02  0.00000000000E+00 0. -1.
        -14    1    6    6    0    0 -0.19550303531E+02  0.23331527764E+02 -0.52458811942E+02  0.60650651327E+02  0.00000000000E+00 0.  1.
</event>
<event>
12    1  0.1035051E+000  0.1881248E+03  0.7818608E-02  0.1163414E+00
         21   -1    0    0  501  502  0.00000000000E+00  0.00000000000E+00  0.29081082134E+02  0.29081082134E+02  0.00000000000E+00 0.  1.
         21   -1    0    0  502  503 -0.00000000000E+00 -0.00000000000E+00 -0.11765684686E+04  0.11765684686E+04  0.00000000000E+00 0.  1.
         -6    2    1    2    0  503  0.17094374780E+02  0.18318301524E+02 -0.43334439028E+03  0.46714351401E+03  0.17264971553E+03 0.  0.
        -24    2    3    3    0    0 -0.21581776339E+02 -0.40849059153E+02 -0.15825526720E+03  0.18307884378E+03  0.79616045746E+02 0.  0.
          6    2    1    2  501    0 -0.17094374780E+02 -0.18318301524E+02 -0.71414299623E+03  0.73850603677E+03  0.18644883872E+03 0.  0.
         24    2    5    5    0    0 -0.18677790885E+02 -0.34711091070E+02 -0.15081677585E+03  0.17491952937E+03  0.79356298811E+02 0.  0.
          5    1    5    5  501    0  0.15834161050E+01  0.16392789545E+02 -0.56332622038E+03  0.56358650740E+03  0.47000000000E+01 0. -1.
        -11    1    6    6    0    0  0.24133697763E+00  0.19690781329E+02 -0.86120873068E+01  0.21493095651E+02  0.00000000000E+00 0.  1.
         12    1    6    6    0    0 -0.18919127862E+02 -0.54401872398E+02 -0.14220468854E+03  0.15342643372E+03  0.00000000000E+00 0. -1.
         -5    1    3    3    0  503  0.38676151119E+02  0.59167360677E+02 -0.27508912308E+03  0.28406467022E+03  0.47000000000E+01 0.  1.
         13    1    4    4    0    0  0.12014088124E+02 -0.26413254138E+02 -0.10487847148E+02  0.30854387782E+02  0.00000000000E+00 0. -1.
        -14    1    4    4    0    0 -0.33595864464E+02 -0.14435805016E+02 -0.14776742005E+03  0.15222445600E+03  0.00000000000E+00 0.  1.
</event>
<event>
12    1  0.1035051E+000  0.1854694E+03  0.7818608E-02  0.1162627E+00
         21   -1    0    0  501  502  0.00000000000E+00  0.00000000000E+00  0.32628393248E+03  0.32628393248E+03  0.00000000000E+00 0. -1.
         21   -1    0    0  502  503 -0.00000000000E+00 -0.00000000000E+00 -0.26171124286E+03  0.26171124286E+03  0.00000000000E+00 0.  1.
         -6    2    1    2    0  503  0.57072477986E+02  0.38905260493E+02  0.25950668547E+03  0.31897121287E+03  0.17212794021E+03 0.  0.
        -24    2    3    3    0    0  0.71997134702E+02  0.23947183614E+02  0.74136931006E+02  0.13234183332E+03  0.79126615619E+02 0.  0.
          6    2    1    2  501    0 -0.57072477986E+02 -0.38905260493E+02 -0.19493399585E+03  0.26902396247E+03  0.17205738172E+03 0.  0.
         24    2    5    5    0    0 -0.69383438301E+02  0.16550365584E+02 -0.62036967715E+02  0.12441899611E+03  0.80892058438E+02 0.  0.
          5    1    5    5  501    0  0.12310960315E+02 -0.55455626077E+02 -0.13289702814E+03  0.14460496636E+03  0.47000000000E+01 0. -1.
        -11    1    6    6    0    0 -0.19295404987E+02 -0.23259434731E+02 -0.51304192528E+02  0.59543548169E+02  0.00000000000E+00 0.  1.
         12    1    6    6    0    0 -0.50088033314E+02  0.39809800315E+02 -0.10732775187E+02  0.64875447942E+02  0.00000000000E+00 0. -1.
         -5    1    3    3    0  503 -0.14924656716E+02  0.14958076880E+02  0.18536975446E+03  0.18662937955E+03  0.47000000000E+01 0.  1.
         13    1    4    4    0    0  0.12027655861E+02  0.30898052877E+02 -0.42215392816E+01  0.33424176444E+02  0.00000000000E+00 0. -1.
        -14    1    4    4    0    0  0.59969478841E+02 -0.69508692633E+01  0.78358470287E+02  0.98917656876E+02  0.00000000000E+00 0.  1.
</event>
<event>
12    1  0.1035051E+000  0.1830357E+03  0.7818608E-02  0.1165138E+00
         21   -1    0    0  501  502  0.00000000000E+00  0.00000000000E+00  0.28136884893E+03  0.28136884893E+03  0.00000000000E+00 0. -1.
         21   -1    0    0  502  503 -0.00000000000E+00 -0.00000000000E+00 -0.16460681098E+03  0.16460681098E+03  0.00000000000E+00 0. -1.
         -6    2    1    2    0  503  0.50858043824E+02 -0.29704363087E+02  0.17639658252E+03  0.25347024465E+03  0.17222810686E+03 0.  0.
        -24    2    3    3    0    0  0.73016467956E+01 -0.73000941463E+02  0.15392076802E+03  0.18790344163E+03  0.78953461283E+02 0.  0.
          6    2    1    2  501    0 -0.50858043824E+02  0.29704363087E+02 -0.59634544571E+02  0.19250541526E+03  0.17330079685E+03 0.  0.
         24    2    5    5    0    0  0.31949493120E+02 -0.12856360465E+02 -0.18367566465E+02  0.90556620045E+02  0.81713388261E+02 0.  0.
          5    1    5    5  501    0 -0.82807536944E+02  0.42560723552E+02 -0.41266978105E+02  0.10194879522E+03  0.47000000000E+01 0. -1.
        -13    1    6    6    0    0  0.11631216038E+01  0.31075685697E+02 -0.19846541332E+02  0.36890870094E+02  0.00000000000E+00 0.  1.
         14    1    6    6    0    0  0.30786371516E+02 -0.43932046163E+02  0.14789748665E+01  0.53665749951E+02  0.00000000000E+00 0. -1.
         -5    1    3    3    0  503  0.43556397028E+02  0.43296578375E+02  0.22475814502E+02  0.65566803023E+02  0.47000000000E+01 0.  1.
         11    1    4    4    0    0 -0.63102047721E+01 -0.79049137176E+02  0.80545838142E+02  0.11303192830E+03  0.00000000000E+00 0. -1.
        -12    1    4    4    0    0  0.13611851568E+02  0.60481957133E+01  0.73374929874E+02  0.74871513331E+02  0.00000000000E+00 0.  1.
</event>
<event>
12    1  0.1035051E+000  0.2190753E+03  0.7818608E-02  0.1134591E+00
         21   -1    0    0  503  502  0.00000000000E+00  0.00000000000E+00  0.15930270491E+04  0.15930270491E+04  0.00000000000E+00 0. -1.
         21   -1    0    0  501  503 -0.00000000000E+00 -0.00000000000E+00 -0.35462491933E+02  0.35462491933E+02  0.00000000000E+00 0. -1.
          6    2    1    2  501    0 -0.17704358301E+02  0.13463522071E+03  0.46273293220E+03  0.51197243420E+03  0.17191253555E+03 0.  0.
         24    2    3    3    0    0  0.49654595563E+02  0.45771219731E+02  0.26768231760E+03  0.28724844440E+03  0.79355291182E+02 0.  0.
         -6    2    1    2    0  502  0.17704358301E+02 -0.13463522071E+03  0.10948316250E+04  0.11165171069E+04  0.17179661190E+03 0.  0.
        -24    2    5    5    0    0  0.79656176736E+01 -0.75900354636E+02  0.30545869125E+03  0.32488818742E+03  0.80143667040E+02 0.  0.
          5    1    3    3  501    0 -0.67358953864E+02  0.88864000983E+02  0.19505061460E+03  0.22472398980E+03  0.47000000000E+01 0. -1.
        -13    1    4    4    0    0  0.69728281929E+01  0.18828410439E+02  0.63087301946E+01  0.21045889132E+02  0.00000000000E+00 0.  1.
         14    1    4    4    0    0  0.42681767370E+02  0.26942809292E+02  0.26137358740E+03  0.26620255527E+03  0.00000000000E+00 0. -1.
         -5    1    5    5    0  502  0.97387406274E+01 -0.58734866079E+02  0.78937293375E+03  0.79162891944E+03  0.47000000000E+01 0.  1.
         11    1    6    6    0    0 -0.26911571334E+02 -0.48936567340E+02  0.23678599658E+03  0.24328302133E+03  0.00000000000E+00 0. -1.
        -12    1    6    6    0    0  0.34877189007E+02 -0.26963787295E+02  0.68672694676E+02  0.81605166089E+02  0.00000000000E+00 0.  1.
</event>
<event>
12    1  0.1035051E+000  0.1905835E+03  0.7818608E-02  0.1158350E+00
         21   -1    0    0  503  502  0.00000000000E+00  0.00000000000E+00  0.47087252712E+02  0.47087252712E+02  0.00000000000E+00 0. -1.
         21   -1    0    0  501  503 -0.00000000000E+00 -0.00000000000E+00 -0.78209265615E+03  0.78209265615E+03  0.00000000000E+00 0. -1.
          6    2    1    2  501    0  0.79755387939E+02  0.89541351217E+01 -0.43232713004E+03  0.47247099015E+03  0.17286118917E+03 0.  0.
         24    2    3    3    0    0  0.64051351227E+02 -0.39478816575E+02 -0.39023832007E+03  0.40624466982E+03  0.84188079657E+02 0.  0.
         -6    2    1    2    0  502 -0.79755387939E+02 -0.89541351217E+01 -0.30267827340E+03  0.35670891872E+03  0.17083915553E+03 0.  0.
        -24    2    5    5    0    0 -0.10236369617E+03  0.38303166136E+02 -0.23271932109E+03  0.26918330457E+03  0.79723962671E+02 0.  0.
          5    1    3    3  501    0  0.15704036712E+02  0.48432951696E+02 -0.42088809974E+02  0.66226320327E+02  0.47000000000E+01 0. -1.
        -13    1    4    4    0    0  0.72936164413E+02 -0.27229941633E+02 -0.38019225166E+03  0.38808156620E+03  0.00000000000E+00 0.  1.
         14    1    4    4    0    0 -0.88848131868E+01 -0.12248874941E+02 -0.10046068404E+02  0.18163103619E+02  0.00000000000E+00 0. -1.
         -5    1    5    5    0  502  0.22608308227E+02 -0.47257301258E+02 -0.69958952308E+02  0.87525614143E+02  0.47000000000E+01 0.  1.
         13    1    6    6    0    0 -0.34634987082E+02 -0.24484627191E+02 -0.62697793207E+02  0.75697374934E+02  0.00000000000E+00 0. -1.
        -14    1    6    6    0    0 -0.67728709083E+02  0.62787793327E+02 -0.17002152788E+03  0.19348592964E+03  0.00000000000E+00 0.  1.
</event>
<event>
12    1  0.1035051E+000  0.2912680E+03  0.7818608E-02  0.1089695E+00
         21   -1    0    0  501  502  0.00000000000E+00  0.00000000000E+00  0.13911273711E+03  0.13911273711E+03  0.00000000000E+00 0. -1.
         21   -1    0    0  502  503 -0.00000000000E+00 -0.00000000000E+00 -0.61006332161E+03  0.61006332161E+03  0.00000000000E+00 0. -1.
         -6    2    1    2    0  503  0.22821258444E+03 -0.58262162716E+02 -0.22693750182E+03  0.36920312929E+03  0.17127421768E+03 0.  0.
        -24    2    3    3    0    0  0.39400596995E+02 -0.45530094873E+02 -0.57167398342E+02  0.11492758939E+03  0.79465985095E+02 0.  0.
          6    2    1    2  501    0 -0.22821258444E+03  0.58262162716E+02 -0.24401308268E+03  0.37997292943E+03  0.17135220826E+03 0.  0.
         24    2    5    5    0    0 -0.15373142385E+03  0.84728318243E+02 -0.10182825701E+03  0.21722614659E+03  0.77498169312E+02 0.  0.
          5    1    5    5  501    0 -0.74481160590E+02 -0.26466155527E+02 -0.14218482567E+03  0.16274678283E+03  0.47000000000E+01 0. -1.
        -13    1    6    6    0    0 -0.56865161914E+02  0.77274575239E+01 -0.67926987157E+02  0.88923764110E+02  0.00000000000E+00 0.  1.
         14    1    6    6    0    0 -0.96866261939E+02  0.77000860719E+02 -0.33901269851E+02  0.12830238248E+03  0.00000000000E+00 0. -1.
         -5    1    3    3    0  503  0.18881198745E+03 -0.12732067843E+02 -0.16977010348E+03  0.25427553990E+03  0.47000000000E+01 0.  1.
         13    1    4    4    0    0  0.38795834694E+02 -0.35108631526E+02 -0.76660858313E+02  0.92814977210E+02  0.00000000000E+00 0. -1.
        -14    1    4    4    0    0  0.60476230025E+00 -0.10421463347E+02  0.19493459971E+02  0.22112612179E+02  0.00000000000E+00 0.  1.
</event>
<event>
12    1  0.1035051E+000  0.2918854E+03  0.7818608E-02  0.1089435E+00
         21   -1    0    0  503  502  0.00000000000E+00  0.00000000000E+00  0.12359084112E+03  0.12359084112E+03  0.00000000000E+00 0.  1.
         21   -1    0    0  501  503 -0.00000000000E+00 -0.00000000000E+00 -0.83033558615E+03  0.83033558615E+03  0.00000000000E+00 0.  1.
          6    2    1    2  501    0  0.13393454426E+01  0.23545066852E+03 -0.55049274441E+03  0.62284975813E+03  0.17164133653E+03 0.  0.
         24    2    3    3    0    0  0.57981119240E+02  0.16787364077E+03 -0.44097408899E+03  0.48216795012E+03  0.80525868611E+02 0.  0.
         -6    2    1    2    0  502 -0.13393454426E+01 -0.23545066852E+03 -0.15625200063E+03  0.33107666914E+03  0.17250583177E+03 0.  0.
        -24    2    5    5    0    0  0.12488909722E+02 -0.17342666667E+03 -0.17971540605E+03  0.26317365859E+03  0.82036368937E+02 0.  0.
          5    1    3    3  501    0 -0.56641773798E+02  0.67577027755E+02 -0.10951865542E+03  0.14068180801E+03  0.47000000000E+01 0. -1.
        -13    1    4    4    0    0 -0.33103588265E+01  0.10079268671E+03 -0.18751038651E+03  0.21290906327E+03  0.00000000000E+00 0.  1.
         14    1    4    4    0    0  0.61291478067E+02  0.67080954057E+02 -0.25346370247E+03  0.26925888686E+03  0.00000000000E+00 0. -1.
         -5    1    5    5    0  502 -0.13828255165E+02 -0.62024001855E+02  0.23463405422E+02  0.67903010545E+02  0.47000000000E+01 0.  1.
         11    1    6    6    0    0  0.23197766782E+02 -0.10741577184E+03 -0.57907457398E+02  0.12421577213E+03  0.00000000000E+00 0. -1.
        -12    1    6    6    0    0 -0.10708857060E+02 -0.66010894829E+02 -0.12180794865E+03  0.13895788647E+03  0.00000000000E+00 0.  1.
</event>
<event>
12    1  0.1035051E+000  0.1809056E+03  0.7818608E-02  0.1168323E+00
         21   -1    0    0  501  502  0.00000000000E+00  0.00000000000E+00  0.13079339672E+02  0.13079339672E+02  0.00000000000E+00 0. -1.
         21   -1    0    0  502  503 -0.00000000000E+00 -0.00000000000E+00 -0.24403339281E+04  0.24403339281E+04  0.00000000000E+00 0. -1.
         -6    2    1    2    0  503 -0.46816923096E+02 -0.32516337806E+02 -0.13333941350E+04  0.13456101852E+04  0.17169075366E+03 0.  0.
        -24    2    3    3    0    0 -0.54194954251E+02 -0.64393298019E+02 -0.58755787289E+03  0.59904177190E+03  0.80890052490E+02 0.  0.
          6    2    1    2  501    0  0.46816923096E+02  0.32516337806E+02 -0.10938604535E+04  0.11078030826E+04  0.16567390125E+03 0.  0.
         24    2    5    5    0    0  0.92705811700E+02  0.23996327109E+02 -0.85762338435E+03  0.86695370327E+03  0.83190522233E+02 0.  0.
          5    1    5    5  501    0 -0.45888888604E+02  0.85200106974E+01 -0.23623706914E+03  0.24084937931E+03  0.47000000000E+01 0. -1.
        -13    1    6    6    0    0  0.26883979360E+02  0.13164140875E+02 -0.60283081703E+03  0.60357355551E+03  0.00000000000E+00 0.  1.
         14    1    6    6    0    0  0.65821832341E+02  0.10832186234E+02 -0.25479256732E+03  0.26338014776E+03  0.00000000000E+00 0. -1.
         -5    1    3    3    0  503  0.73780311552E+01  0.31876960213E+02 -0.74583626206E+03  0.74656841330E+03  0.47000000000E+01 0.  1.
         11    1    4    4    0    0 -0.28929594201E+01 -0.13755549908E+02 -0.36141597687E+03  0.36168922116E+03  0.00000000000E+00 0. -1.
        -12    1    4    4    0    0 -0.51301994831E+02 -0.50637748111E+02 -0.22614189603E+03  0.23735255075E+03  0.00000000000E+00 0.  1.
</event>
<event>
12    1  0.1035051E+000  0.1755807E+03  0.7818608E-02  0.1172614E+00
         21   -1    0    0  503  502  0.00000000000E+00  0.00000000000E+00  0.51692994270E+03  0.51692994270E+03  0.00000000000E+00 0. -1.
         21   -1    0    0  501  503 -0.00000000000E+00 -0.00000000000E+00 -0.11714437160E+03  0.11714437160E+03  0.00000000000E+00 0. -1.
          6    2    1    2  501    0  0.10962436772E+02 -0.31312647921E+02  0.42269354267E+03  0.45700550807E+03  0.17053898805E+03 0.  0.
         24    2    3    3    0    0  0.13088657017E+02  0.46147840600E+02  0.27352703082E+03  0.28884669517E+03  0.79463454429E+02 0.  0.
         -6    2    1    2    0  502 -0.10962436772E+02  0.31312647921E+02 -0.22907971574E+02  0.17706880623E+03  0.17241789362E+03 0.  0.
        -24    2    5    5    0    0 -0.51929346876E+02 -0.98381562566E+01  0.26538102197E+02  0.10065754647E+03  0.81450748350E+02 0.  0.
          5    1    3    3  501    0 -0.21262202451E+01 -0.77460488522E+02  0.14916651186E+03  0.16815881290E+03  0.47000000000E+01 0. -1.
        -11    1    4    4    0    0 -0.17970449736E+02 -0.77053832222E+01  0.20642616809E+02  0.28432861675E+02  0.00000000000E+00 0.  1.
         12    1    4    4    0    0  0.31059106754E+02  0.53853223823E+02  0.25288441401E+03  0.26041383350E+03  0.00000000000E+00 0. -1.
         -5    1    5    5    0  502  0.40966910103E+02  0.41150804178E+02 -0.49446073771E+02  0.76411259768E+02  0.47000000000E+01 0.  1.
         13    1    6    6    0    0  0.17216547543E+02  0.15565962824E+02  0.34891022312E+01  0.23470887122E+02  0.00000000000E+00 0. -1.
        -14    1    6    6    0    0 -0.69145894419E+02 -0.25404119080E+02  0.23048999966E+02  0.77186659344E+02  0.00000000000E+00 0.  1.
</event>
<event>
12    1  0.1035051E+000  0.1946226E+03  0.7818608E-02  0.1154588E+00
         21   -1    0    0  503  502  0.00000000000E+00  0.00000000000E+00  0.20545556293E+04  0.20545556293E+04  0.00000000000E+00 0. -1.
         21   -1    0    0  501  503 -0.00000000000E+00 -0.00000000000E+00 -0.23781450770E+02  0.23781450770E+02  0.00000000000E+00 0. -1.
          6    2    1    2  501    0 -0.24973577628E+01 -0.88619761675E+02  0.15147648651E+04  0.15272166038E+04  0.17325778314E+03 0.  0.
         24    2    3    3    0    0 -0.36843022013E+02 -0.22348221895E+02  0.40113201863E+03  0.41107514843E+03  0.78860826775E+02 0.  0.
         -6    2    1    2    0  502  0.24973577628E+01  0.88619761675E+02  0.51600931346E+03  0.55112047630E+03  0.17207111572E+03 0.  0.
        -24    2    5    5    0    0  0.26177342177E+02  0.10588169737E+03  0.49810419885E+03  0.51645927010E+03  0.82013399421E+02 0.  0.
          5    1    3    3  501    0  0.34345664250E+02 -0.66271539780E+02  0.11136328464E+04  0.11161414553E+04  0.47000000000E+01 0. -1.
        -13    1    4    4    0    0 -0.31475452252E+02 -0.38799505260E+02  0.12814171250E+03  0.13753691936E+03  0.00000000000E+00 0.  1.
         14    1    4    4    0    0 -0.53675697603E+01  0.16451283364E+02  0.27299030612E+03  0.27353822908E+03  0.00000000000E+00 0. -1.
         -5    1    5    5    0  502 -0.23679984414E+02 -0.17261935692E+02  0.17905114607E+02  0.34661206193E+02  0.47000000000E+01 0.  1.
         13    1    6    6    0    0 -0.12697508587E+02  0.81710800795E+02  0.22862896004E+03  0.24312359626E+03  0.00000000000E+00 0. -1.
        -14    1    6    6    0    0  0.38874850764E+02  0.24170896573E+02  0.26947523881E+03  0.27333567384E+03  0.00000000000E+00 0.  1.
</event>
<event>
12    1  0.1035051E+000  0.2212829E+03  0.7818608E-02  0.1132982E+00
         21   -1    0    0  501  502  0.00000000000E+00  0.00000000000E+00  0.35766202943E+03  0.35766202943E+03  0.00000000000E+00 0.  1.
         21   -1    0    0  502  503 -0.00000000000E+00 -0.00000000000E+00 -0.16989753625E+03  0.16989753625E+03  0.00000000000E+00 0.  1.
         -6    2    1    2    0  503  0.79493118060E+02 -0.11237816539E+03  0.21047389598E+03  0.30539378579E+03  0.17325731048E+03 0.  0.
        -24    2    3    3    0    0 -0.22883217006E+02 -0.51768468257E+02  0.68381015535E+02  0.12001059874E+03  0.80764872305E+02 0.  0.
          6    2    1    2  501    0 -0.79493118060E+02  0.11237816539E+03 -0.22709402798E+02  0.22216577988E+03  0.17289855089E+03 0.  0.
         24    2    5    5    0    0  0.15942457514E+02  0.24323870830E+02 -0.32805424862E+02  0.91837242953E+02  0.80697401750E+02 0.  0.
          5    1    5    5  501    0 -0.95435575573E+02  0.88054294564E+02  0.10096022064E+02  0.13032853693E+03  0.47000000000E+01 0. -1.
        -11    1    6    6    0    0  0.58616035206E+01  0.47396124043E+02  0.32420263903E+01  0.47867125517E+02  0.00000000000E+00 0.  1.
         12    1    6    6    0    0  0.10080853993E+02 -0.23072253213E+02 -0.36047451252E+02  0.43970117436E+02  0.00000000000E+00 0. -1.
         -5    1    3    3    0  503  0.10237633507E+03 -0.60609697137E+02  0.14209288044E+03  0.18538318705E+03  0.47000000000E+01 0.  1.
         11    1    4    4    0    0  0.18918746457E+02 -0.48110017094E+02  0.56103608415E+02  0.76289629632E+02  0.00000000000E+00 0. -1.
        -12    1    4    4    0    0 -0.41801963463E+02 -0.36584511638E+01  0.12277407120E+02  0.43720969109E+02  0.00000000000E+00 0.  1.
</event>
<event>
12    1  0.1035051E+000  0.2394807E+03  0.7818608E-02  0.1120236E+00
         21   -1    0    0  503  502  0.00000000000E+00  0.00000000000E+00  0.97558683980E+02  0.97558683980E+02  0.00000000000E+00 0.  1.
         21   -1    0    0  501  503 -0.00000000000E+00 -0.00000000000E+00 -0.58962702043E+03  0.58962702043E+03  0.00000000000E+00 0.  1.
          6    2    1    2  501    0 -0.20365709463E+02 -0.16511509550E+03 -0.22110406062E+03  0.32594175751E+03  0.17225930100E+03 0.  0.
         24    2    3    3    0    0 -0.52926814066E+02 -0.33184869304E+02 -0.10424626413E+03  0.14665526969E+03  0.82085329645E+02 0.  0.
         -6    2    1    2    0  502  0.20365709463E+02  0.16511509550E+03 -0.27096427583E+03  0.36124394690E+03  0.17145784762E+03 0.  0.
        -24    2    5    5    0    0 -0.89213216934E+01  0.18239800721E+02 -0.60569099578E+02  0.10294508395E+03  0.80726663345E+02 0.  0.
          5    1    3    3  501    0  0.32561104603E+02 -0.13193022619E+03 -0.11685779648E+03  0.17928648782E+03  0.47000000000E+01 0. -1.
        -11    1    4    4    0    0 -0.50512681855E+02 -0.41291718193E+02 -0.29792565878E+02  0.71722618476E+02  0.00000000000E+00 0.  1.
         12    1    4    4    0    0 -0.24141322109E+01  0.81068488893E+01 -0.74453698256E+02  0.74932651209E+02  0.00000000000E+00 0. -1.
         -5    1    5    5    0  502  0.29287031157E+02  0.14687529478E+03 -0.21039517626E+03  0.25829886295E+03  0.47000000000E+01 0.  1.
         13    1    6    6    0    0  0.27903800183E+01  0.41637856248E+02 -0.56508049263E+01  0.42112099092E+02  0.00000000000E+00 0. -1.
        -14    1    6    6    0    0 -0.11711701712E+02 -0.23398055527E+02 -0.54918294652E+02  0.60832984859E+02  0.00000000000E+00 0.  1.
</event>
<event>
12    1  0.1035051E+000  0.2789222E+03  0.7818608E-02  0.1096370E+00
         21   -1    0    0  503  502  0.00000000000E+00  0.00000000000E+00  0.32613213435E+03  0.32613213435E+03  0.00000000000E+00 0.  1.
         21   -1    0    0  501  503 -0.00000000000E+00 -0.00000000000E+00 -0.27220028654E+03  0.27220028654E+03  0.00000000000E+00 0.  1.
          6    2    1    2  501    0 -0.14239506411E+03 -0.16650813800E+03  0.13306329179E+03  0.30903632806E+03  0.17261604252E+03 0.  0.
         24    2    3    3    0    0 -0.74296448807E+02 -0.12160731403E+03  0.25324155728E+02  0.17382051227E+03  0.96249449309E+02 0.  0.
         -6    2    1    2    0  502  0.14239506411E+03  0.16650813800E+03 -0.79131443974E+02  0.28929609284E+03  0.17154920461E+03 0.  0.
        -24    2    5    5    0    0  0.14955656311E+03  0.98541304548E+02 -0.95888818728E+02  0.21877179117E+03  0.81171896507E+02 0.  0.
          5    1    3    3  501    0 -0.68098615306E+02 -0.44900823970E+02  0.10773913606E+03  0.13521581578E+03  0.47000000000E+01 0. -1.
        -13    1    4    4    0    0 -0.36883644139E+02  0.24317597292E+01 -0.12220812762E+02  0.38931541517E+02  0.00000000000E+00 0.  1.
         14    1    4    4    0    0 -0.37412804668E+02 -0.12403907376E+03  0.37544968490E+02  0.13488897076E+03  0.00000000000E+00 0. -1.
         -5    1    5    5    0  502 -0.71614989941E+01  0.67966833455E+02  0.16757374753E+02  0.70524301672E+02  0.47000000000E+01 0.  1.
         11    1    6    6    0    0  0.71790611911E+02  0.72854266904E+02 -0.14491454444E+02  0.10330362248E+03  0.00000000000E+00 0. -1.
        -12    1    6    6    0    0  0.77765951196E+02  0.25687037644E+02 -0.81397364284E+02  0.11546816869E+03  0.00000000000E+00 0.  1.
</event>
<event>
12    1  0.1035051E+000  0.4658995E+03  0.7818608E-02  0.1023452E+00
         21   -1    0    0  503  502  0.00000000000E+00  0.00000000000E+00  0.61755579164E+03  0.61755579164E+03  0.00000000000E+00 0. -1.
         21   -1    0    0  501  503 -0.00000000000E+00 -0.00000000000E+00 -0.40981009641E+03  0.40981009641E+03  0.00000000000E+00 0. -1.
          6    2    1    2  501    0  0.91597795688E+02 -0.41770107374E+03  0.30445768292E+03  0.55655803846E+03  0.18492708375E+03 0.  0.
         24    2    3    3    0    0  0.89891177432E+02 -0.23090973023E+03  0.25323772455E+03  0.36280692829E+03  0.78101182982E+02 0.  0.
         -6    2    1    2    0  502 -0.91597795688E+02  0.41770107374E+03 -0.96711987691E+02  0.47080784958E+03  0.17158810997E+03 0.  0.
        -24    2    5    5    0    0 -0.72193076737E+02  0.28301946849E+03  0.20455678866E+01  0.30260909009E+03  0.79096252644E+02 0.  0.
          5    1    3    3  501    0  0.17066182565E+01 -0.18679134352E+03  0.51219958371E+02  0.19375111017E+03  0.47000000000E+01 0. -1.
        -11    1    4    4    0    0  0.89539713613E+02 -0.12531227251E+03  0.14331190686E+03  0.21037782345E+03  0.00000000000E+00 0.  1.
         12    1    4    4    0    0  0.35146381846E+00 -0.10559745772E+03  0.10992581770E+03  0.15242910483E+03  0.00000000000E+00 0. -1.
         -5    1    5    5    0  502 -0.19404718952E+02  0.13468160525E+03 -0.98757555578E+02  0.16819875949E+03  0.47000000000E+01 0.  1.
         11    1    6    6    0    0 -0.16988975993E+02  0.26948157253E+02  0.23782303093E+02  0.39754577410E+02  0.00000000000E+00 0. -1.
        -12    1    6    6    0    0 -0.55204100744E+02  0.25607131124E+03 -0.21736735206E+02  0.26285451268E+03  0.00000000000E+00 0.  1.
</event>
<event>
12    1  0.1035051E+000  0.1923169E+03  0.7818608E-02  0.1157567E+00
         21   -1    0    0  503  502  0.00000000000E+00  0.00000000000E+00  0.12837915378E+03  0.12837915378E+03  0.00000000000E+00 0. -1.
         21   -1    0    0  501  503 -0.00000000000E+00 -0.00000000000E+00 -0.31780474303E+03  0.31780474303E+03  0.00000000000E+00 0. -1.
          6    2    1    2  501    0  0.68871176808E+02 -0.51641918427E+02 -0.19246703323E+02  0.19327761388E+03  0.17197579395E+03 0.  0.
         24    2    3    3    0    0 -0.16224969342E+02 -0.44020689043E+02 -0.31528587525E+02  0.10683473154E+03  0.90656148928E+02 0.  0.
         -6    2    1    2    0  502 -0.68871176808E+02  0.51641918427E+02 -0.17017888593E+03  0.25290628294E+03  0.16610420826E+03 0.  0.
        -24    2    5    5    0    0 -0.19960978301E+02  0.65112097468E+02 -0.17249429615E+03  0.20190525975E+03  0.79833738609E+02 0.  0.
          5    1    3    3  501    0  0.85096146151E+02 -0.76212293834E+01  0.12281884202E+02  0.86442882336E+02  0.47000000000E+01 0. -1.
        -11    1    4    4    0    0  0.19618357925E+02 -0.59778275761E+02 -0.20048722887E+02  0.66032367139E+02  0.00000000000E+00 0.  1.
         12    1    4    4    0    0 -0.35843327268E+02  0.15757586718E+02 -0.11479864638E+02  0.40802364403E+02  0.00000000000E+00 0. -1.
         -5    1    5    5    0  502 -0.48910198508E+02 -0.13470179041E+02  0.23154102208E+01  0.51001023186E+02  0.47000000000E+01 0.  1.
         11    1    6    6    0    0 -0.68741578339E+01 -0.14486078163E+02 -0.68176229055E+02  0.70036409921E+02  0.00000000000E+00 0. -1.
        -12    1    6    6    0    0 -0.13086820467E+02  0.79598175631E+02 -0.10431806710E+03  0.13186884983E+03  0.00000000000E+00 0.  1.
</event>
<event>
12    1  0.1035051E+000  0.2240776E+03  0.7818608E-02  0.1130933E+00
         21   -1    0    0  503  502  0.00000000000E+00  0.00000000000E+00  0.21089847490E+03  0.21089847490E+03  0.00000000000E+00 0.  1.
         21   -1    0    0  501  503 -0.00000000000E+00 -0.00000000000E+00 -0.26407588384E+03  0.26407588384E+03  0.00000000000E+00 0.  1.
          6    2    1    2  501    0  0.66858632351E+02 -0.12752707585E+03 -0.10156240134E+03  0.24601969221E+03  0.17169023208E+03 0.  0.
         24    2    3    3    0    0  0.99089177445E+02 -0.13702507338E+03 -0.99078012820E+02  0.21200084184E+03  0.80829255198E+02 0.  0.
         -6    2    1    2    0  502 -0.66858632351E+02  0.12752707585E+03  0.48384992399E+02  0.22895466653E+03  0.17130645068E+03 0.  0.
        -24    2    5    5    0    0 -0.14946324574E+02 -0.14212980488E+02  0.39327666451E+02  0.77662708975E+02  0.63713653044E+02 0.  0.
          5    1    3    3  501    0 -0.32230545094E+02  0.94979975282E+01 -0.24843885246E+01  0.34018850369E+02  0.47000000000E+01 0. -1.
        -13    1    4    4    0    0  0.10436158305E+03 -0.12704073996E+03 -0.66198959904E+02  0.17723710649E+03  0.00000000000E+00 0.  1.
         14    1    4    4    0    0 -0.52724056017E+01 -0.99843334155E+01 -0.32879052916E+02  0.34763735346E+02  0.00000000000E+00 0. -1.
         -5    1    5    5    0  502 -0.51912307777E+02  0.14174005634E+03  0.90573259477E+01  0.15129195756E+03  0.47000000000E+01 0.  1.
         11    1    6    6    0    0 -0.39615752987E+02 -0.29294151518E+01  0.21097782095E+02  0.44978948044E+02  0.00000000000E+00 0. -1.
        -12    1    6    6    0    0  0.24669428413E+02 -0.11283565336E+02  0.18229884356E+02  0.32683760930E+02  0.00000000000E+00 0.  1.
</event>
<event>
12    1  0.1035051E+000  0.2962755E+03  0.7818608E-02  0.1087179E+00
         21   -1    0    0  501  502  0.00000000000E+00  0.00000000000E+00  0.44236761084E+03  0.44236761084E+03  0.00000000000E+00 0. -1.
         21   -1    0    0  502  503 -0.00000000000E+00 -0.00000000000E+00 -0.19821356652E+03  0.19821356652E+03  0.00000000000E+00 0.  1.
         -6    2    1    2    0  503  0.23605915603E+03 -0.50724115615E+02  0.11470989897E+03  0.31770671991E+03  0.17170421632E+03 0.  0.
        -24    2    3    3    0    0  0.19417024220E+03  0.13969987959E+02  0.48174443563E+02  0.21577995715E+03  0.79642760985E+02 0.  0.
          6    2    1    2  501    0 -0.23605915603E+03  0.50724115615E+02  0.12944414535E+03  0.32287445745E+03  0.17086622680E+03 0.  0.
         24    2    5    5    0    0 -0.13234833280E+03 -0.95771334423E+01  0.99300377919E+01  0.15346994926E+03  0.76463174100E+02 0.  0.
          5    1    5    5  501    0 -0.10371082323E+03  0.60301249057E+02  0.11951410756E+03  0.16940450820E+03  0.47000000000E+01 0. -1.
        -13    1    6    6    0    0 -0.91614600035E+02  0.29711581299E+02  0.20804312317E+01  0.96334527543E+02  0.00000000000E+00 0.  1.
         14    1    6    6    0    0 -0.40733732769E+02 -0.39288714741E+02  0.78496065602E+01  0.57135421714E+02  0.00000000000E+00 0. -1.
         -5    1    3    3    0  503  0.41888913833E+02 -0.64694103573E+02  0.66535455407E+02  0.10192676275E+03  0.47000000000E+01 0.  1.
         13    1    4    4    0    0 -0.55024146245E+01  0.44043990323E+01  0.10050342420E+02  0.12275368845E+02  0.00000000000E+00 0. -1.
        -14    1    4    4    0    0  0.19967265682E+03  0.95655889265E+01  0.38124101143E+02  0.20350458831E+03  0.00000000000E+00 0.  1.
</event>
<event>
12    1  0.1035051E+000  0.2931821E+03  0.7818608E-02  0.1088819E+00
         21   -1    0    0  501  502  0.00000000000E+00  0.00000000000E+00  0.14255094937E+03  0.14255094937E+03  0.00000000000E+00 0.  1.
         21   -1    0    0  502  503 -0.00000000000E+00 -0.00000000000E+00 -0.61310363745E+03  0.61310363745E+03  0.00000000000E+00 0.  1.
         -6    2    1    2    0  503  0.17955568175E+03 -0.15497751671E+03 -0.28854836769E+03  0.41135859360E+03  0.17232950559E+03 0.  0.
        -24    2    3    3    0    0  0.14026803292E+03 -0.94937857363E+02 -0.10923290690E+03  0.21816334386E+03  0.83517057141E+02 0.  0.
          6    2    1    2  501    0 -0.17955568175E+03  0.15497751671E+03 -0.18200432039E+03  0.34429599322E+03  0.17075094369E+03 0.  0.
         24    2    5    5    0    0 -0.67636540657E+02  0.30328729109E+02 -0.18291703700E+02  0.11001597858E+03  0.79211083048E+02 0.  0.
          5    1    5    5  501    0 -0.11191914109E+03  0.12464878760E+03 -0.16371261669E+03  0.23428001464E+03  0.47000000000E+01 0. -1.
        -11    1    6    6    0    0 -0.69094626929E+02  0.53773220992E+01  0.12432078882E+02  0.70409797960E+02  0.00000000000E+00 0.  1.
         12    1    6    6    0    0  0.14580862723E+01  0.24951407009E+02 -0.30723782582E+02  0.39606180622E+02  0.00000000000E+00 0. -1.
         -5    1    3    3    0  503  0.39287648831E+02 -0.60039659349E+02 -0.17931546079E+03  0.19319524974E+03  0.47000000000E+01 0.  1.
         11    1    4    4    0    0  0.97962189856E+02 -0.77840482277E+02 -0.11766821267E+03  0.17176012225E+03  0.00000000000E+00 0. -1.
        -12    1    4    4    0    0  0.42305843061E+02 -0.17097375086E+02  0.84353057704E+01  0.46403221606E+02  0.00000000000E+00 0.  1.
</event>
<event>
12    1  0.1035051E+000  0.3376773E+03  0.7818608E-02  0.1067796E+00
         21   -1    0    0  503  502  0.00000000000E+00  0.00000000000E+00  0.47662177151E+03  0.47662177151E+03  0.00000000000E+00 0.  1.
         21   -1    0    0  501  503 -0.00000000000E+00 -0.00000000000E+00 -0.23921952208E+03  0.23921952208E+03  0.00000000000E+00 0.  1.
          6    2    1    2  501    0 -0.23948682846E+03  0.16475357755E+03  0.11514473623E+03  0.35676919305E+03  0.17183790185E+03 0.  0.
         24    2    3    3    0    0 -0.14363387154E+03  0.27151395446E+02  0.40865297045E+02  0.17329801015E+03  0.83632173785E+02 0.  0.
         -6    2    1    2    0  502  0.23948682846E+03 -0.16475357755E+03  0.12225751320E+03  0.35907210053E+03  0.17172126113E+03 0.  0.
        -24    2    5    5    0    0  0.12720583916E+03 -0.16750948849E+03  0.79599542118E+02  0.23883729650E+03  0.80414008996E+02 0.  0.
          5    1    3    3  501    0 -0.95852956919E+02  0.13760218211E+03  0.74279439183E+02  0.18347118290E+03  0.47000000000E+01 0. -1.
        -13    1    4    4    0    0 -0.93685136597E+02  0.57364271906E+01 -0.15350882091E+02  0.95107628491E+02  0.00000000000E+00 0.  1.
         14    1    4    4    0    0 -0.49948734942E+02  0.21414968255E+02  0.56216179136E+02  0.78190381661E+02  0.00000000000E+00 0. -1.
         -5    1    5    5    0  502  0.11228098930E+03  0.27559109428E+01  0.42657971082E+02  0.12023480403E+03  0.47000000000E+01 0.  1.
         11    1    6    6    0    0  0.53572622019E+02 -0.13380592484E+03  0.48093394567E+02  0.15194415406E+03  0.00000000000E+00 0. -1.
        -12    1    6    6    0    0  0.73633217140E+02 -0.33703563651E+02  0.31506147551E+02  0.86893142437E+02  0.00000000000E+00 0.  1.
</event>
<event>
12    1  0.1035051E+000  0.2280673E+03  0.7818608E-02  0.1128096E+00
         21   -1    0    0  503  502  0.00000000000E+00  0.00000000000E+00  0.31544906465E+02  0.31544906465E+02  0.00000000000E+00 0. -1.
         21   -1    0    0  501  503 -0.00000000000E+00 -0.00000000000E+00 -0.16479178477E+04  0.16479178477E+04  0.00000000000E+00 0. -1.
          6    2    1    2  501    0 -0.11532389013E+03  0.95066703631E+02 -0.84236627773E+03  0.87269447952E+03  0.17227138748E+03 0.  0.
         24    2    3    3    0    0 -0.43578927346E+02  0.16764580426E+02 -0.60354170355E+03  0.61127942751E+03  0.84969267999E+02 0.  0.
         -6    2    1    2    0  502  0.11532389013E+03 -0.95066703631E+02 -0.77400666349E+03  0.80676827464E+03  0.17161426532E+03 0.  0.
        -24    2    5    5    0    0  0.97616915166E+02 -0.17187831347E+02 -0.31643341562E+03  0.34225344939E+03  0.84751598354E+02 0.  0.
          5    1    3    3  501    0 -0.71744962784E+02  0.78302123205E+02 -0.23882457418E+03  0.26141505201E+03  0.47000000000E+01 0. -1.
        -13    1    4    4    0    0 -0.40272572085E+02  0.15534917966E+02 -0.60563911125E+03  0.60717538390E+03  0.00000000000E+00 0.  1.
         14    1    4    4    0    0 -0.33063552616E+01  0.12296624600E+01  0.20974076992E+01  0.41040436082E+01  0.00000000000E+00 0. -1.
         -5    1    5    5    0  502  0.17706974964E+02 -0.77878872284E+02 -0.45757324788E+03  0.46451482526E+03  0.47000000000E+01 0.  1.
         13    1    6    6    0    0  0.10670795119E+03 -0.21739772610E+02 -0.22197108725E+03  0.24724556241E+03  0.00000000000E+00 0. -1.
        -14    1    6    6    0    0 -0.90910360245E+01  0.45519412624E+01 -0.94462328371E+02  0.95007886971E+02  0.00000000000E+00 0.  1.
</event>
<event>
12    1  0.1035051E+000  0.1902622E+03  0.7818608E-02  0.1158398E+00
         21   -1    0    0  501  502  0.00000000000E+00  0.00000000000E+00  0.19552726429E+03  0.19552726429E+03  0.00000000000E+00 0.  1.
         21   -1    0    0  502  503 -0.00000000000E+00 -0.00000000000E+00 -0.24730676982E+03  0.24730676982E+03  0.00000000000E+00 0.  1.
         -6    2    1    2    0  503  0.63793591890E+02  0.52294107249E+02  0.85826015353E+02  0.20802562806E+03  0.17059970984E+03 0.  0.
        -24    2    3    3    0    0  0.10323484215E+03  0.18140612160E+02  0.38473397477E+02  0.13741094213E+03  0.80094008888E+02 0.  0.
          6    2    1    2  501    0 -0.63793591890E+02 -0.52294107249E+02 -0.13760552088E+03  0.23480840605E+03  0.17145090305E+03 0.  0.
         24    2    5    5    0    0 -0.92562433042E+02 -0.75039500048E+02 -0.13622383531E+03  0.19780843078E+03  0.79828011392E+02 0.  0.
          5    1    5    5  501    0  0.28768841152E+02  0.22745392799E+02 -0.13816855666E+01  0.36999975267E+02  0.47000000000E+01 0. -1.
        -13    1    6    6    0    0 -0.22197655114E+02 -0.67900031753E+02 -0.81549888959E+02  0.10841371958E+03  0.00000000000E+00 0.  1.
         14    1    6    6    0    0 -0.70364777928E+02 -0.71394682947E+01 -0.54673946356E+02  0.89394711199E+02  0.00000000000E+00 0. -1.
         -5    1    3    3    0  503 -0.39441250262E+02  0.34153495089E+02  0.47352617876E+02  0.70614685928E+02  0.47000000000E+01 0.  1.
         11    1    4    4    0    0  0.40231763462E+02 -0.31601668510E+02  0.20737543501E+02  0.55202408954E+02  0.00000000000E+00 0. -1.
        -12    1    4    4    0    0  0.63003078691E+02  0.49742280669E+02  0.17735853976E+02  0.82208533176E+02  0.00000000000E+00 0.  1.
</event>
<event>
12    1  0.1035051E+000  0.2995453E+03  0.7818608E-02  0.1086234E+00
         21   -1    0    0  503  502  0.00000000000E+00  0.00000000000E+00  0.51008656414E+03  0.51008656414E+03  0.00000000000E+00 0.  1.
         21   -1    0    0  501  503 -0.00000000000E+00 -0.00000000000E+00 -0.17465013569E+03  0.17465013569E+03  0.00000000000E+00 0.  1.
          6    2    1    2  501    0 -0.23725991293E+03 -0.19740828455E+02  0.20852940183E+03  0.36498205207E+03  0.18178399356E+03 0.  0.
         24    2    3    3    0    0 -0.52782859944E+02 -0.19003708573E+02  0.12888723304E+03  0.16399127747E+03  0.84463299735E+02 0.  0.
         -6    2    1    2    0  502  0.23725991293E+03  0.19740828455E+02  0.12690702661E+03  0.31975464775E+03  0.17162655610E+03 0.  0.
        -24    2    5    5    0    0  0.14383123974E+03  0.16918536577E+02  0.42316655426E+01  0.16545553395E+03  0.79899714117E+02 0.  0.
          5    1    3    3  501    0 -0.18447705299E+03 -0.73711988243E+00  0.79642168793E+02  0.20099077460E+03  0.47000000000E+01 0. -1.
        -13    1    4    4    0    0  0.86103105034E+00 -0.15276885124E+02 -0.77512760060E+01  0.17152459686E+02  0.00000000000E+00 0.  1.
         14    1    4    4    0    0 -0.53643890994E+02 -0.37268234490E+01  0.13663850905E+03  0.14683881778E+03  0.00000000000E+00 0. -1.
         -5    1    5    5    0  502  0.93428673196E+02  0.28222918780E+01  0.12267536107E+03  0.15429911380E+03  0.47000000000E+01 0.  1.
         13    1    6    6    0    0  0.12842702246E+03  0.32483585989E+02  0.25528247799E+02  0.13490876507E+03  0.00000000000E+00 0. -1.
        -14    1    6    6    0    0  0.15404217279E+02 -0.15565049412E+02 -0.21296582256E+02  0.30546768880E+02  0.00000000000E+00 0.  1.
</event>
<event>
12    1  0.1035051E+000  0.2228752E+03  0.7818608E-02  0.1132209E+00
         21   -1    0    0  503  502  0.00000000000E+00  0.00000000000E+00  0.10274923338E+03  0.10274923338E+03  0.00000000000E+00 0.  1.
         21   -1    0    0  501  503 -0.00000000000E+00 -0.00000000000E+00 -0.59858511902E+03  0.59858511902E+03  0.00000000000E+00 0.  1.
          6    2    1    2  501    0  0.56118526376E+02 -0.12765218681E+03 -0.89524836596E+02  0.23791012672E+03  0.17071075604E+03 0.  0.
         24    2    3    3    0    0  0.23669100997E+02 -0.13674198558E+03 -0.19337661956E+02  0.15991064510E+03  0.77064079078E+02 0.  0.
         -6    2    1    2    0  502 -0.56118526376E+02  0.12765218681E+03 -0.40631104904E+03  0.46342422568E+03  0.17386481696E+03 0.  0.
        -24    2    5    5    0    0 -0.48518574473E+02  0.90515046777E+02 -0.40478318574E+03  0.42519660733E+03  0.79973130850E+02 0.  0.
          5    1    3    3  501    0  0.32449425379E+02  0.90897987643E+01 -0.70187174640E+02  0.77999481620E+02  0.47000000000E+01 0. -1.
        -13    1    4    4    0    0  0.37949648826E+02 -0.41413917783E+02 -0.28674825155E+02  0.63067694026E+02  0.00000000000E+00 0.  1.
         14    1    4    4    0    0 -0.14280547829E+02 -0.95328067792E+02  0.93371631993E+01  0.96842951070E+02  0.00000000000E+00 0. -1.
         -5    1    5    5    0  502 -0.75999519027E+01  0.37137140034E+02 -0.15278632948E+01  0.38227618354E+02  0.47000000000E+01 0.  1.
         13    1    6    6    0    0 -0.35277524592E+02  0.35550054621E+01 -0.63168522644E+02  0.72438967815E+02  0.00000000000E+00 0. -1.
        -14    1    6    6    0    0 -0.13241049881E+02  0.86960041315E+02 -0.34161466310E+03  0.35275763951E+03  0.00000000000E+00 0.  1.
</event>
<event>
12    1  0.1035051E+000  0.2012931E+03  0.7818608E-02  0.1148961E+00
         21   -1    0    0  503  502  0.00000000000E+00  0.00000000000E+00  0.11112448862E+04  0.11112448862E+04  0.00000000000E+00 0.  1.
         21   -1    0    0  501  503 -0.00000000000E+00 -0.00000000000E+00 -0.41093499925E+02  0.41093499925E+02  0.00000000000E+00 0.  1.
          6    2    1    2  501    0  0.37996771971E+02 -0.95036958084E+02  0.33447698529E+03  0.38962236627E+03  0.17162446367E+03 0.  0.
         24    2    3    3    0    0  0.34193049540E+02 -0.38807651376E+02  0.67807593360E+02  0.11702218683E+03  0.80131916563E+02 0.  0.
         -6    2    1    2    0  502 -0.37996771971E+02  0.95036958084E+02  0.73567440101E+03  0.76271601988E+03  0.17332952603E+03 0.  0.
        -24    2    5    5    0    0 -0.10282396275E+02  0.77389894030E+02  0.22608203336E+03  0.25204393658E+03  0.79486708250E+02 0.  0.
          5    1    3    3  501    0  0.38037224311E+01 -0.56229306707E+02  0.26666939193E+03  0.27260017943E+03  0.47000000000E+01 0. -1.
        -11    1    4    4    0    0  0.19181772082E+02  0.22740011548E+02  0.34127521102E+02  0.45274012435E+02  0.00000000000E+00 0.  1.
         12    1    4    4    0    0  0.15011277458E+02 -0.61547662924E+02  0.33680072258E+02  0.71748174399E+02  0.00000000000E+00 0. -1.
         -5    1    5    5    0  502 -0.27714375697E+02  0.17647064053E+02  0.50959236765E+03  0.51067208330E+03  0.47000000000E+01 0.  1.
         11    1    6    6    0    0 -0.39385392084E+02  0.19983502562E+02  0.12110927885E+03  0.12891084868E+03  0.00000000000E+00 0. -1.
        -12    1    6    6    0    0  0.29102995810E+02  0.57406391469E+02  0.10497275451E+03  0.12313308790E+03  0.00000000000E+00 0.  1.
</event>
<event>
12    1  0.1035051E+000  0.2195355E+03  0.7818608E-02  0.1134312E+00
         21   -1    0    0  503  502  0.00000000000E+00  0.00000000000E+00  0.92860611057E+02  0.92860611057E+02  0.00000000000E+00 0.  1.
         21   -1    0    0  501  503 -0.00000000000E+00 -0.00000000000E+00 -0.87628187481E+03  0.87628187481E+03  0.00000000000E+00 0.  1.
          6    2    1    2  501    0 -0.11337356187E+03  0.73042027093E+02 -0.81617444979E+02  0.23380279748E+03  0.17266626345E+03 0.  0.
         24    2    3    3    0    0  0.14544278262E+02  0.34261118387E+02 -0.65593817650E+02  0.99096526893E+02  0.64282287335E+02 0.  0.
         -6    2    1    2    0  502  0.11337356187E+03 -0.73042027093E+02 -0.70180381878E+03  0.73533968839E+03  0.17322573427E+03 0.  0.
        -24    2    5    5    0    0  0.12007255597E+02 -0.75758903673E+02 -0.31680643673E+03  0.33718446281E+03  0.86275477042E+02 0.  0.
          5    1    3    3  501    0 -0.12791784013E+03  0.38780908705E+02 -0.16023627329E+02  0.13470627059E+03  0.47000000000E+01 0. -1.
        -13    1    4    4    0    0  0.33604219182E+02  0.10857352126E+02 -0.58110408535E+02  0.67999597220E+02  0.00000000000E+00 0.  1.
         14    1    4    4    0    0 -0.19059940920E+02  0.23403766262E+02 -0.74834091145E+01  0.31096929673E+02  0.00000000000E+00 0. -1.
         -5    1    5    5    0  502  0.10136630627E+03  0.27168765801E+01 -0.38499738205E+03  0.39815522557E+03  0.47000000000E+01 0.  1.
         13    1    6    6    0    0  0.42571368377E+02 -0.13295698869E+02 -0.99900733809E+02  0.10940408415E+03  0.00000000000E+00 0. -1.
        -14    1    6    6    0    0 -0.30564112780E+02 -0.62463204804E+02 -0.21690570292E+03  0.22778037866E+03  0.00000000000E+00 0.  1.
</event>
<event>
12    1  0.1035051E+000  0.1733305E+03  0.7818608E-02  0.1175163E+00
         21   -1    0    0  501  502  0.00000000000E+00  0.00000000000E+00  0.35319721695E+03  0.35319721695E+03  0.00000000000E+00 0. -1.
         21   -1    0    0  502  503 -0.00000000000E+00 -0.00000000000E+00 -0.84866575867E+02  0.84866575867E+02  0.00000000000E+00 0. -1.
         -6    2    1    2    0  503  0.13841511917E+02  0.72073080525E+01  0.15935505224E+03  0.23332212781E+03  0.16971048850E+03 0.  0.
        -24    2    3    3    0    0  0.48635509887E+02  0.54680938027E+02  0.12181992407E+03  0.16335539511E+03  0.80557267862E+02 0.  0.
          6    2    1    2  501    0 -0.13841511917E+02 -0.72073080525E+01  0.10897558884E+03  0.20474166501E+03  0.17262658453E+03 0.  0.
         24    2    5    5    0    0 -0.53401430916E+02  0.29699321101E+02  0.22748138563E+02  0.10283803579E+03  0.79526230259E+02 0.  0.
          5    1    5    5  501    0  0.39559918999E+02 -0.36906629154E+02  0.86227450279E+02  0.10190362922E+03  0.47000000000E+01 0. -1.
        -13    1    6    6    0    0 -0.11685296806E+02 -0.16856879177E+02  0.33625026986E+02  0.39387091500E+02  0.00000000000E+00 0.  1.
         14    1    6    6    0    0 -0.41716134110E+02  0.46556200278E+02 -0.10876888423E+02  0.63450944290E+02  0.00000000000E+00 0. -1.
         -5    1    3    3    0  503 -0.34793997969E+02 -0.47473629974E+02  0.37535128169E+02  0.69966732697E+02  0.47000000000E+01 0.  1.
         13    1    4    4    0    0 -0.14014743118E+02 -0.85612252915E+01  0.64744246565E+01  0.17652925474E+02  0.00000000000E+00 0. -1.
        -14    1    4    4    0    0  0.62650253005E+02  0.63242163318E+02  0.11534549942E+03  0.14570246964E+03  0.00000000000E+00 0.  1.
</event>
<event>
12    1  0.1035051E+000  0.2152540E+03  0.7818608E-02  0.1137681E+00
         21   -1    0    0  501  502  0.00000000000E+00  0.00000000000E+00  0.24140908817E+03  0.24140908817E+03  0.00000000000E+00 0.  1.
         21   -1    0    0  502  503 -0.00000000000E+00 -0.00000000000E+00 -0.23449857145E+03  0.23449857145E+03  0.00000000000E+00 0.  1.
         -6    2    1    2    0  503  0.81215622033E+02  0.10016569883E+03 -0.99082653368E+02  0.23597255139E+03  0.17098692444E+03 0.  0.
        -24    2    3    3    0    0  0.11053643739E+03  0.32272561577E+02 -0.70792207822E+02  0.15665277071E+03  0.79175322288E+02 0.  0.
          6    2    1    2  501    0 -0.81215622033E+02 -0.10016569883E+03  0.10599317009E+03  0.23993510823E+03  0.17235184818E+03 0.  0.
         24    2    5    5    0    0 -0.10220559410E+02 -0.28674698860E+02 -0.10060054992E+02  0.86176521329E+02  0.79990561522E+02 0.  0.
          5    1    5    5  501    0 -0.70995062623E+02 -0.71490999969E+02  0.11605322508E+03  0.15375858690E+03  0.47000000000E+01 0. -1.
        -13    1    6    6    0    0 -0.43328105342E+02 -0.24825585236E+02  0.37964884763E+01  0.50080412534E+02  0.00000000000E+00 0.  1.
         14    1    6    6    0    0  0.33107545932E+02 -0.38491136244E+01 -0.13856543468E+02  0.36096108796E+02  0.00000000000E+00 0. -1.
         -5    1    3    3    0  503 -0.29320815359E+02  0.67893137252E+02 -0.28290445546E+02  0.79319780688E+02  0.47000000000E+01 0.  1.
         11    1    4    4    0    0  0.27637169309E+02  0.37514615333E+02  0.13764613031E+01  0.46616028753E+02  0.00000000000E+00 0. -1.
        -12    1    4    4    0    0  0.82899268083E+02 -0.52420537556E+01 -0.72168669125E+02  0.11003674195E+03  0.00000000000E+00 0.  1.
</event>
<event>
12    1  0.1035051E+000  0.1779421E+03  0.7818608E-02  0.1170281E+00
         21   -1    0    0  501  502  0.00000000000E+00  0.00000000000E+00  0.15021897969E+03  0.15021897969E+03  0.00000000000E+00 0.  1.
         21   -1    0    0  502  503 -0.00000000000E+00 -0.00000000000E+00 -0.22499514341E+03  0.22499514341E+03  0.00000000000E+00 0.  1.
         -6    2    1    2    0  503 -0.91721724710E+01 -0.37305219949E+02  0.13181253723E+02  0.17842961437E+03  0.17374571549E+03 0.  0.
        -24    2    3    3    0    0 -0.38027189939E+02  0.92112948541E+01 -0.44192156149E+02  0.98992870086E+02  0.79471545443E+02 0.  0.
          6    2    1    2  501    0  0.91721724710E+01  0.37305219949E+02 -0.87957417445E+02  0.19678450873E+03  0.17179006785E+03 0.  0.
         24    2    5    5    0    0  0.40010569228E+02 -0.55343572346E+01  0.49277837494E+01  0.89845335889E+02  0.80102600260E+02 0.  0.
          5    1    5    5  501    0 -0.30838396757E+02  0.42839577184E+02 -0.92885201195E+02  0.10693917285E+03  0.47000000000E+01 0. -1.
        -13    1    6    6    0    0 -0.18241544785E+02  0.11656893529E+02  0.17482058662E+02  0.27825518827E+02  0.00000000000E+00 0.  1.
         14    1    6    6    0    0  0.58252114014E+02 -0.17191250764E+02 -0.12554274913E+02  0.62019817063E+02  0.00000000000E+00 0. -1.
         -5    1    3    3    0  503  0.28855017468E+02 -0.46516514803E+02  0.57373409872E+02  0.79436744286E+02  0.47000000000E+01 0.  1.
         11    1    4    4    0    0 -0.11013308277E+02 -0.26581522766E+02 -0.45837684987E+02  0.54119900931E+02  0.00000000000E+00 0. -1.
        -12    1    4    4    0    0 -0.27013881661E+02  0.35792817620E+02  0.16455288381E+01  0.44872969155E+02  0.00000000000E+00 0.  1.
</event>
<event>
12    1  0.1035051E+000  0.1801231E+03  0.7818608E-02  0.1167870E+00
         21   -1    0    0  501  502  0.00000000000E+00  0.00000000000E+00  0.56954374774E+02  0.56954374774E+02  0.00000000000E+00 0.  1.
         21   -1    0    0  502  503 -0.00000000000E+00 -0.00000000000E+00 -0.63057949864E+03  0.63057949864E+03  0.00000000000E+00 0.  1.
         -6    2    1    2    0  503  0.73662095289E+01  0.49254787189E+02 -0.39631835275E+03  0.43533041509E+03  0.17310123763E+03 0.  0.
        -24    2    3    3    0    0  0.27029572576E+02  0.20236958251E+02 -0.38960017069E+03  0.39933171771E+03  0.80854161914E+02 0.  0.
          6    2    1    2  501    0 -0.73662095289E+01 -0.49254787189E+02 -0.17730677111E+03  0.25220345833E+03  0.17230379626E+03 0.  0.
         24    2    5    5    0    0  0.32338384071E+02 -0.84063188353E+02 -0.15054868296E+03  0.19282193910E+03  0.80018769889E+02 0.  0.
          5    1    5    5  501    0 -0.39704593600E+02  0.34808401164E+02 -0.26758088151E+02  0.59381519230E+02  0.47000000000E+01 0. -1.
        -11    1    6    6    0    0 -0.24882222607E+02 -0.33387027387E+02 -0.35614385550E+02  0.54792363133E+02  0.00000000000E+00 0.  1.
         12    1    6    6    0    0  0.57220606677E+02 -0.50676160966E+02 -0.11493429741E+03  0.13802957596E+03  0.00000000000E+00 0. -1.
         -5    1    3    3    0  503 -0.19663363047E+02  0.29017828938E+02 -0.67181820649E+01  0.35998697377E+02  0.47000000000E+01 0.  1.
         13    1    4    4    0    0 -0.11480513332E+02 -0.10785840935E+02 -0.15928568451E+02  0.22402139272E+02  0.00000000000E+00 0. -1.
        -14    1    4    4    0    0  0.38510085908E+02  0.31022799186E+02 -0.37367160224E+03  0.37692957844E+03  0.00000000000E+00 0.  1.
</event>
<event>
12    1  0.1035051E+000  0.2386310E+03  0.7818608E-02  0.1120832E+00
         21   -1    0    0  503  502  0.00000000000E+00  0.00000000000E+00  0.28803766295E+03  0.28803766295E+03  0.00000000000E+00 0. -1.
         21   -1    0    0  501  503 -0.00000000000E+00 -0.00000000000E+00 -0.20595027817E+03  0.20595027817E+03  0.00000000000E+00 0. -1.
          6    2    1    2  501    0 -0.14564062386E+03  0.78487815307E+02  0.92332398251E+02  0.25587115078E+03  0.17196873427E+03 0.  0.
         24    2    3    3    0    0 -0.48758958995E+02  0.69946817066E+02  0.10632566295E+03  0.15749987909E+03  0.78937139612E+02 0.  0.
         -6    2    1    2    0  502  0.14564062386E+03 -0.78487815307E+02 -0.10245013473E+02  0.23811679034E+03  0.17094770273E+03 0.  0.
        -24    2    5    5    0    0  0.25193790553E+02 -0.74416488757E+01  0.33537287660E+02  0.91508545989E+02  0.80987400903E+02 0.  0.
          5    1    3    3  501    0 -0.96881664863E+02  0.85409982409E+01 -0.13993264702E+02  0.98371271694E+02  0.47000000000E+01 0. -1.
        -13    1    4    4    0    0 -0.56008551683E+02  0.59815273817E+02  0.42193638201E+02  0.92169018374E+02  0.00000000000E+00 0.  1.
         14    1    4    4    0    0  0.72495926879E+01  0.10131543249E+02  0.64132024752E+02  0.65330860713E+02  0.00000000000E+00 0. -1.
         -5    1    5    5    0  502  0.12044683331E+03 -0.71046166431E+02 -0.43782301133E+02  0.14660824435E+03  0.47000000000E+01 0.  1.
         11    1    6    6    0    0  0.11238954383E+02 -0.13351823690E+01 -0.26898536165E+02  0.29182667037E+02  0.00000000000E+00 0. -1.
        -12    1    6    6    0    0  0.13954836170E+02 -0.61064665067E+01  0.60435823825E+02  0.62325878952E+02  0.00000000000E+00 0.  1.
</event>
<event>
12    1  0.1035051E+000  0.2488674E+03  0.7818608E-02  0.1114453E+00
         21   -1    0    0  503  502  0.00000000000E+00  0.00000000000E+00  0.41799211373E+03  0.41799211373E+03  0.00000000000E+00 0. -1.
         21   -1    0    0  501  503 -0.00000000000E+00 -0.00000000000E+00 -0.16127300726E+03  0.16127300726E+03  0.00000000000E+00 0. -1.
          6    2    1    2  501    0  0.16797077934E+03 -0.61674316006E+02  0.40288529429E+02  0.24945128445E+03  0.16907061762E+03 0.  0.
         24    2    3    3    0    0  0.50734311852E+02 -0.45020470719E+02 -0.33849369284E+02  0.10966481194E+03  0.79245050281E+02 0.  0.
         -6    2    1    2    0  502 -0.16797077934E+03  0.61674316006E+02  0.21643057704E+03  0.32981383654E+03  0.17296551138E+03 0.  0.
        -24    2    5    5    0    0 -0.13292049602E+03  0.83899195853E+02  0.94351367361E+02  0.20078712969E+03  0.81892353717E+02 0.  0.
          5    1    3    3  501    0  0.11723646749E+03 -0.16653845288E+02  0.74137898712E+02  0.13978647251E+03  0.47000000000E+01 0. -1.
        -11    1    4    4    0    0  0.45955165881E+02  0.25313578447E+01  0.72986567672E+01  0.46599951012E+02  0.00000000000E+00 0.  1.
         12    1    4    4    0    0  0.47791459703E+01 -0.47551828563E+02 -0.41148026051E+02  0.63064860927E+02  0.00000000000E+00 0. -1.
         -5    1    5    5    0  502 -0.35050283316E+02 -0.22224879846E+02  0.12207920968E+03  0.12902670685E+03  0.47000000000E+01 0.  1.
         13    1    6    6    0    0 -0.61478216736E+02  0.82757094868E+02  0.72623756520E+02  0.12610518584E+03  0.00000000000E+00 0. -1.
        -14    1    6    6    0    0 -0.71442279285E+02  0.11421009849E+01  0.21727610842E+02  0.74681943849E+02  0.00000000000E+00 0.  1.
</event>
<event>
12    1  0.1035051E+000  0.2534480E+03  0.7818608E-02  0.1111230E+00
         21   -1    0    0  501  502  0.00000000000E+00  0.00000000000E+00  0.42148523109E+03  0.42148523109E+03  0.00000000000E+00 0. -1.
         21   -1    0    0  502  503 -0.00000000000E+00 -0.00000000000E+00 -0.15383705698E+03  0.15383705698E+03  0.00000000000E+00 0. -1.
         -6    2    1    2    0  503  0.58004317144E+02  0.17462974161E+03  0.16448420220E+03  0.30168253830E+03  0.17348560078E+03 0.  0.
        -24    2    3    3    0    0  0.48032428249E+02  0.17595729275E+03  0.18902692222E+03  0.27474490540E+03  0.80532618749E+02 0.  0.
          6    2    1    2  501    0 -0.58004317144E+02 -0.17462974161E+03  0.10316397191E+03  0.27363974977E+03  0.17428671806E+03 0.  0.
         24    2    5    5    0    0 -0.23857082418E+02 -0.12042282346E+03  0.13864014110E+03  0.20025669863E+03  0.76228864827E+02 0.  0.
          5    1    5    5  501    0 -0.34147234726E+02 -0.54206918148E+02 -0.35476169183E+02  0.73383051139E+02  0.47000000000E+01 0. -1.
        -11    1    6    6    0    0  0.10501193861E+02  0.26637629652E+01  0.32099678867E+02  0.33878608132E+02  0.00000000000E+00 0.  1.
         12    1    6    6    0    0 -0.34358276279E+02 -0.12308658643E+03  0.10654046223E+03  0.16637809050E+03  0.00000000000E+00 0. -1.
         -5    1    3    3    0  503  0.99718888953E+01 -0.13275511367E+01 -0.24542720023E+02  0.26937632900E+02  0.47000000000E+01 0.  1.
         13    1    4    4    0    0  0.16775223851E+02  0.47681205519E+01  0.46977374758E+02  0.50110047375E+02  0.00000000000E+00 0. -1.
        -14    1    4    4    0    0  0.31257204398E+02  0.17118917219E+03  0.14204954746E+03  0.22463485802E+03  0.00000000000E+00 0.  1.
</event>
<event>
12    1  0.1035051E+000  0.2544981E+03  0.7818608E-02  0.1110568E+00
         21   -1    0    0  503  502  0.00000000000E+00  0.00000000000E+00  0.74394910682E+03  0.74394910682E+03  0.00000000000E+00 0.  1.
         21   -1    0    0  501  503 -0.00000000000E+00 -0.00000000000E+00 -0.11354879163E+03  0.11354879163E+03  0.00000000000E+00 0.  1.
          6    2    1    2  501    0  0.18612556321E+03 -0.23196315002E+02  0.10771638001E+03  0.27635506892E+03  0.17201311370E+03 0.  0.
         24    2    3    3    0    0  0.54809736721E+02  0.60538813430E+01 -0.86252205775E+01  0.98431269784E+02  0.81077516751E+02 0.  0.
         -6    2    1    2    0  502 -0.18612556321E+03  0.23196315002E+02  0.52268393519E+03  0.58114282954E+03  0.17131169812E+03 0.  0.
        -24    2    5    5    0    0 -0.50691051030E+02 -0.55918495292E+01  0.12532682595E+03  0.16032692232E+03  0.86006146771E+02 0.  0.
          5    1    3    3  501    0  0.13131582649E+03 -0.29250196345E+02  0.11634160058E+03  0.17792379914E+03  0.47000000000E+01 0. -1.
        -13    1    4    4    0    0 -0.76065474058E+01  0.15968934582E+02  0.21978778350E+02  0.28212286913E+02  0.00000000000E+00 0.  1.
         14    1    4    4    0    0  0.62416284127E+02 -0.99150532394E+01 -0.30603998927E+02  0.70218982870E+02  0.00000000000E+00 0. -1.
         -5    1    5    5    0  502 -0.13543451218E+03  0.28788164532E+02  0.39735710924E+03  0.42081590722E+03  0.47000000000E+01 0.  1.
         13    1    6    6    0    0 -0.11993248854E+02  0.20927417687E+02  0.10744936005E+03  0.11012338445E+03  0.00000000000E+00 0. -1.
        -14    1    6    6    0    0 -0.38697802176E+02 -0.26519267216E+02  0.17877465897E+02  0.50203537862E+02  0.00000000000E+00 0.  1.
</event>
<event>
12    1  0.1035051E+000  0.3610489E+03  0.7818608E-02  0.1058257E+00
         21   -1    0    0  501  502  0.00000000000E+00  0.00000000000E+00  0.21785962074E+03  0.21785962074E+03  0.00000000000E+00 0.  1.
         21   -1    0    0  502  503 -0.00000000000E+00 -0.00000000000E+00 -0.11233744419E+04  0.11233744419E+04  0.00000000000E+00 0.  1.
         -6    2    1    2    0  503 -0.30546905197E+03  0.87288015795E+02 -0.91215847660E+03  0.98101446507E+03  0.17153936819E+03 0.  0.
        -24    2    3    3    0    0 -0.11430072684E+03  0.62953432168E+02 -0.25937760206E+03  0.30036590623E+03  0.76909988924E+02 0.  0.
          6    2    1    2  501    0  0.30546905197E+03 -0.87288015795E+02  0.66436554823E+01  0.36021959751E+03  0.16965695052E+03 0.  0.
         24    2    5    5    0    0  0.14558659093E+03 -0.74338184411E+02 -0.52173923120E+02  0.18930530018E+03  0.79954720318E+02 0.  0.
          5    1    5    5  501    0  0.15988246104E+03 -0.12949831384E+02  0.58817578602E+02  0.17091429734E+03  0.47000000000E+01 0. -1.
        -11    1    6    6    0    0  0.79263591066E+02 -0.55396065831E+02 -0.68398985134E+02  0.11844771904E+03  0.00000000000E+00 0.  1.
         12    1    6    6    0    0  0.66322999866E+02 -0.18942118580E+02  0.16225062014E+02  0.70857581139E+02  0.00000000000E+00 0. -1.
         -5    1    3    3    0  503 -0.19116832513E+03  0.24334583627E+02 -0.65278087454E+03  0.68064855885E+03  0.47000000000E+01 0.  1.
         13    1    4    4    0    0 -0.45475860529E+02  0.35278467648E+02 -0.19098261625E+03  0.19946674881E+03  0.00000000000E+00 0. -1.
        -14    1    4    4    0    0 -0.68824866311E+02  0.27674964520E+02 -0.68394985804E+02  0.10089915742E+03  0.00000000000E+00 0.  1.
</event>
<event>
12    1  0.1035051E+000  0.2473851E+03  0.7818608E-02  0.1115047E+00
         21   -1    0    0  503  502  0.00000000000E+00  0.00000000000E+00  0.16779027235E+03  0.16779027235E+03  0.00000000000E+00 0. -1.
         21   -1    0    0  501  503 -0.00000000000E+00 -0.00000000000E+00 -0.37053440102E+03  0.37053440102E+03  0.00000000000E+00 0. -1.
          6    2    1    2  501    0  0.11412603483E+03 -0.13735469395E+03 -0.65771239323E+02  0.25597902749E+03  0.17119679558E+03 0.  0.
         24    2    3    3    0    0  0.16376270315E+02 -0.91066267994E+02 -0.81309089704E+02  0.14661198659E+03  0.79515150437E+02 0.  0.
         -6    2    1    2    0  502 -0.11412603483E+03  0.13735469395E+03 -0.13697288934E+03  0.28234564588E+03  0.17048879011E+03 0.  0.
        -24    2    5    5    0    0 -0.11663052864E+02  0.15940062181E+02 -0.76775617139E+02  0.11238689481E+03  0.79663080247E+02 0.  0.
          5    1    3    3  501    0  0.97749764516E+02 -0.46288425959E+02  0.15537850381E+02  0.10936704090E+03  0.47000000000E+01 0. -1.
        -11    1    4    4    0    0  0.41203078058E+02 -0.18718738937E+02 -0.25688594120E+02  0.52038338720E+02  0.00000000000E+00 0.  1.
         12    1    4    4    0    0 -0.24826807743E+02 -0.72347529057E+02 -0.55620495583E+02  0.94573647875E+02  0.00000000000E+00 0. -1.
         -5    1    5    5    0  502 -0.10246298197E+03  0.12141463177E+03 -0.60197272200E+02  0.16995875106E+03  0.47000000000E+01 0.  1.
         11    1    6    6    0    0  0.23309908663E+02 -0.19747334136E+02 -0.18890930822E+02  0.35919024412E+02  0.00000000000E+00 0. -1.
        -12    1    6    6    0    0 -0.34972961528E+02  0.35687396317E+02 -0.57884686317E+02  0.76467870402E+02  0.00000000000E+00 0.  1.
</event>
<event>
12    1  0.1035051E+000  0.2059660E+03  0.7818608E-02  0.1144958E+00
         21   -1    0    0  501  502  0.00000000000E+00  0.00000000000E+00  0.18834324332E+03  0.18834324332E+03  0.00000000000E+00 0.  1.
         21   -1    0    0  502  503 -0.00000000000E+00 -0.00000000000E+00 -0.25856285795E+03  0.25856285795E+03  0.00000000000E+00 0.  1.
         -6    2    1    2    0  503  0.97548866701E+02  0.57247736412E+02 -0.11628528181E+03  0.23585155991E+03  0.17120340775E+03 0.  0.
        -24    2    3    3    0    0 -0.11931933949E+02  0.43520870485E+02 -0.34026586100E+02  0.98145149094E+02  0.80238547554E+02 0.  0.
          6    2    1    2  501    0 -0.97548866701E+02 -0.57247736412E+02  0.46065667178E+02  0.21105454137E+03  0.17213044188E+03 0.  0.
         24    2    5    5    0    0  0.17563969194E+02 -0.19977857108E+02  0.37654943538E+02  0.89675633966E+02  0.76916947196E+02 0.  0.
          5    1    5    5  501    0 -0.11511283590E+03 -0.37269879303E+02  0.84107236401E+01  0.12137890741E+03  0.47000000000E+01 0. -1.
        -11    1    6    6    0    0  0.35633682725E+02  0.14247816456E+02  0.43624854803E+01  0.38623709012E+02  0.00000000000E+00 0.  1.
         12    1    6    6    0    0 -0.18069713530E+02 -0.34225673565E+02  0.33292458057E+02  0.51051924954E+02  0.00000000000E+00 0. -1.
         -5    1    3    3    0  503  0.10948080065E+03  0.13726865927E+02 -0.82258695708E+02  0.13770641081E+03  0.47000000000E+01 0.  1.
         13    1    4    4    0    0 -0.16713734134E+02  0.52834680790E+02  0.69525684878E+01  0.55849714516E+02  0.00000000000E+00 0. -1.
        -14    1    4    4    0    0  0.47818001851E+01 -0.93138103057E+01 -0.40979154588E+02  0.42295434579E+02  0.00000000000E+00 0.  1.
</event>
<event>
12    1  0.1035051E+000  0.1821403E+03  0.7818608E-02  0.1165892E+00
         21   -1    0    0  503  502  0.00000000000E+00  0.00000000000E+00  0.88395140819E+02  0.88395140819E+02  0.00000000000E+00 0.  1.
         21   -1    0    0  501  503 -0.00000000000E+00 -0.00000000000E+00 -0.37449255682E+03  0.37449255682E+03  0.00000000000E+00 0.  1.
          6    2    1    2  501    0 -0.85446087670E+00  0.57157439719E+02 -0.15112372957E+03  0.23667163079E+03  0.17293749207E+03 0.  0.
         24    2    3    3    0    0 -0.71560693582E+01  0.69897731038E+02 -0.22446659909E+02  0.10712664421E+03  0.77687600200E+02 0.  0.
         -6    2    1    2    0  502  0.85446087670E+00 -0.57157439719E+02 -0.13497368643E+03  0.22621606685E+03  0.17230237913E+03 0.  0.
        -24    2    5    5    0    0 -0.22890174170E+02 -0.19320172782E+02 -0.91758346337E+00  0.84835038400E+02  0.79365689256E+02 0.  0.
          5    1    3    3  501    0  0.63016084815E+01 -0.12740291319E+02 -0.12867706966E+03  0.12954498658E+03  0.47000000000E+01 0. -1.
        -13    1    4    4    0    0 -0.29014037499E+02  0.53374904973E+00  0.48979795498E+01  0.29429397950E+02  0.00000000000E+00 0.  1.
         14    1    4    4    0    0  0.21857968141E+02  0.69363981989E+02 -0.27344639459E+02  0.77697246256E+02  0.00000000000E+00 0. -1.
         -5    1    5    5    0  502  0.23744635047E+02 -0.37837266937E+02 -0.13405610297E+03  0.14138102845E+03  0.47000000000E+01 0.  1.
         13    1    6    6    0    0 -0.16576705498E+02 -0.41708518533E+02  0.23876161382E+02  0.50837572383E+02  0.00000000000E+00 0. -1.
        -14    1    6    6    0    0 -0.63134686723E+01  0.22388345752E+02 -0.24793744845E+02  0.33997466018E+02  0.00000000000E+00 0.  1.
</event>
<event>
12    1  0.1035051E+000  0.3043340E+03  0.7818608E-02  0.1083128E+00
         21   -1    0    0  501  502  0.00000000000E+00  0.00000000000E+00  0.38043282312E+03  0.38043282312E+03  0.00000000000E+00 0.  1.
         21   -1    0    0  502  503 -0.00000000000E+00 -0.00000000000E+00 -0.24702724592E+03  0.24702724592E+03  0.00000000000E+00 0.  1.
         -6    2    1    2    0  503  0.18008204020E+03 -0.17522124224E+03  0.27854695720E+02  0.30560606123E+03  0.17171824496E+03 0.  0.
        -24    2    3    3    0    0  0.86421794704E+02 -0.87372230337E+02  0.78414039632E+02  0.16751903166E+03  0.82530183103E+02 0.  0.
          6    2    1    2  501    0 -0.18008204020E+03  0.17522124224E+03  0.10555088148E+03  0.32185400780E+03  0.17122204537E+03 0.  0.
         24    2    5    5    0    0 -0.16099386183E+02  0.40162396565E+02  0.39711172979E+02  0.99394663582E+02  0.80187988851E+02 0.  0.
          5    1    5    5  501    0 -0.16398265402E+03  0.13505884568E+03  0.65839708500E+02  0.22245934422E+03  0.47000000000E+01 0. -1.
        -13    1    6    6    0    0  0.25576974258E+02  0.14874244390E+02 -0.85494687684E+01  0.30798022251E+02  0.00000000000E+00 0.  1.
         14    1    6    6    0    0 -0.41676360442E+02  0.25288152175E+02  0.48260641747E+02  0.68596641331E+02  0.00000000000E+00 0. -1.
         -5    1    3    3    0  503  0.93660245496E+02 -0.87849011907E+02 -0.50559343912E+02  0.13808702957E+03  0.47000000000E+01 0.  1.
         11    1    4    4    0    0  0.53599400167E+02 -0.97788062137E+02  0.47378053031E+02  0.12116138289E+03  0.00000000000E+00 0. -1.
        -12    1    4    4    0    0  0.32822394537E+02  0.10415831800E+02  0.31035986601E+02  0.46357648770E+02  0.00000000000E+00 0.  1.
</event>
<event>
12    1  0.1035051E+000  0.1901237E+03  0.7818608E-02  0.1158885E+00
         21   -1    0    0  503  502  0.00000000000E+00  0.00000000000E+00  0.44926877981E+03  0.44926877981E+03  0.00000000000E+00 0.  1.
         21   -1    0    0  501  503 -0.00000000000E+00 -0.00000000000E+00 -0.86530313568E+02  0.86530313568E+02  0.00000000000E+00 0.  1.
          6    2    1    2  501    0 -0.35502357403E+02 -0.67906014654E+02  0.10376671166E+03  0.21453065998E+03  0.17141828787E+03 0.  0.
         24    2    3    3    0    0 -0.29862434055E+01 -0.38676927058E+02 -0.13596849108E+02  0.89199368485E+02  0.79163316607E+02 0.  0.
         -6    2    1    2    0  502  0.35502357403E+02  0.67906014654E+02  0.25897175458E+03  0.32126843340E+03  0.17399825407E+03 0.  0.
        -24    2    5    5    0    0 -0.40561594042E+02  0.68005664656E+02  0.13673600670E+03  0.17722190376E+03  0.80254933238E+02 0.  0.
          5    1    3    3  501    0 -0.32516113997E+02 -0.29229087596E+02  0.11736356077E+03  0.12533129150E+03  0.47000000000E+01 0. -1.
        -11    1    4    4    0    0 -0.24926820186E+02 -0.30569009052E+02 -0.38440475244E+02  0.55077044365E+02  0.00000000000E+00 0.  1.
         12    1    4    4    0    0  0.21940576780E+02 -0.81079180059E+01  0.24843626135E+02  0.34122324121E+02  0.00000000000E+00 0. -1.
         -5    1    5    5    0  502  0.76063951445E+02 -0.99650002254E-01  0.12223574788E+03  0.14404652964E+03  0.47000000000E+01 0.  1.
         11    1    6    6    0    0 -0.34161911619E+02  0.83267395126E+02  0.13243406237E+03  0.16012269100E+03  0.00000000000E+00 0. -1.
        -12    1    6    6    0    0 -0.63996824236E+01 -0.15261730470E+02  0.43019443224E+01  0.17099212760E+02  0.00000000000E+00 0.  1.
</event>
<event>
12    1  0.1035051E+000  0.2022092E+03  0.7818608E-02  0.1148117E+00
         21   -1    0    0  501  502  0.00000000000E+00  0.00000000000E+00  0.36496704395E+02  0.36496704395E+02  0.00000000000E+00 0. -1.
         21   -1    0    0  502  503 -0.00000000000E+00 -0.00000000000E+00 -0.11167510428E+04  0.11167510428E+04  0.00000000000E+00 0. -1.
         -6    2    1    2    0  503 -0.63112622548E+02  0.84187987319E+02 -0.56582821553E+03  0.60050656325E+03  0.17139353164E+03 0.  0.
        -24    2    3    3    0    0 -0.46972189343E+02 -0.18079070148E+02 -0.22286506727E+03  0.24222612045E+03  0.80445110930E+02 0.  0.
          6    2    1    2  501    0  0.63112622548E+02 -0.84187987319E+02 -0.51442612287E+03  0.55274118394E+03  0.17267819838E+03 0.  0.
         24    2    5    5    0    0  0.72015429185E+02 -0.46679183218E+02 -0.17215610483E+03  0.20827489298E+03  0.79846968832E+02 0.  0.
          5    1    5    5  501    0 -0.89028066369E+01 -0.37508804101E+02 -0.34227001805E+03  0.34446629096E+03  0.47000000000E+01 0. -1.
        -11    1    6    6    0    0  0.32228873936E+02 -0.65016789761E+02 -0.94941202775E+02  0.11949776253E+03  0.00000000000E+00 0.  1.
         12    1    6    6    0    0  0.39786555249E+02  0.18337606543E+02 -0.77214902050E+02  0.88777130450E+02  0.00000000000E+00 0. -1.
         -5    1    3    3    0  503 -0.16140433205E+02  0.10226705747E+03 -0.34296314826E+03  0.35828044280E+03  0.47000000000E+01 0.  1.
         11    1    4    4    0    0 -0.12324800382E+02 -0.14738794410E+02 -0.19922524411E+03  0.20014952075E+03  0.00000000000E+00 0. -1.
        -12    1    4    4    0    0 -0.34647388960E+02 -0.33402757387E+01 -0.23639823157E+02  0.42076599704E+02  0.00000000000E+00 0.  1.
</event>
<event>
12    1  0.1035051E+000  0.2141877E+03  0.7818608E-02  0.1139479E+00
         21   -1    0    0  503  502  0.00000000000E+00  0.00000000000E+00  0.20745695723E+03  0.20745695723E+03  0.00000000000E+00 0.  1.
         21   -1    0    0  501  503 -0.00000000000E+00 -0.00000000000E+00 -0.41348644799E+03  0.41348644799E+03  0.00000000000E+00 0.  1.
          6    2    1    2  501    0  0.19884862620E+02 -0.11713391189E+03  0.11135300485E+03  0.24140393717E+03  0.17821506141E+03 0.  0.
         24    2    3    3    0    0  0.38416530312E+02 -0.11239920190E+03  0.16099000794E+02  0.14413495200E+03  0.80039341404E+02 0.  0.
         -6    2    1    2    0  502 -0.19884862620E+02  0.11713391189E+03 -0.31738249561E+03  0.37953946804E+03  0.17088826234E+03 0.  0.
        -24    2    5    5    0    0  0.26305192384E+02  0.59820926480E+02 -0.81629133727E+02  0.13251712671E+03  0.81406185310E+02 0.  0.
          5    1    3    3  501    0 -0.18531667693E+02 -0.47347099901E+01  0.95254004058E+02  0.97268985166E+02  0.47000000000E+01 0. -1.
        -11    1    4    4    0    0  0.44759431005E+02 -0.22606332108E+02 -0.84023957479E+01  0.50843418153E+02  0.00000000000E+00 0.  1.
         12    1    4    4    0    0 -0.63429006922E+01 -0.89792869796E+02  0.24501396542E+02  0.93291533849E+02  0.00000000000E+00 0. -1.
         -5    1    5    5    0  502 -0.46190055004E+02  0.57312985414E+02 -0.23575336189E+03  0.24702234134E+03  0.47000000000E+01 0.  1.
         13    1    6    6    0    0  0.55177186072E+02  0.31965855011E+02 -0.43678610400E+02  0.77292682421E+02  0.00000000000E+00 0. -1.
        -14    1    6    6    0    0 -0.28871993688E+02  0.27855071469E+02 -0.37950523327E+02  0.55224444287E+02  0.00000000000E+00 0.  1.
</event>
<event>
12    1  0.1035051E+000  0.1732254E+03  0.7818608E-02  0.1174838E+00
         21   -1    0    0  503  502  0.00000000000E+00  0.00000000000E+00  0.31740353240E+02  0.31740353240E+02  0.00000000000E+00 0. -1.
         21   -1    0    0  501  503 -0.00000000000E+00 -0.00000000000E+00 -0.15388941709E+04  0.15388941709E+04  0.00000000000E+00 0. -1.
          6    2    1    2  501    0 -0.25585839151E+01  0.20106188557E+02 -0.26151241958E+03  0.31300598729E+03  0.17080163147E+03 0.  0.
         24    2    3    3    0    0  0.33289202684E+02  0.37816715838E+02 -0.69650007234E+02  0.11696517049E+03  0.79318677418E+02 0.  0.
         -6    2    1    2    0  502  0.25585839151E+01 -0.20106188557E+02 -0.12456413981E+04  0.12576285369E+04  0.17203557458E+03 0.  0.
        -24    2    5    5    0    0 -0.34057465561E+02 -0.50881216592E+02 -0.10948297410E+04  0.10993437197E+04  0.78457906547E+02 0.  0.
          5    1    3    3  501    0 -0.35847786599E+02 -0.17710527282E+02 -0.19186241235E+03  0.19604081680E+03  0.47000000000E+01 0. -1.
        -11    1    4    4    0    0 -0.65647335764E+01 -0.94944801656E+01 -0.51094221022E+02  0.52381869978E+02  0.00000000000E+00 0.  1.
         12    1    4    4    0    0  0.39853936261E+02  0.47311196004E+02 -0.18555786212E+02  0.64583300510E+02  0.00000000000E+00 0. -1.
         -5    1    5    5    0  502  0.36616049476E+02  0.30775028036E+02 -0.15081165708E+03  0.15828481715E+03  0.47000000000E+01 0.  1.
         13    1    6    6    0    0  0.21057697305E+02  0.27816146747E+01 -0.32024780502E+03  0.32095143031E+03  0.00000000000E+00 0. -1.
        -14    1    6    6    0    0 -0.55115162866E+02 -0.53662831267E+02 -0.77458193599E+03  0.77839228940E+03  0.00000000000E+00 0.  1.
</event>
<event>
12    1  0.1035051E+000  0.2012986E+03  0.7818608E-02  0.1149907E+00
         21   -1    0    0  503  502  0.00000000000E+00  0.00000000000E+00  0.12384491597E+04  0.12384491597E+04  0.00000000000E+00 0.  1.
         21   -1    0    0  501  503 -0.00000000000E+00 -0.00000000000E+00 -0.34954333358E+02  0.34954333358E+02  0.00000000000E+00 0.  1.
          6    2    1    2  501    0  0.11790966129E+02 -0.10824803048E+03  0.41756603911E+03  0.46355422175E+03  0.16930580763E+03 0.  0.
         24    2    3    3    0    0 -0.18473189613E+02 -0.27554620824E+01  0.11677625761E+03  0.14333369810E+03  0.80987674149E+02 0.  0.
         -6    2    1    2    0  502 -0.11790966129E+02  0.10824803048E+03  0.78592878728E+03  0.80984927135E+03  0.16221935968E+03 0.  0.
        -24    2    5    5    0    0  0.10659437942E+02  0.13635771471E+03  0.67699824829E+03  0.69503582565E+03  0.77724647142E+02 0.  0.
          5    1    3    3  501    0  0.30264155742E+02 -0.10549256840E+03  0.30078978150E+03  0.32022052365E+03  0.47000000000E+01 0. -1.
        -11    1    4    4    0    0 -0.36753938565E+02 -0.44311340199E+01  0.15046732694E+02  0.39961120023E+02  0.00000000000E+00 0.  1.
         12    1    4    4    0    0  0.18280748952E+02  0.16756719375E+01  0.10172952492E+03  0.10337257808E+03  0.00000000000E+00 0. -1.
         -5    1    5    5    0  502 -0.22450404071E+02 -0.28109684224E+02  0.10893053899E+03  0.11481344570E+03  0.47000000000E+01 0.  1.
         13    1    6    6    0    0  0.23897811690E+02  0.80849801270E+02  0.54131497888E+03  0.54784094602E+03  0.00000000000E+00 0. -1.
        -14    1    6    6    0    0 -0.13238373748E+02  0.55507913438E+02  0.13568326941E+03  0.14719487963E+03  0.00000000000E+00 0.  1.
</event>
<event>
12    1  0.1035051E+000  0.3210278E+03  0.7818608E-02  0.1075183E+00
         21   -1    0    0  501  502  0.00000000000E+00  0.00000000000E+00  0.97238966186E+03  0.97238966186E+03  0.00000000000E+00 0. -1.
         21   -1    0    0  502  503 -0.00000000000E+00 -0.00000000000E+00 -0.16340538379E+03  0.16340538379E+03  0.00000000000E+00 0. -1.
         -6    2    1    2    0  503  0.93207630937E+02 -0.25455892956E+03  0.67820358958E+02  0.32811348338E+03  0.17196204756E+03 0.  0.
        -24    2    3    3    0    0  0.45459963113E+02 -0.15365200753E+03 -0.26220940059E+02  0.18207272668E+03  0.82385632479E+02 0.  0.
          6    2    1    2  501    0 -0.93207630937E+02  0.25455892956E+03  0.74116391911E+03  0.80768156227E+03  0.17186517959E+03 0.  0.
         24    2    5    5    0    0 -0.33219981820E+02  0.48845129823E+02  0.32067190178E+03  0.33571513117E+03  0.79904735807E+02 0.  0.
          5    1    5    5  501    0 -0.59987649117E+02  0.20571379973E+03  0.42049201733E+03  0.47196643110E+03  0.47000000000E+01 0. -1.
        -13    1    6    6    0    0 -0.56125156983E+02  0.32567327621E+02  0.16091771455E+03  0.17350842899E+03  0.00000000000E+00 0.  1.
         14    1    6    6    0    0  0.22905175163E+02  0.16277802202E+02  0.15975418723E+03  0.16220670218E+03  0.00000000000E+00 0. -1.
         -5    1    3    3    0  503  0.47747667824E+02 -0.10090692203E+03  0.94041299017E+02  0.14604075670E+03  0.47000000000E+01 0.  1.
         11    1    4    4    0    0 -0.98334769767E+01 -0.44302844662E+02  0.21949230630E+02  0.50410396149E+02  0.00000000000E+00 0. -1.
        -12    1    4    4    0    0  0.55293440090E+02 -0.10934916287E+03 -0.48170170689E+02  0.13166233053E+03  0.00000000000E+00 0.  1.
</event>
<event>
12    1  0.1035051E+000  0.2203214E+03  0.7818608E-02  0.1135893E+00
         21   -1    0    0  503  502  0.00000000000E+00  0.00000000000E+00  0.11895685608E+03  0.11895685608E+03  0.00000000000E+00 0. -1.
         21   -1    0    0  501  503 -0.00000000000E+00 -0.00000000000E+00 -0.41792296821E+03  0.41792296821E+03  0.00000000000E+00 0. -1.
          6    2    1    2  501    0  0.13826133934E+03  0.20284477688E+01 -0.72239807027E+02  0.22073692227E+03  0.15615981102E+03 0.  0.
         24    2    3    3    0    0  0.80648917373E+02  0.17115858623E+02  0.15000688621E+02  0.11500227699E+03  0.78761047256E+02 0.  0.
         -6    2    1    2    0  502 -0.13826133934E+03 -0.20284477688E+01 -0.22672630511E+03  0.31614290202E+03  0.17152610446E+03 0.  0.
        -24    2    5    5    0    0 -0.16355466629E+03  0.21215407886E+02 -0.20210818928E+03  0.27362030990E+03  0.82584086947E+02 0.  0.
          5    1    3    3  501    0  0.57612421969E+02 -0.15087410855E+02 -0.87240495647E+02  0.10573464528E+03  0.47000000000E+01 0. -1.
        -13    1    4    4    0    0  0.34479103044E+02 -0.16015965879E+02 -0.25006620660E+02  0.45504404035E+02  0.00000000000E+00 0.  1.
         14    1    4    4    0    0  0.46169814329E+02  0.33131824502E+02  0.40007309280E+02  0.69497872959E+02  0.00000000000E+00 0. -1.
         -5    1    5    5    0  502  0.25293326949E+02 -0.23243855655E+02 -0.24618115829E+02  0.42522592123E+02  0.47000000000E+01 0.  1.
         11    1    6    6    0    0 -0.15534348827E+03  0.29539450197E+02 -0.14245602782E+03  0.21283302922E+03  0.00000000000E+00 0. -1.
        -12    1    6    6    0    0 -0.82111780211E+01 -0.83240423112E+01 -0.59652161462E+02  0.60787280676E+02  0.00000000000E+00 0.  1.
</event>
<event>
12    1  0.1035051E+000  0.1859507E+03  0.7818608E-02  0.1163947E+00
         21   -1    0    0  501  502  0.00000000000E+00  0.00000000000E+00  0.10208631077E+03  0.10208631077E+03  0.00000000000E+00 0.  1.
         21   -1    0    0  502  503 -0.00000000000E+00 -0.00000000000E+00 -0.36714079312E+03  0.36714079312E+03  0.00000000000E+00 0.  1.
         -6    2    1    2    0  503  0.39480147244E+02  0.29184116339E+02 -0.50784865012E+02  0.18552101456E+03  0.17154751428E+03 0.  0.
        -24    2    3    3    0    0  0.16979864882E+02 -0.46394665587E+02 -0.74963463096E+01  0.95441045449E+02  0.81314310807E+02 0.  0.
          6    2    1    2  501    0 -0.39480147244E+02 -0.29184116339E+02 -0.21426961733E+03  0.28370608933E+03  0.17935239485E+03 0.  0.
         24    2    5    5    0    0 -0.47296594523E+02 -0.57759510099E+01 -0.23502742307E+03  0.25111750925E+03  0.74510297226E+02 0.  0.
          5    1    5    5  501    0  0.78164472796E+01 -0.23408165330E+02  0.20757805742E+02  0.32588580076E+02  0.47000000000E+01 0. -1.
        -11    1    6    6    0    0 -0.24572519114E+02 -0.12570546364E+02 -0.18346719558E+02  0.33142562514E+02  0.00000000000E+00 0.  1.
         12    1    6    6    0    0 -0.22724075410E+02  0.67945953541E+01 -0.21668070352E+03  0.21797494674E+03  0.00000000000E+00 0. -1.
         -5    1    3    3    0  503  0.22500282361E+02  0.75578781927E+02 -0.43288518702E+02  0.90079969112E+02  0.47000000000E+01 0.  1.
         11    1    4    4    0    0 -0.21895313808E+02  0.95957128738E+01 -0.12718110404E+02  0.27078271817E+02  0.00000000000E+00 0. -1.
        -12    1    4    4    0    0  0.38875178691E+02 -0.55990378461E+02  0.52217640946E+01  0.68362773632E+02  0.00000000000E+00 0.  1.
</event>
<event>
12    1  0.1035051E+000  0.3151332E+03  0.7818608E-02  0.1078087E+00
         21   -1    0    0  501  502  0.00000000000E+00  0.00000000000E+00  0.18788079729E+03  0.18788079729E+03  0.00000000000E+00 0. -1.
         21   -1    0    0  502  503 -0.00000000000E+00 -0.00000000000E+00 -0.53014071930E+03  0.53014071930E+03  0.00000000000E+00 0. -1.
         -6    2    1    2    0  503  0.56122461966E+02 -0.25671406258E+03 -0.14008434868E+03  0.34486596482E+03  0.17394559000E+03 0.  0.
        -24    2    3    3    0    0  0.85444909611E+02 -0.10554804519E+03 -0.48009648201E+02  0.16539225862E+03  0.81292376446E+02 0.  0.
          6    2    1    2  501    0 -0.56122461966E+02  0.25671406258E+03 -0.20217557334E+03  0.37315555177E+03  0.17122576529E+03 0.  0.
         24    2    5    5    0    0 -0.41468373116E+02  0.27512333615E+03 -0.19116568074E+03  0.34675571450E+03  0.79263686406E+02 0.  0.
          5    1    5    5  501    0 -0.14654088851E+02 -0.18409273563E+02 -0.11009892592E+02  0.26399837273E+02  0.47000000000E+01 0. -1.
        -13    1    6    6    0    0 -0.36462054684E+02  0.92243994990E+02 -0.31891110263E+02  0.10418962980E+03  0.00000000000E+00 0.  1.
         14    1    6    6    0    0 -0.50063184320E+01  0.18287934116E+03 -0.15927457048E+03  0.24256608470E+03  0.00000000000E+00 0. -1.
         -5    1    3    3    0  503 -0.29322447644E+02 -0.15116601739E+03 -0.92074700474E+02  0.17947370620E+03  0.47000000000E+01 0.  1.
         11    1    4    4    0    0  0.13350228159E+02  0.10818302244E+02  0.60464990313E+01  0.18216048031E+02  0.00000000000E+00 0. -1.
        -12    1    4    4    0    0  0.72094681452E+02 -0.11636634743E+03 -0.54056147233E+02  0.14717621058E+03  0.00000000000E+00 0.  1.
</event>
<event>
12    1  0.1035051E+000  0.4447352E+03  0.7818608E-02  0.1029339E+00
         21   -1    0    0  501  502  0.00000000000E+00  0.00000000000E+00  0.20516848319E+03  0.20516848319E+03  0.00000000000E+00 0.  1.
         21   -1    0    0  502  503 -0.00000000000E+00 -0.00000000000E+00 -0.10190359179E+04  0.10190359179E+04  0.00000000000E+00 0.  1.
         -6    2    1    2    0  503 -0.38964972014E+03 -0.12763087906E+03 -0.55024635130E+03  0.70720781015E+03  0.17104178995E+03 0.  0.
        -24    2    3    3    0    0 -0.35752625815E+03 -0.67158667587E+02 -0.49306757272E+03  0.61787524111E+03  0.79491322830E+02 0.  0.
          6    2    1    2  501    0  0.38964972014E+03  0.12763087906E+03 -0.26362108344E+03  0.51699659098E+03  0.17225810213E+03 0.  0.
         24    2    5    5    0    0  0.25696531736E+03  0.12793060234E+03 -0.23950720152E+03  0.38205656772E+03  0.78778855127E+02 0.  0.
          5    1    5    5  501    0  0.13268440278E+03 -0.29972328294E+00 -0.24113881921E+02  0.13494002326E+03  0.47000000000E+01 0. -1.
        -13    1    6    6    0    0  0.10779209636E+03  0.27331511823E+02 -0.13144850596E+03  0.17217681986E+03  0.00000000000E+00 0.  1.
         14    1    6    6    0    0  0.14917322100E+03  0.10059909052E+03 -0.10805869556E+03  0.20987974786E+03  0.00000000000E+00 0. -1.
         -5    1    3    3    0  503 -0.32123461994E+02 -0.60472211473E+02 -0.57178778583E+02  0.89332569039E+02  0.47000000000E+01 0.  1.
         13    1    4    4    0    0 -0.17088958545E+03 -0.65701638832E+02 -0.20750136464E+03  0.27672508395E+03  0.00000000000E+00 0. -1.
        -14    1    4    4    0    0 -0.18663667270E+03 -0.14570287548E+01 -0.28556620808E+03  0.34115015715E+03  0.00000000000E+00 0.  1.
</event>
<event>
12    1  0.1035051E+000  0.2240076E+03  0.7818608E-02  0.1131620E+00
         21   -1    0    0  501  502  0.00000000000E+00  0.00000000000E+00  0.17721300286E+03  0.17721300286E+03  0.00000000000E+00 0.  1.
         21   -1    0    0  502  503 -0.00000000000E+00 -0.00000000000E+00 -0.29219774700E+03  0.29219774700E+03  0.00000000000E+00 0.  1.
         -6    2    1    2    0  503 -0.26209428582E+02  0.13473894490E+03 -0.60903943007E+01  0.22033773852E+03  0.17225013408E+03 0.  0.
        -24    2    3    3    0    0 -0.76335627350E+02  0.51758118936E+02 -0.13416432854E+02  0.12300216372E+03  0.80271419132E+02 0.  0.
          6    2    1    2  501    0  0.26209428582E+02 -0.13473894490E+03 -0.10889434984E+03  0.24907301134E+03  0.17702504944E+03 0.  0.
         24    2    5    5    0    0 -0.52613413124E+02 -0.77217228011E+02 -0.39552028825E+02  0.12927219426E+03  0.80101596007E+02 0.  0.
          5    1    5    5  501    0  0.78822841706E+02 -0.57521716894E+02 -0.69342321016E+02  0.11980081708E+03  0.47000000000E+01 0. -1.
        -11    1    6    6    0    0 -0.21746270526E+02 -0.35988470960E+02 -0.60495511472E+02  0.73673449981E+02  0.00000000000E+00 0.  1.
         12    1    6    6    0    0 -0.30867142598E+02 -0.41228757051E+02  0.20943482648E+02  0.55598744280E+02  0.00000000000E+00 0. -1.
         -5    1    3    3    0  503  0.50126198768E+02  0.82980825968E+02  0.73260385533E+01  0.97335574803E+02  0.47000000000E+01 0.  1.
         13    1    4    4    0    0 -0.45195025123E+01  0.46094835346E+02  0.97476121856E+01  0.47330494312E+02  0.00000000000E+00 0. -1.
        -14    1    4    4    0    0 -0.71816124837E+02  0.56632835905E+01 -0.23164045040E+02  0.75671669403E+02  0.00000000000E+00 0.  1.
</event>
<event>
12    1  0.1035051E+000  0.5092606E+03  0.7818608E-02  0.1011437E+00
         21   -1    0    0  501  502  0.00000000000E+00  0.00000000000E+00  0.10904969186E+04  0.10904969186E+04  0.00000000000E+00 0. -1.
         21   -1    0    0  502  503 -0.00000000000E+00 -0.00000000000E+00 -0.24249685988E+03  0.24249685988E+03  0.00000000000E+00 0. -1.
         -6    2    1    2    0  503 -0.37264899267E+03 -0.30128185590E+03  0.32781718943E+03  0.60502633350E+03  0.17016088300E+03 0.  0.
        -24    2    3    3    0    0 -0.24371154975E+03 -0.16111057355E+03  0.27094120509E+03  0.40620525771E+03  0.79004040309E+02 0.  0.
          6    2    1    2  501    0  0.37264899267E+03  0.30128185590E+03  0.52018286927E+03  0.72796744497E+03  0.17236111805E+03 0.  0.
         24    2    5    5    0    0  0.11890912565E+03  0.12062251507E+03  0.26845788783E+03  0.32745617943E+03  0.80428481285E+02 0.  0.
          5    1    5    5  501    0  0.25373986702E+03  0.18065934082E+03  0.25172498144E+03  0.40051126554E+03  0.47000000000E+01 0. -1.
        -13    1    6    6    0    0  0.86831886318E+02  0.31434876335E+02  0.14286559650E+03  0.17011321699E+03  0.00000000000E+00 0.  1.
         14    1    6    6    0    0  0.32077239334E+02  0.89187638739E+02  0.12559229132E+03  0.15734296243E+03  0.00000000000E+00 0. -1.
         -5    1    3    3    0  503 -0.12893744292E+03 -0.14017128235E+03  0.56875984345E+02  0.19882107579E+03  0.47000000000E+01 0.  1.
         13    1    4    4    0    0 -0.41028661817E+02 -0.68405321601E+02  0.71569902891E+02  0.10716757958E+03  0.00000000000E+00 0. -1.
        -14    1    4    4    0    0 -0.20268288793E+03 -0.92705251951E+02  0.19937130220E+03  0.29903767813E+03  0.00000000000E+00 0.  1.
</event>
<event>
12    1  0.1035051E+000  0.1931936E+03  0.7818608E-02  0.1155626E+00
         21   -1    0    0  501  502  0.00000000000E+00  0.00000000000E+00  0.30326923737E+02  0.30326923737E+02  0.00000000000E+00 0. -1.
         21   -1    0    0  502  503 -0.00000000000E+00 -0.00000000000E+00 -0.14967756838E+04  0.14967756838E+04  0.00000000000E+00 0. -1.
         -6    2    1    2    0  503 -0.68061975418E+02  0.54592277279E+02 -0.10552928924E+04  0.10728197667E+04  0.17229745708E+03 0.  0.
        -24    2    3    3    0    0 -0.62791834378E+02  0.95377335066E+02 -0.60480330419E+03  0.62043259351E+03  0.78165950566E+02 0.  0.
          6    2    1    2  501    0  0.68061975418E+02 -0.54592277279E+02 -0.41115586764E+03  0.45428284087E+03  0.17236879874E+03 0.  0.
         24    2    5    5    0    0 -0.40973890219E+01 -0.81675562939E+02 -0.21287896829E+03  0.24150056469E+03  0.79481956629E+02 0.  0.
          5    1    5    5  501    0  0.72159364440E+02  0.27083285660E+02 -0.19827689936E+03  0.21278227618E+03  0.47000000000E+01 0. -1.
        -13    1    6    6    0    0  0.33702883971E+02 -0.29409407330E+02 -0.12292467403E+03  0.13081006503E+03  0.00000000000E+00 0.  1.
         14    1    6    6    0    0 -0.37800272993E+02 -0.52266155609E+02 -0.89954294259E+02  0.11069049966E+03  0.00000000000E+00 0. -1.
         -5    1    3    3    0  503 -0.52701410397E+01 -0.40785057787E+02 -0.45048958824E+03  0.45238717316E+03  0.47000000000E+01 0.  1.
         13    1    4    4    0    0  0.11894562172E+02  0.17314072520E+02 -0.21215298588E+03  0.21319040113E+03  0.00000000000E+00 0. -1.
        -14    1    4    4    0    0 -0.74686396550E+02  0.78063262546E+02 -0.39265031831E+03  0.40724219238E+03  0.00000000000E+00 0.  1.
</event>
<event>
12    1  0.1035051E+000  0.1749302E+03  0.7818608E-02  0.1173308E+00
         21   -1    0    0  501  502  0.00000000000E+00  0.00000000000E+00  0.63791060068E+03  0.63791060068E+03  0.00000000000E+00 0.  1.
         21   -1    0    0  502  503 -0.00000000000E+00 -0.00000000000E+00 -0.96287267597E+02  0.96287267597E+02  0.00000000000E+00 0.  1.
         -6    2    1    2    0  503 -0.83849002815E+01 -0.29730484206E+01  0.53309293844E+03  0.56106028621E+03  0.17470380126E+03 0.  0.
        -24    2    3    3    0    0  0.54527710037E+02  0.10552270412E+02  0.41833040547E+03  0.42940368834E+03  0.79388776621E+02 0.  0.
          6    2    1    2  501    0  0.83849002815E+01  0.29730484206E+01  0.85303946394E+01  0.17313758206E+03  0.17269831823E+03 0.  0.
         24    2    5    5    0    0  0.53765856915E+02  0.47358987363E+02  0.17914005324E+02  0.10879719855E+03  0.79889159295E+02 0.  0.
          5    1    5    5  501    0 -0.45380956633E+02 -0.44385938942E+02 -0.93836106846E+01  0.64340383510E+02  0.47000000000E+01 0. -1.
        -11    1    6    6    0    0  0.10260842708E+02  0.25693485342E+02 -0.29818235185E+02  0.40676371909E+02  0.00000000000E+00 0.  1.
         12    1    6    6    0    0  0.43505014207E+02  0.21665502021E+02  0.47732240509E+02  0.68120826646E+02  0.00000000000E+00 0. -1.
         -5    1    3    3    0  503 -0.62912610318E+02 -0.13525318833E+02  0.11476253298E+03  0.13165659787E+03  0.47000000000E+01 0.  1.
         13    1    4    4    0    0 -0.19556329512E+01  0.22018454716E+02  0.25949255110E+03  0.26043237304E+03  0.00000000000E+00 0. -1.
        -14    1    4    4    0    0  0.56483342988E+02 -0.11466184304E+02  0.15883785436E+03  0.16897131531E+03  0.00000000000E+00 0.  1.
</event>
<event>
12    1  0.1035051E+000  0.1782676E+03  0.7818608E-02  0.1170799E+00
         21   -1    0    0  501  502  0.00000000000E+00  0.00000000000E+00  0.59947219891E+02  0.59947219891E+02  0.00000000000E+00 0. -1.
         21   -1    0    0  502  503 -0.00000000000E+00 -0.00000000000E+00 -0.53929900189E+03  0.53929900189E+03  0.00000000000E+00 0. -1.
         -6    2    1    2    0  503 -0.16313884668E+02  0.18259904235E+02 -0.30720519205E+03  0.35518217677E+03  0.17657797637E+03 0.  0.
        -24    2    3    3    0    0 -0.23298630082E+01  0.65221836336E+02 -0.10714999135E+03  0.14915997104E+03  0.80673788291E+02 0.  0.
          6    2    1    2  501    0  0.16313884668E+02 -0.18259904235E+02 -0.17214658995E+03  0.24406404501E+03  0.17126950312E+03 0.  0.
         24    2    5    5    0    0 -0.25119874775E+02  0.46182608868E+02 -0.79013904687E+02  0.12337692481E+03  0.78834173884E+02 0.  0.
          5    1    5    5  501    0  0.41433759443E+02 -0.64442513104E+02 -0.93132685267E+02  0.12068712020E+03  0.47000000000E+01 0. -1.
        -11    1    6    6    0    0 -0.29688073043E+02 -0.14700643886E+02 -0.21460804764E+02  0.39472227614E+02  0.00000000000E+00 0.  1.
         12    1    6    6    0    0  0.45681982686E+01  0.60883252755E+02 -0.57553099923E+02  0.83904697199E+02  0.00000000000E+00 0. -1.
         -5    1    3    3    0  503 -0.13984021660E+02 -0.46961932100E+02 -0.20005520070E+03  0.20602220573E+03  0.47000000000E+01 0.  1.
         13    1    4    4    0    0 -0.99386382277E+01 -0.13355423009E+02 -0.47148411000E+02  0.50001165120E+02  0.00000000000E+00 0. -1.
        -14    1    4    4    0    0  0.76087752195E+01  0.78577259345E+02 -0.60001580347E+02  0.99158805916E+02  0.00000000000E+00 0.  1.
</event>
<event>
12    1  0.1035051E+000  0.4246917E+03  0.7818608E-02  0.1035663E+00
         21   -1    0    0  501  502  0.00000000000E+00  0.00000000000E+00  0.12561409318E+03  0.12561409318E+03  0.00000000000E+00 0. -1.
         21   -1    0    0  502  503 -0.00000000000E+00 -0.00000000000E+00 -0.16215766731E+04  0.16215766731E+04  0.00000000000E+00 0.  1.
         -6    2    1    2    0  503 -0.12883702136E+03  0.36412210893E+03 -0.44965975547E+03  0.61851186121E+03  0.17657615491E+03 0.  0.
        -24    2    3    3    0    0 -0.52412584214E+02  0.12794938486E+03 -0.96550995694E+02  0.18685674840E+03  0.80468786381E+02 0.  0.
          6    2    1    2  501    0  0.12883702136E+03 -0.36412210893E+03 -0.10463028244E+04  0.11286789050E+04  0.17315479202E+03 0.  0.
         24    2    5    5    0    0  0.11890332246E+03 -0.31703529580E+03 -0.10100621318E+04  0.10682527174E+04  0.79303085633E+02 0.  0.
          5    1    5    5  501    0  0.99336988959E+01 -0.47086813136E+02 -0.36240692659E+02  0.60426187614E+02  0.47000000000E+01 0. -1.
        -11    1    6    6    0    0  0.12603028054E+03 -0.26322677377E+03 -0.81054995904E+03  0.86148894487E+03  0.00000000000E+00 0.  1.
         12    1    6    6    0    0 -0.71269580802E+01 -0.53808522025E+02 -0.19951217273E+03  0.20676377256E+03  0.00000000000E+00 0. -1.
         -5    1    3    3    0  503 -0.76424437142E+02  0.23617272407E+03 -0.35310875978E+03  0.43165511281E+03  0.47000000000E+01 0.  1.
         11    1    4    4    0    0 -0.72627700753E+02  0.82352940816E+02 -0.71619759784E+02  0.13109607076E+03  0.00000000000E+00 0. -1.
        -12    1    4    4    0    0  0.20215116539E+02  0.45596444047E+02 -0.24931235910E+02  0.55760677636E+02  0.00000000000E+00 0.  1.
</event>
<event>
12    1  0.1035051E+000  0.1773146E+03  0.7818608E-02  0.1171414E+00
         21   -1    0    0  503  502  0.00000000000E+00  0.00000000000E+00  0.33710114646E+03  0.33710114646E+03  0.00000000000E+00 0.  1.
         21   -1    0    0  501  503 -0.00000000000E+00 -0.00000000000E+00 -0.10286652780E+03  0.10286652780E+03  0.00000000000E+00 0.  1.
          6    2    1    2  501    0 -0.20116665245E+02  0.20504695825E+02  0.19236360604E+03  0.26161849291E+03  0.17497244393E+03 0.  0.
         24    2    3    3    0    0 -0.76539461373E+02 -0.39662352803E+01  0.12071369677E+03  0.16707666148E+03  0.86422184965E+02 0.  0.
         -6    2    1    2    0  502  0.20116665245E+02 -0.20504695825E+02  0.41871012619E+02  0.17834918136E+03  0.17096820178E+03 0.  0.
        -24    2    5    5    0    0  0.36384153846E+02  0.47128214506E+02  0.41555096596E+02  0.10862808306E+03  0.80798261874E+02 0.  0.
          5    1    3    3  501    0  0.56422796128E+02  0.24470931105E+02  0.71649909269E+02  0.94541831431E+02  0.47000000000E+01 0. -1.
        -11    1    4    4    0    0  0.18740908422E+02 -0.12199646926E+01  0.11103844943E+02  0.21817546490E+02  0.00000000000E+00 0.  1.
         12    1    4    4    0    0 -0.95280369795E+02 -0.27462705876E+01  0.10960985183E+03  0.14525911499E+03  0.00000000000E+00 0. -1.
         -5    1    5    5    0  502 -0.16267488601E+02 -0.67632910330E+02  0.31591602286E+00  0.69721098299E+02  0.47000000000E+01 0.  1.
         13    1    6    6    0    0  0.47038899087E+02  0.20333691889E+01  0.40775421981E+02  0.62285051620E+02  0.00000000000E+00 0. -1.
        -14    1    6    6    0    0 -0.10654745241E+02  0.45094845317E+02  0.77967461527E+00  0.46343031437E+02  0.00000000000E+00 0.  1.
</event>
<event>
12    1  0.1035051E+000  0.2851787E+03  0.7818608E-02  0.1092916E+00
         21   -1    0    0  501  502  0.00000000000E+00  0.00000000000E+00  0.73375126606E+03  0.73375126606E+03  0.00000000000E+00 0. -1.
         21   -1    0    0  502  503 -0.00000000000E+00 -0.00000000000E+00 -0.12388381345E+03  0.12388381345E+03  0.00000000000E+00 0. -1.
         -6    2    1    2    0  503  0.19990805631E+03  0.10633256733E+03  0.44452240558E+03  0.52813545107E+03  0.17336966217E+03 0.  0.
        -24    2    3    3    0    0  0.34397540652E+02  0.43265605039E+02  0.23307288030E+03  0.25226561896E+03  0.79119350328E+02 0.  0.
          6    2    1    2  501    0 -0.19990805631E+03 -0.10633256733E+03  0.16534504703E+03  0.32949962844E+03  0.17309296552E+03 0.  0.
         24    2    5    5    0    0 -0.13126780922E+03 -0.35831426077E+02  0.27629520319E+02  0.16017877699E+03  0.79866897850E+02 0.  0.
          5    1    5    5  501    0 -0.68640247081E+02 -0.70501141258E+02  0.13771552671E+03  0.16932085145E+03  0.47000000000E+01 0. -1.
        -11    1    6    6    0    0 -0.11474889977E+03 -0.57319160313E+02  0.33229581504E+02  0.13250283478E+03  0.00000000000E+00 0.  1.
         12    1    6    6    0    0 -0.16518909456E+02  0.21487734236E+02 -0.56000611849E+01  0.27675942214E+02  0.00000000000E+00 0. -1.
         -5    1    3    3    0  503  0.16551051565E+03  0.63066962295E+02  0.21144952528E+03  0.27586983211E+03  0.47000000000E+01 0.  1.
         13    1    4    4    0    0 -0.25252567032E+02  0.19730614816E+02  0.87951161670E+02  0.93607671383E+02  0.00000000000E+00 0. -1.
        -14    1    4    4    0    0  0.59650107684E+02  0.23534990223E+02  0.14512171863E+03  0.15865794758E+03  0.00000000000E+00 0.  1.
</event>
<event>
12    1  0.1035051E+000  0.2287565E+03  0.7818608E-02  0.1127742E+00
         21   -1    0    0  503  502  0.00000000000E+00  0.00000000000E+00  0.96295230248E+02  0.96295230248E+02  0.00000000000E+00 0. -1.
         21   -1    0    0  501  503 -0.00000000000E+00 -0.00000000000E+00 -0.75160091039E+03  0.75160091039E+03  0.00000000000E+00 0. -1.
          6    2    1    2  501    0 -0.74736926197E+02  0.13077739042E+03 -0.10359376421E+03  0.25111987845E+03  0.17216617377E+03 0.  0.
         24    2    3    3    0    0 -0.34633978814E+02  0.15832300862E+03 -0.83213264442E+02  0.19816270479E+03  0.77963598200E+02 0.  0.
         -6    2    1    2    0  502  0.74736926197E+02 -0.13077739042E+03 -0.55171191593E+03  0.59677626219E+03  0.17049203778E+03 0.  0.
        -24    2    5    5    0    0  0.65221357320E+00 -0.17044388876E+02 -0.16469034522E+03  0.18661589540E+03  0.86090917251E+02 0.  0.
          5    1    3    3  501    0 -0.40102947383E+02 -0.27545618206E+02 -0.20380499767E+02  0.52957173658E+02  0.47000000000E+01 0. -1.
        -11    1    4    4    0    0 -0.40818425543E+01  0.12988550468E+03 -0.86796017447E+02  0.15627045277E+03  0.00000000000E+00 0.  1.
         12    1    4    4    0    0 -0.30552136260E+02  0.28437503945E+02  0.35827530046E+01  0.41892252025E+02  0.00000000000E+00 0. -1.
         -5    1    5    5    0  502  0.74084712624E+02 -0.11373300154E+03 -0.38702157071E+03  0.41016036679E+03  0.47000000000E+01 0.  1.
         11    1    6    6    0    0 -0.86090968529E+01  0.30612984235E+02 -0.10480544264E+03  0.10952375157E+03  0.00000000000E+00 0. -1.
        -12    1    6    6    0    0  0.92613104261E+01 -0.47657373111E+02 -0.59884902584E+02  0.77092143829E+02  0.00000000000E+00 0.  1.
</event>
<event>
12    1  0.1035051E+000  0.1919471E+03  0.7818608E-02  0.1156917E+00
         21   -1    0    0  501  502  0.00000000000E+00  0.00000000000E+00  0.20615587431E+03  0.20615587431E+03  0.00000000000E+00 0.  1.
         21   -1    0    0  502  503 -0.00000000000E+00 -0.00000000000E+00 -0.21202206443E+03  0.21202206443E+03  0.00000000000E+00 0.  1.
         -6    2    1    2    0  503 -0.59800332449E+02  0.61638906821E+02 -0.86826188185E+02  0.20985561004E+03  0.17066093728E+03 0.  0.
        -24    2    3    3    0    0 -0.50914062401E+02  0.92052664564E+02 -0.17309820141E+02  0.13331426251E+03  0.80044537044E+02 0.  0.
          6    2    1    2  501    0  0.59800332449E+02 -0.61638906821E+02  0.80959998067E+02  0.20832232871E+03  0.17166314910E+03 0.  0.
         24    2    5    5    0    0  0.87065112814E+02 -0.21474575384E+02  0.69428924785E+01  0.11968168517E+03  0.78955751857E+02 0.  0.
          5    1    5    5  501    0 -0.27264780364E+02 -0.40164331436E+02  0.74017105588E+02  0.88640643543E+02  0.47000000000E+01 0. -1.
        -13    1    6    6    0    0  0.45369593594E+02 -0.16505486938E+02 -0.35539675104E+02  0.59949142016E+02  0.00000000000E+00 0.  1.
         14    1    6    6    0    0  0.41695519220E+02 -0.49690884459E+01  0.42482567582E+02  0.59732543152E+02  0.00000000000E+00 0. -1.
         -5    1    3    3    0  503 -0.88862700479E+01 -0.30413757744E+02 -0.69516368045E+02  0.76541347529E+02  0.47000000000E+01 0.  1.
         11    1    4    4    0    0 -0.88254672730E+01 -0.67146333316E+01 -0.23280919116E+02  0.25787135712E+02  0.00000000000E+00 0. -1.
        -12    1    4    4    0    0 -0.42088595128E+02  0.98767297896E+02  0.59710989749E+01  0.10752712679E+03  0.00000000000E+00 0.  1.
</event>
<event>
12    1  0.1035051E+000  0.1972280E+03  0.7818608E-02  0.1152140E+00
         21   -1    0    0  501  502  0.00000000000E+00  0.00000000000E+00  0.17936492982E+03  0.17936492982E+03  0.00000000000E+00 0. -1.
         21   -1    0    0  502  503 -0.00000000000E+00 -0.00000000000E+00 -0.25540790620E+03  0.25540790620E+03  0.00000000000E+00 0. -1.
         -6    2    1    2    0  503 -0.17837178811E+01 -0.95729339176E+02  0.46631968121E+02  0.20266582835E+03  0.17242856347E+03 0.  0.
        -24    2    3    3    0    0  0.37320649975E+02 -0.11950807265E+02  0.62571060020E+02  0.10872894185E+03  0.79819750276E+02 0.  0.
          6    2    1    2  501    0  0.17837178811E+01  0.95729339176E+02 -0.12267494450E+03  0.23210700768E+03  0.17221275498E+03 0.  0.
         24    2    5    5    0    0 -0.76474299564E+01  0.13063285157E+03 -0.12305261902E+03  0.19564559842E+03  0.77535979007E+02 0.  0.
          5    1    5    5  501    0  0.94311478376E+01 -0.34903512393E+02  0.37767451847E+00  0.36461409256E+02  0.47000000000E+01 0. -1.
        -13    1    6    6    0    0 -0.26910642943E+02  0.25604067796E+02 -0.63004119718E+02  0.73138704478E+02  0.00000000000E+00 0.  1.
         14    1    6    6    0    0  0.19263212987E+02  0.10502878377E+03 -0.60048499298E+02  0.12250689394E+03  0.00000000000E+00 0. -1.
         -5    1    3    3    0  503 -0.39104367856E+02 -0.83778531911E+02 -0.15939091899E+02  0.93936886499E+02  0.47000000000E+01 0.  1.
         11    1    4    4    0    0  0.31135838028E+02  0.12188927508E+02 -0.75784905212E+01  0.34284747076E+02  0.00000000000E+00 0. -1.
        -12    1    4    4    0    0  0.61848119467E+01 -0.24139734773E+02  0.70149550542E+02  0.74444194770E+02  0.00000000000E+00 0.  1.
</event>
<event>
12    1  0.1035051E+000  0.2054886E+03  0.7818608E-02  0.1145735E+00
         21   -1    0    0  503  502  0.00000000000E+00  0.00000000000E+00  0.44869980080E+02  0.44869980080E+02  0.00000000000E+00 0.  1.
         21   -1    0    0  501  503 -0.00000000000E+00 -0.00000000000E+00 -0.98405373216E+03  0.98405373216E+03  0.00000000000E+00 0.  1.
          6    2    1    2  501    0 -0.70288460589E+02 -0.86261006654E+02 -0.59425071090E+03  0.62877617260E+03  0.17275456250E+03 0.  0.
         24    2    3    3    0    0 -0.63528088889E+02 -0.46931353916E+02 -0.17798727424E+03  0.21057781906E+03  0.80157208205E+02 0.  0.
         -6    2    1    2    0  502  0.70288460589E+02  0.86261006654E+02 -0.34493304118E+03  0.40014753964E+03  0.16958131271E+03 0.  0.
        -24    2    5    5    0    0  0.10498312685E+03  0.70187025065E+02 -0.32545007339E+03  0.35697615114E+03  0.74609294349E+02 0.  0.
          5    1    3    3  501    0 -0.67603716991E+01 -0.39329652738E+02 -0.41626343665E+03  0.41819835354E+03  0.47000000000E+01 0. -1.
        -11    1    4    4    0    0  0.18243941834E+00 -0.47958507533E+02 -0.89449862207E+02  0.10149546580E+03  0.00000000000E+00 0.  1.
         12    1    4    4    0    0 -0.63710528308E+02  0.10271536171E+01 -0.88537412037E+02  0.10908235326E+03  0.00000000000E+00 0. -1.
         -5    1    5    5    0  502 -0.34694666262E+02  0.16073981590E+02 -0.19482967792E+02  0.43171388502E+02  0.47000000000E+01 0.  1.
         13    1    6    6    0    0  0.63705521911E+02  0.79441311147E+02 -0.19736235023E+03  0.22208379664E+03  0.00000000000E+00 0. -1.
        -14    1    6    6    0    0  0.41277604939E+02 -0.92542860825E+01 -0.12808772315E+03  0.13489235450E+03  0.00000000000E+00 0.  1.
</event>
<event>
12    1  0.1035051E+000  0.1771013E+03  0.7818608E-02  0.1170938E+00
         21   -1    0    0  501  502  0.00000000000E+00  0.00000000000E+00  0.65400693099E+03  0.65400693099E+03  0.00000000000E+00 0. -1.
         21   -1    0    0  502  503 -0.00000000000E+00 -0.00000000000E+00 -0.75620504573E+02  0.75620504573E+02  0.00000000000E+00 0. -1.
         -6    2    1    2    0  503  0.21467561610E+02 -0.31661162864E+02  0.66626748444E+02  0.18808995724E+03  0.17168407897E+03 0.  0.
        -24    2    3    3    0    0  0.36440377308E+02  0.43982695258E+02  0.40158662464E+02  0.10642706446E+03  0.80321997602E+02 0.  0.
          6    2    1    2  501    0 -0.21467561610E+02  0.31661162864E+02  0.51175967797E+03  0.54153747832E+03  0.17292075351E+03 0.  0.
         24    2    5    5    0    0  0.14135232438E+02  0.74174295695E+02  0.23472474129E+03  0.25896824512E+03  0.79165755673E+02 0.  0.
          5    1    5    5  501    0 -0.35602794049E+02 -0.42513132830E+02  0.27703493668E+03  0.28256923320E+03  0.47000000000E+01 0. -1.
        -11    1    6    6    0    0  0.38835823307E+02  0.96852781518E+01  0.76777295058E+02  0.86583940897E+02  0.00000000000E+00 0.  1.
         12    1    6    6    0    0 -0.24700590868E+02  0.64489017543E+02  0.15794744623E+03  0.17238430422E+03  0.00000000000E+00 0. -1.
         -5    1    3    3    0  503 -0.14972815698E+02 -0.75643858122E+02  0.26468085980E+02  0.81662892778E+02  0.47000000000E+01 0.  1.
         13    1    4    4    0    0 -0.25627849542E+02  0.16205925493E+02  0.15834124678E+02  0.34207282814E+02  0.00000000000E+00 0. -1.
        -14    1    4    4    0    0  0.62068226850E+02  0.27776769765E+02  0.24324537787E+02  0.72219781649E+02  0.00000000000E+00 0.  1.
</event>
<event>
12    1  0.1035051E+000  0.4680497E+03  0.7818608E-02  0.1022490E+00
         21   -1    0    0  501  502  0.00000000000E+00  0.00000000000E+00  0.45813804815E+03  0.45813804815E+03  0.00000000000E+00 0. -1.
         21   -1    0    0  502  503 -0.00000000000E+00 -0.00000000000E+00 -0.53244977552E+03  0.53244977552E+03  0.00000000000E+00 0. -1.
         -6    2    1    2    0  503  0.13476299340E+03 -0.41467850337E+03  0.12135606113E+03  0.48328477417E+03  0.16946254401E+03 0.  0.
        -24    2    3    3    0    0  0.15355751966E+03 -0.30304207987E+03  0.58919832211E+02  0.35391592958E+03  0.79815565938E+02 0.  0.
          6    2    1    2  501    0 -0.13476299340E+03  0.41467850337E+03 -0.19566778849E+03  0.50730304950E+03  0.17015044822E+03 0.  0.
         24    2    5    5    0    0 -0.15125927503E+03  0.37345324253E+03 -0.13537845100E+03  0.43227942886E+03  0.78686002438E+02 0.  0.
          5    1    5    5  501    0  0.16496281628E+02  0.41225260835E+02 -0.60289337492E+02  0.75023620638E+02  0.47000000000E+01 0. -1.
        -11    1    6    6    0    0 -0.89582141590E+02  0.26384327064E+03 -0.57992146602E+02  0.28460730950E+03  0.00000000000E+00 0.  1.
         12    1    6    6    0    0 -0.61677133440E+02  0.10960997190E+03 -0.77386304401E+02  0.14767211936E+03  0.00000000000E+00 0. -1.
         -5    1    3    3    0  503 -0.18794526257E+02 -0.11163642350E+03  0.62436228920E+02  0.12936884459E+03  0.47000000000E+01 0.  1.
         11    1    4    4    0    0  0.20442542129E+02 -0.90976537385E+02 -0.11161349685E+02  0.93910615002E+02  0.00000000000E+00 0. -1.
        -12    1    4    4    0    0  0.13311497753E+03 -0.21206554249E+03  0.70081181896E+02  0.26000531458E+03  0.00000000000E+00 0.  1.
</event>
<event>
12    1  0.1035051E+000  0.1774486E+03  0.7818608E-02  0.1170521E+00
         21   -1    0    0  501  502  0.00000000000E+00  0.00000000000E+00  0.15871287014E+04  0.15871287014E+04  0.00000000000E+00 0.  1.
         21   -1    0    0  502  503 -0.00000000000E+00 -0.00000000000E+00 -0.21468388273E+02  0.21468388273E+02  0.00000000000E+00 0.  1.
         -6    2    1    2    0  503  0.34626100033E+02 -0.22477635332E+02  0.10130429547E+04  0.10284668335E+04  0.17257980381E+03 0.  0.
        -24    2    3    3    0    0  0.53287866603E+02 -0.58615276379E+02  0.91865885768E+03  0.92558516167E+03  0.80612947802E+02 0.  0.
          6    2    1    2  501    0 -0.34626100033E+02  0.22477635332E+02  0.55261735848E+03  0.58013025620E+03  0.17164194820E+03 0.  0.
         24    2    5    5    0    0 -0.26685968023E+02  0.33409970608E+02  0.55765552752E+03  0.56496335810E+03  0.79846988641E+02 0.  0.
          5    1    5    5  501    0 -0.79401320107E+01 -0.10932335276E+02 -0.50381690422E+01  0.15166898108E+02  0.47000000000E+01 0. -1.
        -13    1    6    6    0    0  0.11719680674E+02  0.46092416946E+02  0.23348600178E+03  0.23828045417E+03  0.00000000000E+00 0.  1.
         14    1    6    6    0    0 -0.38405648697E+02 -0.12682446338E+02  0.32416952574E+03  0.32668290392E+03  0.00000000000E+00 0. -1.
         -5    1    3    3    0  503 -0.18661766570E+02  0.36137641047E+02  0.94384097005E+02  0.10288167183E+03  0.47000000000E+01 0.  1.
         13    1    4    4    0    0  0.42956590803E+02 -0.28269933560E+02  0.21010866793E+03  0.21631021745E+03  0.00000000000E+00 0. -1.
        -14    1    4    4    0    0  0.10331275800E+02 -0.30345342819E+02  0.70855018975E+03  0.70927494421E+03  0.00000000000E+00 0.  1.
</event>
<event>
12    1  0.1035051E+000  0.3223583E+03  0.7818608E-02  0.1074570E+00
         21   -1    0    0  501  502  0.00000000000E+00  0.00000000000E+00  0.26412680588E+04  0.26412680588E+04  0.00000000000E+00 0.  1.
         21   -1    0    0  502  503 -0.00000000000E+00 -0.00000000000E+00 -0.41603926253E+02  0.41603926253E+02  0.00000000000E+00 0.  1.
         -6    2    1    2    0  503  0.22534492140E+03  0.15422592899E+03  0.98706721199E+03  0.10383720821E+04  0.17131529164E+03 0.  0.
        -24    2    3    3    0    0  0.67428633959E+02  0.93995227507E+02  0.40454062196E+03  0.43180418869E+03  0.97056782768E+02 0.  0.
          6    2    1    2  501    0 -0.22534492140E+03 -0.15422592899E+03  0.16125969206E+04  0.16444999029E+04  0.17130420840E+03 0.  0.
         24    2    5    5    0    0 -0.14080664653E+03 -0.51391605192E+02  0.61217423290E+03  0.63524807013E+03  0.79468297949E+02 0.  0.
          5    1    5    5  501    0 -0.84538274872E+02 -0.10283432379E+03  0.10004226877E+04  0.10092518328E+04  0.47000000000E+01 0. -1.
        -13    1    6    6    0    0 -0.38666437262E+01  0.95642791595E+01  0.88811334773E+01  0.13612527370E+02  0.00000000000E+00 0.  1.
         14    1    6    6    0    0 -0.13694000280E+03 -0.60955884352E+02  0.60329309943E+03  0.62163554276E+03  0.00000000000E+00 0. -1.
         -5    1    3    3    0  503  0.15791628744E+03  0.60230701480E+02  0.58252659003E+03  0.60656789342E+03  0.47000000000E+01 0.  1.
         11    1    4    4    0    0  0.52203589038E+02  0.10466164232E+03  0.39274015814E+03  0.40978543886E+03  0.00000000000E+00 0. -1.
        -12    1    4    4    0    0  0.15225044921E+02 -0.10666414813E+02  0.11800463818E+02  0.22018749831E+02  0.00000000000E+00 0.  1.
</event>
<event>
12    1  0.1035051E+000  0.3379026E+03  0.7818608E-02  0.1067720E+00
         21   -1    0    0  501  502  0.00000000000E+00  0.00000000000E+00  0.14068875919E+03  0.14068875919E+03  0.00000000000E+00 0. -1.
         21   -1    0    0  502  503 -0.00000000000E+00 -0.00000000000E+00 -0.10277296485E+04  0.10277296485E+04  0.00000000000E+00 0.  1.
         -6    2    1    2    0  503 -0.28388304476E+03 -0.64709859709E+02 -0.17508334216E+03  0.38034372397E+03  0.17096848429E+03 0.  0.
        -24    2    3    3    0    0 -0.10364241590E+03 -0.78393946171E+02 -0.10733760703E+03  0.18724915351E+03  0.81569126747E+02 0.  0.
          6    2    1    2  501    0  0.28388304476E+03  0.64709859709E+02 -0.71195754715E+03  0.78807468371E+03  0.17146780782E+03 0.  0.
         24    2    5    5    0    0  0.12669406489E+03  0.71368375066E+02 -0.32737350607E+03  0.37252723050E+03  0.10226580048E+03 0.  0.
          5    1    5    5  501    0  0.15718897987E+03 -0.66585153570E+01 -0.38458404108E+03  0.41554745321E+03  0.47000000000E+01 0. -1.
        -11    1    6    6    0    0  0.12801532221E+03  0.24102692300E+02 -0.23173022022E+03  0.26583407882E+03  0.00000000000E+00 0.  1.
         12    1    6    6    0    0 -0.13212573168E+01  0.47265682766E+02 -0.95643285849E+02  0.10669315168E+03  0.00000000000E+00 0. -1.
         -5    1    3    3    0  503 -0.18024062886E+03  0.13684086462E+02 -0.67745735124E+02  0.19309457046E+03  0.47000000000E+01 0.  1.
         13    1    4    4    0    0 -0.24517443414E+02  0.14182140964E+01  0.83695511793E+01  0.25945437937E+02  0.00000000000E+00 0. -1.
        -14    1    4    4    0    0 -0.79124972483E+02 -0.79812160268E+02 -0.11570715821E+03  0.16130371558E+03  0.00000000000E+00 0.  1.
</event>
<event>
12    1  0.1035051E+000  0.2509924E+03  0.7818608E-02  0.1112879E+00
         21   -1    0    0  503  502  0.00000000000E+00  0.00000000000E+00  0.25050027636E+03  0.25050027636E+03  0.00000000000E+00 0.  1.
         21   -1    0    0  501  503 -0.00000000000E+00 -0.00000000000E+00 -0.33895338866E+03  0.33895338866E+03  0.00000000000E+00 0.  1.
          6    2    1    2  501    0  0.11416822744E+03 -0.14116257377E+03  0.10649210666E+03  0.27264946856E+03  0.17330870588E+03 0.  0.
         24    2    3    3    0    0  0.13709684686E+03 -0.15058216524E+03  0.11379870153E+03  0.24638301428E+03  0.79271125556E+02 0.  0.
         -6    2    1    2    0  502 -0.11416822744E+03  0.14116257377E+03 -0.19494521896E+03  0.31680419645E+03  0.17146429397E+03 0.  0.
        -24    2    5    5    0    0 -0.10423353419E+03  0.68793195329E+02 -0.65692305565E+02  0.16826318970E+03  0.91650906296E+02 0.  0.
          5    1    3    3  501    0 -0.22928619421E+02  0.94195914731E+01 -0.73065948672E+01  0.26266454283E+02  0.47000000000E+01 0. -1.
        -13    1    4    4    0    0  0.16206851545E+02 -0.72716435104E+02  0.44242326096E+02  0.86647131456E+02  0.00000000000E+00 0.  1.
         14    1    4    4    0    0  0.12088999531E+03 -0.77865730135E+02  0.69556375434E+02  0.15973588282E+03  0.00000000000E+00 0. -1.
         -5    1    5    5    0  502 -0.99346932448E+01  0.72369378438E+02 -0.12925291339E+03  0.14854100675E+03  0.47000000000E+01 0.  1.
         11    1    6    6    0    0 -0.58803551131E+02 -0.10251076686E+02 -0.76332200631E+01  0.60176475864E+02  0.00000000000E+00 0. -1.
        -12    1    6    6    0    0 -0.45429983063E+02  0.79044272015E+02 -0.58059085502E+02  0.10808671384E+03  0.00000000000E+00 0.  1.
</event>
<event>
12    1  0.1035051E+000  0.2951308E+03  0.7818608E-02  0.1087784E+00
         21   -1    0    0  503  502  0.00000000000E+00  0.00000000000E+00  0.11042165573E+04  0.11042165573E+04  0.00000000000E+00 0. -1.
         21   -1    0    0  501  503 -0.00000000000E+00 -0.00000000000E+00 -0.18436432788E+03  0.18436432788E+03  0.00000000000E+00 0. -1.
          6    2    1    2  501    0  0.22360236374E+03  0.83848583176E+02  0.94745529202E+03  0.99216208846E+03  0.17229473998E+03 0.  0.
         24    2    3    3    0    0  0.19840620955E+03  0.11868641544E+03  0.86559309811E+03  0.89957683297E+03  0.80842919973E+02 0.  0.
         -6    2    1    2    0  502 -0.22360236374E+03 -0.83848583176E+02 -0.27603062625E+02  0.29641879669E+03  0.17341733477E+03 0.  0.
        -24    2    5    5    0    0 -0.24627964283E+03 -0.72207769794E+02 -0.19579632798E+02  0.26928518378E+03  0.79142426628E+02 0.  0.
          5    1    3    3  501    0  0.25196154183E+02 -0.34837832269E+02  0.81862193910E+02  0.92585255492E+02  0.47000000000E+01 0. -1.
        -13    1    4    4    0    0  0.17698688593E+03  0.10142356836E+03  0.62571422487E+03  0.65812566369E+03  0.00000000000E+00 0.  1.
         14    1    4    4    0    0  0.21419323621E+02  0.17262847084E+02  0.23987887324E+03  0.24145116927E+03  0.00000000000E+00 0. -1.
         -5    1    5    5    0  502  0.22677279095E+02 -0.11640813382E+02 -0.80234298273E+01  0.27133612910E+02  0.47000000000E+01 0.  1.
         11    1    6    6    0    0 -0.39447366968E+02  0.88159023607E+01  0.17552442460E+02  0.44067029982E+02  0.00000000000E+00 0. -1.
        -12    1    6    6    0    0 -0.20683227586E+03 -0.81023672155E+02 -0.37132075258E+02  0.22521815380E+03  0.00000000000E+00 0.  1.
</event>
<event>
12    1  0.1035051E+000  0.3488610E+03  0.7818608E-02  0.1063158E+00
         21   -1    0    0  503  502  0.00000000000E+00  0.00000000000E+00  0.60861168563E+02  0.60861168563E+02  0.00000000000E+00 0. -1.
         21   -1    0    0  501  503 -0.00000000000E+00 -0.00000000000E+00 -0.21271811987E+04  0.21271811987E+04  0.00000000000E+00 0. -1.
          6    2    1    2  501    0  0.89432141458E+02  0.28921677816E+03 -0.76201848527E+03  0.83807883896E+03  0.17337680274E+03 0.  0.
         24    2    3    3    0    0  0.75450365080E+02  0.26630170532E+03 -0.52606300142E+03  0.60055479599E+03  0.85524415641E+02 0.  0.
         -6    2    1    2    0  502 -0.89432141458E+02 -0.28921677816E+03 -0.13043015449E+04  0.13499635283E+04  0.17191438306E+03 0.  0.
        -24    2    5    5    0    0 -0.93656765974E+02 -0.28427231155E+03 -0.10328680028E+04  0.10784114099E+04  0.81071086378E+02 0.  0.
          5    1    3    3  501    0  0.13981776378E+02  0.22915072842E+02 -0.23595548384E+03  0.23752404297E+03  0.47000000000E+01 0. -1.
        -13    1    4    4    0    0  0.97769999459E+01  0.18464793725E+03 -0.33461302660E+03  0.38230397334E+03  0.00000000000E+00 0.  1.
         14    1    4    4    0    0  0.65673365134E+02  0.81653768069E+02 -0.19144997483E+03  0.21825082265E+03  0.00000000000E+00 0. -1.
         -5    1    5    5    0  502  0.42246245157E+01 -0.49444666128E+01 -0.27143354214E+03  0.27155211839E+03  0.47000000000E+01 0.  1.
         13    1    6    6    0    0 -0.53178912824E+02 -0.21172228735E+03 -0.62109844356E+03  0.65834459087E+03  0.00000000000E+00 0. -1.
        -14    1    6    6    0    0 -0.40477853150E+02 -0.72550024201E+02 -0.41176955920E+03  0.42006681908E+03  0.00000000000E+00 0.  1.
</event>
<event>
12    1  0.1035051E+000  0.2915927E+03  0.7818608E-02  0.1089578E+00
         21   -1    0    0  503  502  0.00000000000E+00  0.00000000000E+00  0.10847611330E+04  0.10847611330E+04  0.00000000000E+00 0.  1.
         21   -1    0    0  501  503 -0.00000000000E+00 -0.00000000000E+00 -0.87072858764E+02  0.87072858764E+02  0.00000000000E+00 0. -1.
          6    2    1    2  501    0 -0.23092241526E+03 -0.45448060628E+02  0.31212798741E+03  0.42683788902E+03  0.17139432575E+03 0.  0.
         24    2    3    3    0    0 -0.36696905050E+02  0.99879096808E+00  0.12760614815E+03  0.15489808318E+03  0.79764821217E+02 0.  0.
         -6    2    1    2    0  502  0.23092241526E+03  0.45448060628E+02  0.68556028687E+03  0.74499610279E+03  0.17214992927E+03 0.  0.
        -24    2    5    5    0    0  0.71219410939E+02 -0.28452813376E+02  0.33362259368E+03  0.35148801054E+03  0.79737189957E+02 0.  0.
          5    1    3    3  501    0 -0.19422551021E+03 -0.46446851596E+02  0.18452183926E+03  0.27193980584E+03  0.47000000000E+01 0. -1.
        -13    1    4    4    0    0 -0.53434827425E+02 -0.17847374450E+02  0.11167288010E+03  0.12507854216E+03  0.00000000000E+00 0.  1.
         14    1    4    4    0    0  0.16737922375E+02  0.18846165418E+02  0.15933268043E+02  0.29819541024E+02  0.00000000000E+00 0. -1.
         -5    1    5    5    0  502  0.15970300432E+03  0.73900874003E+02  0.35193769320E+03  0.39350809224E+03  0.47000000000E+01 0.  1.
         13    1    6    6    0    0 -0.11065366181E+02  0.79373473320E+00  0.63882680801E+01  0.12801652730E+02  0.00000000000E+00 0. -1.
        -14    1    6    6    0    0  0.82284777120E+02 -0.29246548109E+02  0.32723432560E+03  0.33868635782E+03  0.00000000000E+00 0.  1.
</event>
<event>
12    1  0.1035051E+000  0.2569930E+03  0.7818608E-02  0.1108990E+00
         21   -1    0    0  501  502  0.00000000000E+00  0.00000000000E+00  0.13584088679E+03  0.13584088679E+03  0.00000000000E+00 0. -1.
         21   -1    0    0  502  503 -0.00000000000E+00 -0.00000000000E+00 -0.12799988819E+04  0.12799988819E+04  0.00000000000E+00 0. -1.
         -6    2    1    2    0  503 -0.83786758986E+02  0.17118216857E+03 -0.11296085058E+04  0.11584352759E+04  0.17214341761E+03 0.  0.
        -24    2    3    3    0    0 -0.96016532400E+02  0.80986239754E+02 -0.48001786575E+03  0.50248179997E+03  0.79327563520E+02 0.  0.
          6    2    1    2  501    0  0.83786758986E+02 -0.17118216857E+03 -0.14549489279E+02  0.25740449278E+03  0.17240020141E+03 0.  0.
         24    2    5    5    0    0  0.94757618100E+02 -0.19476886801E+03 -0.15340818585E+02  0.23095816331E+03  0.78691895087E+02 0.  0.
          5    1    5    5  501    0 -0.10970859114E+02  0.23586699440E+02  0.79132930624E+00  0.26446329466E+02  0.47000000000E+01 0. -1.
        -11    1    6    6    0    0  0.10730952216E+03 -0.15599737939E+03 -0.77239222041E+01  0.18949980184E+03  0.00000000000E+00 0.  1.
         12    1    6    6    0    0 -0.12551904064E+02 -0.38771488620E+02 -0.76168963811E+01  0.41458361472E+02  0.00000000000E+00 0. -1.
         -5    1    3    3    0  503  0.12229773414E+02  0.90195928816E+02 -0.64959064003E+03  0.65595347590E+03  0.47000000000E+01 0.  1.
         13    1    4    4    0    0 -0.15411469410E+02 -0.26029789273E+01 -0.10528879108E+02  0.18845322601E+02  0.00000000000E+00 0. -1.
        -14    1    4    4    0    0 -0.80605062990E+02  0.83589218681E+02 -0.46948898665E+03  0.48363647737E+03  0.00000000000E+00 0.  1.
</event>
<event>
12    1  0.1035051E+000  0.4037965E+03  0.7818608E-02  0.1042638E+00
         21   -1    0    0  501  502  0.00000000000E+00  0.00000000000E+00  0.15759682752E+03  0.15759682752E+03  0.00000000000E+00 0.  1.
         21   -1    0    0  502  503 -0.00000000000E+00 -0.00000000000E+00 -0.12738710662E+04  0.12738710662E+04  0.00000000000E+00 0.  1.
         -6    2    1    2    0  503  0.36470224803E+03  0.19164856994E+02 -0.87042550799E+03  0.95871717236E+03  0.16769922528E+03 0.  0.
        -24    2    3    3    0    0  0.26850620217E+03  0.59684894899E+01 -0.76768227091E+03  0.81727430007E+03  0.80436366295E+02 0.  0.
          6    2    1    2  501    0 -0.36470224803E+03 -0.19164856994E+02 -0.24584873067E+03  0.47275072134E+03  0.17226904739E+03 0.  0.
         24    2    5    5    0    0 -0.36866270032E+03 -0.41309463366E+02 -0.23950842236E+03  0.44891045533E+03  0.80855761401E+02 0.  0.
          5    1    5    5  501    0  0.39604522912E+01  0.22144606373E+02 -0.63403083114E+01  0.23840266006E+02  0.47000000000E+01 0. -1.
        -11    1    6    6    0    0 -0.14083784032E+03 -0.32316791131E+02 -0.51536452541E+02  0.15341342248E+03  0.00000000000E+00 0.  1.
         12    1    6    6    0    0 -0.22782486000E+03 -0.89926722350E+01 -0.18797196982E+03  0.29549703286E+03  0.00000000000E+00 0. -1.
         -5    1    3    3    0  503  0.96196045867E+02  0.13196367504E+02 -0.10274323708E+03  0.14144287229E+03  0.47000000000E+01 0.  1.
         11    1    4    4    0    0  0.67465149964E+02  0.13090400916E+00 -0.10554767598E+03  0.12526721638E+03  0.00000000000E+00 0. -1.
        -12    1    4    4    0    0  0.20104105220E+03  0.58375854807E+01 -0.66213459493E+03  0.69200708369E+03  0.00000000000E+00 0.  1.
</event>
<event>
12    1  0.1035051E+000  0.1859426E+03  0.7818608E-02  0.1163045E+00
         21   -1    0    0  501  502  0.00000000000E+00  0.00000000000E+00  0.10215526817E+04  0.10215526817E+04  0.00000000000E+00 0.  1.
         21   -1    0    0  502  503 -0.00000000000E+00 -0.00000000000E+00 -0.45712987524E+02  0.45712987524E+02  0.00000000000E+00 0.  1.
         -6    2    1    2    0  503  0.14977593159E+02 -0.70686552736E+02  0.77100196916E+03  0.79310697279E+03  0.17132926432E+03 0.  0.
        -24    2    3    3    0    0 -0.63249611115E+01  0.27564498275E+02  0.34834787302E+03  0.35863529037E+03  0.80456349434E+02 0.  0.
          6    2    1    2  501    0 -0.14977593159E+02  0.70686552736E+02  0.20483772498E+03  0.27415869639E+03  0.16728293457E+03 0.  0.
         24    2    5    5    0    0  0.39421625318E+02 -0.59044725873E+00  0.12620138014E+03  0.15480439011E+03  0.80518306465E+02 0.  0.
          5    1    5    5  501    0 -0.54399218477E+02  0.71276999994E+02  0.78636344831E+02  0.11935430628E+03  0.47000000000E+01 0. -1.
        -11    1    6    6    0    0  0.60687369300E+02  0.62363781255E+01  0.62666864819E+02  0.87458476724E+02  0.00000000000E+00 0.  1.
         12    1    6    6    0    0 -0.21265743982E+02 -0.68268253842E+01  0.63534515325E+02  0.67345913384E+02  0.00000000000E+00 0. -1.
         -5    1    3    3    0  503  0.21302554271E+02 -0.98251051011E+02  0.42265409614E+03  0.43447168242E+03  0.47000000000E+01 0.  1.
         13    1    4    4    0    0  0.19020264524E+02 -0.12144250140E+02  0.34195374477E+02  0.40970439461E+02  0.00000000000E+00 0. -1.
        -14    1    4    4    0    0 -0.25345225636E+02  0.39708748415E+02  0.31415249854E+03  0.31766485091E+03  0.00000000000E+00 0.  1.
</event>
<event>
12    1  0.1035051E+000  0.2371239E+03  0.7818608E-02  0.1121753E+00
         21   -1    0    0  503  502  0.00000000000E+00  0.00000000000E+00  0.79066281157E+03  0.79066281157E+03  0.00000000000E+00 0. -1.
         21   -1    0    0  501  503 -0.00000000000E+00 -0.00000000000E+00 -0.82181974050E+02  0.82181974050E+02  0.00000000000E+00 0. -1.
          6    2    1    2  501    0 -0.82339419792E+02  0.14079117779E+03  0.19360153947E+03  0.30598637801E+03  0.17188418091E+03 0.  0.
         24    2    3    3    0    0 -0.11634906400E+03  0.71961871299E+02  0.14410811026E+03  0.21452152757E+03  0.80850001436E+02 0.  0.
         -6    2    1    2    0  502  0.82339419792E+02 -0.14079117779E+03  0.51487929805E+03  0.56685840761E+03  0.17212154695E+03 0.  0.
        -24    2    5    5    0    0  0.10848998148E+03 -0.14503457084E+03  0.49625757011E+03  0.53413659512E+03  0.78900085785E+02 0.  0.
          5    1    3    3  501    0  0.34009644210E+02  0.68829306489E+02  0.49493429213E+02  0.91464850442E+02  0.47000000000E+01 0. -1.
        -11    1    4    4    0    0 -0.39346501472E+02  0.65075537501E+02  0.99609971367E+02  0.12532006685E+03  0.00000000000E+00 0.  1.
         12    1    4    4    0    0 -0.77002562530E+02  0.68863337971E+01  0.44498138890E+02  0.89201460717E+02  0.00000000000E+00 0. -1.
         -5    1    5    5    0  502 -0.26150561686E+02  0.42433930560E+01  0.18621727939E+02  0.32721812489E+02  0.47000000000E+01 0.  1.
         13    1    6    6    0    0  0.59968279922E+01 -0.23569052033E+02  0.16435614379E+03  0.16614573170E+03  0.00000000000E+00 0. -1.
        -14    1    6    6    0    0  0.10249315349E+03 -0.12146551881E+03  0.33190142632E+03  0.36799086342E+03  0.00000000000E+00 0.  1.
</event>
<event>
12    1  0.1035051E+000  0.2334831E+03  0.7818608E-02  0.1124242E+00
         21   -1    0    0  503  502  0.00000000000E+00  0.00000000000E+00  0.36773550297E+02  0.36773550297E+02  0.00000000000E+00 0.  1.
         21   -1    0    0  501  503 -0.00000000000E+00 -0.00000000000E+00 -0.16860530255E+04  0.16860530255E+04  0.00000000000E+00 0. -1.
          6    2    1    2  501    0 -0.95627610594E+02  0.12592196322E+03 -0.11245348379E+04  0.11484823356E+04  0.17155784103E+03 0.  0.
         24    2    3    3    0    0 -0.44308971558E+02  0.56528879727E+02 -0.28635264155E+03  0.30585520156E+03  0.79942290410E+02 0.  0.
         -6    2    1    2    0  502  0.95627610594E+02 -0.12592196322E+03 -0.52474463726E+03  0.57434424015E+03  0.17179461903E+03 0.  0.
        -24    2    5    5    0    0  0.47270080661E+02 -0.21065123335E+02 -0.36488166229E+03  0.37708383272E+03  0.79846036073E+02 0.  0.
          5    1    3    3  501    0 -0.51318639036E+02  0.69393083495E+02 -0.83818219639E+03  0.84262713409E+03  0.47000000000E+01 0. -1.
        -11    1    4    4    0    0 -0.50084624403E+02  0.15991166714E+02 -0.23155491013E+03  0.23744865428E+03  0.00000000000E+00 0.  1.
         12    1    4    4    0    0  0.57756528449E+01  0.40537713013E+02 -0.54797731421E+02  0.68406547282E+02  0.00000000000E+00 0. -1.
         -5    1    5    5    0  502  0.48357529933E+02 -0.10485683989E+03 -0.15986297497E+03  0.19726040743E+03  0.47000000000E+01 0.  1.
         11    1    6    6    0    0  0.63361895968E+02  0.24607871349E+01 -0.20172764557E+03  0.21145880998E+03  0.00000000000E+00 0. -1.
        -12    1    6    6    0    0 -0.16091815308E+02 -0.23525910470E+02 -0.16315401673E+03  0.16562502274E+03  0.00000000000E+00 0.  1.
</event>
<event>
12    1  0.1035051E+000  0.2455785E+03  0.7818608E-02  0.1116880E+00
         21   -1    0    0  501  502  0.00000000000E+00  0.00000000000E+00  0.17578748424E+04  0.17578748424E+04  0.00000000000E+00 0. -1.
         21   -1    0    0  502  503 -0.00000000000E+00 -0.00000000000E+00 -0.35843244630E+02  0.35843244630E+02  0.00000000000E+00 0. -1.
         -6    2    1    2    0  503 -0.41812804853E+02  0.17445240017E+03  0.10894492399E+04  0.11167848665E+04  0.16771058758E+03 0.  0.
        -24    2    3    3    0    0 -0.80273614323E+02  0.13342420041E+03  0.63329683744E+03  0.65715495963E+03  0.80881927744E+02 0.  0.
          6    2    1    2  501    0  0.41812804853E+02 -0.17445240017E+03  0.63258235787E+03  0.67693322051E+03  0.16092294731E+03 0.  0.
         24    2    5    5    0    0  0.18905230355E+02 -0.17119504075E+03  0.39229569428E+03  0.43548935942E+03  0.78037944003E+02 0.  0.
          5    1    5    5  501    0  0.22907574499E+02 -0.32573594155E+01  0.24028666359E+03  0.24144386110E+03  0.47000000000E+01 0. -1.
        -13    1    6    6    0    0  0.75809496713E+01 -0.10911473293E+03  0.32645309092E+03  0.34428929161E+03  0.00000000000E+00 0.  1.
         14    1    6    6    0    0  0.11324280683E+02 -0.62080307826E+02  0.65842603352E+02  0.91200067812E+02  0.00000000000E+00 0. -1.
         -5    1    3    3    0  503  0.38460809470E+02  0.41028199761E+02  0.45615240245E+03  0.45962990689E+03  0.47000000000E+01 0.  1.
         11    1    4    4    0    0 -0.13069327835E+02  0.36851842998E+02  0.32201526081E+03  0.32438047700E+03  0.00000000000E+00 0. -1.
        -12    1    4    4    0    0 -0.67204286488E+02  0.96572357409E+02  0.31128157663E+03  0.33277448263E+03  0.00000000000E+00 0.  1.
</event>
<event>
12    1  0.1035051E+000  0.2645862E+03  0.7818608E-02  0.1104430E+00
         21   -1    0    0  501  502  0.00000000000E+00  0.00000000000E+00  0.11735087936E+03  0.11735087936E+03  0.00000000000E+00 0.  1.
         21   -1    0    0  502  503 -0.00000000000E+00 -0.00000000000E+00 -0.59722191047E+03  0.59722191047E+03  0.00000000000E+00 0.  1.
         -6    2    1    2    0  503  0.18885782173E+03 -0.68220004507E+02 -0.22647018863E+03  0.34821525676E+03  0.17217396105E+03 0.  0.
        -24    2    3    3    0    0  0.17625569812E+03 -0.32684409840E+01 -0.19564646363E+03  0.27507353716E+03  0.79442798849E+02 0.  0.
          6    2    1    2  501    0 -0.18885782173E+03  0.68220004507E+02 -0.25340084249E+03  0.36635753306E+03  0.17229222041E+03 0.  0.
         24    2    5    5    0    0 -0.20373678215E+03  0.82121070108E+02 -0.23840120459E+03  0.34063395973E+03  0.10461268381E+03 0.  0.
          5    1    5    5  501    0  0.14878960418E+02 -0.13901065601E+02 -0.14999637896E+02  0.25723573332E+02  0.47000000000E+01 0. -1.
        -11    1    6    6    0    0 -0.14224514558E+03  0.13058242779E+02 -0.18541666551E+03  0.23405883661E+03  0.00000000000E+00 0.  1.
         12    1    6    6    0    0 -0.61491636566E+02  0.69062827328E+02 -0.52984539080E+02  0.10657512312E+03  0.00000000000E+00 0. -1.
         -5    1    3    3    0  503  0.12602123608E+02 -0.64951563523E+02 -0.30823724997E+02  0.73141719601E+02  0.47000000000E+01 0.  1.
         11    1    4    4    0    0  0.19614859975E+02 -0.27526921185E+02 -0.46018517006E+02  0.57097968696E+02  0.00000000000E+00 0. -1.
        -12    1    4    4    0    0  0.15664083815E+03  0.24258480201E+02 -0.14962794663E+03  0.21797556847E+03  0.00000000000E+00 0.  1.
</event>
<event>
12    1  0.1035051E+000  0.2734976E+03  0.7818608E-02  0.1099435E+00
         21   -1    0    0  501  502  0.00000000000E+00  0.00000000000E+00  0.11737024909E+04  0.11737024909E+04  0.00000000000E+00 0. -1.
         21   -1    0    0  502  503 -0.00000000000E+00 -0.00000000000E+00 -0.64485493573E+02  0.64485493573E+02  0.00000000000E+00 0. -1.
         -6    2    1    2    0  503  0.19226611595E+03  0.90653424029E+02  0.63217307174E+03  0.68879876051E+03  0.17209484949E+03 0.  0.
        -24    2    3    3    0    0  0.20626676266E+03  0.10970660235E+03  0.54841814842E+03  0.60164361785E+03  0.81431329383E+02 0.  0.
          6    2    1    2  501    0 -0.19226611595E+03 -0.90653424029E+02  0.47704392562E+03  0.54938922399E+03  0.17050897290E+03 0.  0.
         24    2    5    5    0    0 -0.47892828810E+02 -0.83473198929E+02  0.26082752716E+03  0.28926075067E+03  0.79870426070E+02 0.  0.
          5    1    5    5  501    0 -0.14437328714E+03 -0.71802251002E+01  0.21621639846E+03  0.26012847333E+03  0.47000000000E+01 0. -1.
        -13    1    6    6    0    0 -0.33840393667E+02 -0.38919576894E+02  0.45035599469E+02  0.68469781135E+02  0.00000000000E+00 0.  1.
         14    1    6    6    0    0 -0.14052435143E+02 -0.44553622035E+02  0.21579192769E+03  0.22079096953E+03  0.00000000000E+00 0. -1.
         -5    1    3    3    0  503 -0.14000646707E+02 -0.19053178322E+02  0.83754923316E+02  0.87155142660E+02  0.47000000000E+01 0.  1.
         13    1    4    4    0    0  0.18224901590E+03  0.59987450546E+02  0.43836407563E+03  0.47851464013E+03  0.00000000000E+00 0. -1.
        -14    1    4    4    0    0  0.24017746760E+02  0.49719151805E+02  0.11005407279E+03  0.12312897772E+03  0.00000000000E+00 0.  1.
</event>
<event>
12    1  0.1035051E+000  0.1933055E+03  0.7818608E-02  0.1160145E+00
         21   -1    0    0  501  502  0.00000000000E+00  0.00000000000E+00  0.14804644734E+03  0.14804644734E+03  0.00000000000E+00 0.  1.
         21   -1    0    0  502  503 -0.00000000000E+00 -0.00000000000E+00 -0.24662040100E+03  0.24662040100E+03  0.00000000000E+00 0.  1.
         -6    2    1    2    0  503 -0.20920392073E+02  0.12676291265E+02  0.85077972064E+01  0.17368380135E+03  0.17174204224E+03 0.  0.
        -24    2    3    3    0    0  0.43015201459E+02  0.35799436309E+02 -0.18978740248E+02  0.10019883895E+03  0.80917906234E+02 0.  0.
          6    2    1    2  501    0  0.20920392073E+02 -0.12676291265E+02 -0.10708175087E+03  0.22098304699E+03  0.19175154374E+03 0.  0.
         24    2    5    5    0    0 -0.22816700744E+02  0.45387303736E+02 -0.11437278852E+03  0.14777400669E+03  0.78583796838E+02 0.  0.
          5    1    5    5  501    0  0.43737092817E+02 -0.58063595001E+02  0.72910376518E+01  0.73209040306E+02  0.47000000000E+01 0. -1.
        -11    1    6    6    0    0 -0.43418605556E+02  0.47888649948E+02 -0.54982275862E+02  0.84861939414E+02  0.00000000000E+00 0.  1.
         12    1    6    6    0    0  0.20601904813E+02 -0.25013462113E+01 -0.59390512658E+02  0.62912067273E+02  0.00000000000E+00 0. -1.
         -5    1    3    3    0  503 -0.63935593532E+02 -0.23123145045E+02  0.27486537454E+02  0.73484962395E+02  0.47000000000E+01 0.  1.
         13    1    4    4    0    0 -0.15832391259E+02  0.75776320598E+01 -0.29268112948E+02  0.34127812062E+02  0.00000000000E+00 0. -1.
        -14    1    4    4    0    0  0.58847592717E+02  0.28221804250E+02  0.10289372700E+02  0.66071026890E+02  0.00000000000E+00 0.  1.
</event>
<event>
12    1  0.1035051E+000  0.2003366E+03  0.7818608E-02  0.1149458E+00
         21   -1    0    0  501  502  0.00000000000E+00  0.00000000000E+00  0.17288582068E+03  0.17288582068E+03  0.00000000000E+00 0.  1.
         21   -1    0    0  502  503 -0.00000000000E+00 -0.00000000000E+00 -0.27698564268E+03  0.27698564268E+03  0.00000000000E+00 0.  1.
         -6    2    1    2    0  503 -0.40776136147E+02  0.94720275578E+02  0.38470003252E+02  0.20398345855E+03  0.17174017097E+03 0.  0.
        -24    2    3    3    0    0 -0.37449538627E+02  0.66101834177E+02  0.91285121395E+02  0.14363772014E+03  0.80789237120E+02 0.  0.
          6    2    1    2  501    0  0.40776136147E+02 -0.94720275578E+02 -0.14256982525E+03  0.24588800481E+03  0.17175602451E+03 0.  0.
         24    2    5    5    0    0  0.93664014663E+02 -0.64982912007E+02 -0.96811819025E+02  0.16974784708E+03  0.80287463467E+02 0.  0.
          5    1    5    5  501    0 -0.52887878516E+02 -0.29737363571E+02 -0.45758006222E+02  0.76140157732E+02  0.47000000000E+01 0. -1.
        -11    1    6    6    0    0  0.36015447743E+02 -0.57063904810E+02 -0.14623314807E+02  0.69045224630E+02  0.00000000000E+00 0.  1.
         12    1    6    6    0    0  0.57648566920E+02 -0.79190071970E+01 -0.82188504218E+02  0.10070262245E+03  0.00000000000E+00 0. -1.
         -5    1    3    3    0  503 -0.33265975201E+01  0.28618441401E+02 -0.52815118143E+02  0.60345738406E+02  0.47000000000E+01 0.  1.
         11    1    4    4    0    0 -0.32038073984E+02  0.83615720366E+02  0.61378672403E+02  0.10856043618E+03  0.00000000000E+00 0. -1.
        -12    1    4    4    0    0 -0.54114646432E+01 -0.17513886189E+02  0.29906448992E+02  0.35077283965E+02  0.00000000000E+00 0.  1.
</event>
<event>
12    1  0.1035051E+000  0.2054306E+03  0.7818608E-02  0.1147941E+00
         21   -1    0    0  503  502  0.00000000000E+00  0.00000000000E+00  0.84238317689E+02  0.84238317689E+02  0.00000000000E+00 0.  1.
         21   -1    0    0  501  503 -0.00000000000E+00 -0.00000000000E+00 -0.47610410182E+03  0.47610410182E+03  0.00000000000E+00 0.  1.
          6    2    1    2  501    0  0.29862458542E+02  0.81099550646E+02 -0.17095207834E+03  0.26725703849E+03  0.18636740055E+03 0.  0.
         24    2    3    3    0    0 -0.35306782197E+02  0.99517835723E+02 -0.13978103196E+03  0.19255772594E+03  0.79933550066E+02 0.  0.
         -6    2    1    2    0  502 -0.29862458542E+02 -0.81099550646E+02 -0.22091370579E+03  0.29308538101E+03  0.17212574362E+03 0.  0.
        -24    2    5    5    0    0 -0.77364750160E+02 -0.43446015923E+02 -0.19046393883E+03  0.22508880247E+03  0.80719242661E+02 0.  0.
          5    1    3    3  501    0  0.65169240740E+02 -0.18418285077E+02 -0.31171046383E+02  0.74699312556E+02  0.47000000000E+01 0. -1.
        -11    1    4    4    0    0 -0.45597894762E+02  0.16402521603E+02 -0.56757409682E+02  0.74629848422E+02  0.00000000000E+00 0.  1.
         12    1    4    4    0    0  0.10291112565E+02  0.83115314120E+02 -0.83023622278E+02  0.11792787752E+03  0.00000000000E+00 0. -1.
         -5    1    5    5    0  502  0.47502291618E+02 -0.37653534723E+02 -0.30449766956E+02  0.67996578544E+02  0.47000000000E+01 0.  1.
         13    1    6    6    0    0  0.59087362991E+00  0.25627023512E+00 -0.92432026063E+02  0.92434269880E+02  0.00000000000E+00 0. -1.
        -14    1    6    6    0    0 -0.77955623790E+02 -0.43702286158E+02 -0.98031912766E+02  0.13265453259E+03  0.00000000000E+00 0.  1.
</event>
<event>
12    1  0.1035051E+000  0.1949431E+03  0.7818608E-02  0.1154174E+00
         21   -1    0    0  503  502  0.00000000000E+00  0.00000000000E+00  0.57405597592E+03  0.57405597592E+03  0.00000000000E+00 0. -1.
         21   -1    0    0  501  503 -0.00000000000E+00 -0.00000000000E+00 -0.78242364738E+02  0.78242364738E+02  0.00000000000E+00 0. -1.
          6    2    1    2  501    0  0.89979794827E+02 -0.15642095787E+02  0.11939786387E+03  0.22860150134E+03  0.17222589201E+03 0.  0.
         24    2    3    3    0    0  0.33584574202E+02 -0.20765072473E+02  0.14190309475E+03  0.16748488154E+03  0.79721925372E+02 0.  0.
         -6    2    1    2    0  502 -0.89979794827E+02  0.15642095787E+02  0.37641574731E+03  0.42369683932E+03  0.17172407574E+03 0.  0.
        -24    2    5    5    0    0 -0.12927602174E+03  0.12471142461E+02  0.32332035648E+03  0.35739858201E+03  0.79560507258E+02 0.  0.
          5    1    3    3  501    0  0.56395220625E+02  0.51229766859E+01 -0.22505230876E+02  0.61116619804E+02  0.47000000000E+01 0. -1.
        -13    1    4    4    0    0  0.27145684717E+02 -0.43114160339E+02  0.13326929599E+03  0.14267594147E+03  0.00000000000E+00 0.  1.
         14    1    4    4    0    0  0.64388894849E+01  0.22349087865E+02  0.86337987567E+01  0.24808940066E+02  0.00000000000E+00 0. -1.
         -5    1    5    5    0  502  0.39296226917E+02  0.31709533266E+01  0.53095390834E+02  0.66298257313E+02  0.47000000000E+01 0.  1.
         13    1    6    6    0    0 -0.34458790504E+02 -0.23952402624E+02  0.47041083283E+02  0.63039585586E+02  0.00000000000E+00 0. -1.
        -14    1    6    6    0    0 -0.94817231241E+02  0.36423545085E+02  0.27627927319E+03  0.29435899642E+03  0.00000000000E+00 0.  1.
</event>
<event>
12    1  0.1035051E+000  0.2466442E+03  0.7818608E-02  0.1115740E+00
         21   -1    0    0  501  502  0.00000000000E+00  0.00000000000E+00  0.11219538893E+04  0.11219538893E+04  0.00000000000E+00 0. -1.
         21   -1    0    0  502  503 -0.00000000000E+00 -0.00000000000E+00 -0.56353261514E+02  0.56353261514E+02  0.00000000000E+00 0. -1.
         -6    2    1    2    0  503 -0.45234936111E+02  0.16837363616E+03  0.65584404082E+03  0.70004587955E+03  0.17186316303E+03 0.  0.
        -24    2    3    3    0    0  0.21983314617E+02  0.11489452242E+02  0.91034344727E+02  0.10999247249E+03  0.56531570377E+02 0.  0.
          6    2    1    2  501    0  0.45234936111E+02 -0.16837363616E+03  0.40975658692E+03  0.47826127121E+03  0.17446346958E+03 0.  0.
         24    2    5    5    0    0  0.15349332298E+02 -0.18088460511E+03  0.27317667411E+03  0.33781257509E+03  0.80851705253E+02 0.  0.
          5    1    5    5  501    0  0.29885603812E+02  0.12510968951E+02  0.13657991281E+03  0.14044869612E+03  0.47000000000E+01 0. -1.
        -13    1    6    6    0    0  0.41697885524E+02 -0.10982618052E+03  0.12599508431E+03  0.17226510051E+03  0.00000000000E+00 0.  1.
         14    1    6    6    0    0 -0.26348553225E+02 -0.71058424597E+02  0.14718158980E+03  0.16554747458E+03  0.00000000000E+00 0. -1.
         -5    1    3    3    0  503 -0.67218250728E+02  0.15688418392E+03  0.56480969609E+03  0.59005340707E+03  0.47000000000E+01 0.  1.
         13    1    4    4    0    0  0.31775905119E+02  0.16242889119E+02  0.26253221313E+02  0.44303173954E+02  0.00000000000E+00 0. -1.
        -14    1    4    4    0    0 -0.97925905022E+01 -0.47534368774E+01  0.64781123414E+02  0.65689298532E+02  0.00000000000E+00 0.  1.
</event>
<event>
12    1  0.1035051E+000  0.2156329E+03  0.7818608E-02  0.1137234E+00
         21   -1    0    0  503  502  0.00000000000E+00  0.00000000000E+00  0.13144193048E+03  0.13144193048E+03  0.00000000000E+00 0.  1.
         21   -1    0    0  501  503 -0.00000000000E+00 -0.00000000000E+00 -0.45037483802E+03  0.45037483802E+03  0.00000000000E+00 0.  1.
          6    2    1    2  501    0 -0.10630226008E+03  0.74282946297E+02 -0.29444695830E+03  0.36479808642E+03  0.17193168992E+03 0.  0.
         24    2    3    3    0    0 -0.41005151030E+02  0.70378618035E+02 -0.27322630944E+03  0.29586796117E+03  0.79061128164E+02 0.  0.
         -6    2    1    2    0  502  0.10630226008E+03 -0.74282946297E+02 -0.24485949242E+02  0.21701868208E+03  0.17227716056E+03 0.  0.
        -24    2    5    5    0    0  0.11726029563E+03 -0.90162102662E+02 -0.58569660135E+02  0.17757231979E+03  0.78881822867E+02 0.  0.
          5    1    3    3  501    0 -0.65297109053E+02  0.39043282615E+01 -0.21220648855E+02  0.68930125255E+02  0.47000000000E+01 0. -1.
        -11    1    4    4    0    0  0.18381232386E+02 -0.35135681948E+01 -0.44755832226E+02  0.48510817183E+02  0.00000000000E+00 0.  1.
         12    1    4    4    0    0 -0.59386383416E+02  0.73892186230E+02 -0.22847047721E+03  0.24735714398E+03  0.00000000000E+00 0. -1.
         -5    1    5    5    0  502 -0.10958035545E+02  0.15879156366E+02  0.34083710893E+02  0.39446362293E+02  0.47000000000E+01 0.  1.
         13    1    6    6    0    0  0.31065539353E+02 -0.42927402849E+02 -0.58974091098E+02  0.79282867452E+02  0.00000000000E+00 0. -1.
        -14    1    6    6    0    0  0.86194756275E+02 -0.47234699813E+02  0.40443096244E+00  0.98289452334E+02  0.00000000000E+00 0.  1.
</event>
<event>
12    1  0.1035051E+000  0.3222818E+03  0.7818608E-02  0.1074670E+00
         21   -1    0    0  503  502  0.00000000000E+00  0.00000000000E+00  0.56247854922E+03  0.56247854922E+03  0.00000000000E+00 0. -1.
         21   -1    0    0  501  503 -0.00000000000E+00 -0.00000000000E+00 -0.19222661040E+03  0.19222661040E+03  0.00000000000E+00 0. -1.
          6    2    1    2  501    0  0.19742322368E+03  0.18621787699E+03  0.26148063529E+03  0.41456289887E+03  0.17273461589E+03 0.  0.
         24    2    3    3    0    0  0.20024151179E+03  0.12058141385E+03  0.24250278350E+03  0.34601848334E+03  0.79275786970E+02 0.  0.
         -6    2    1    2    0  502 -0.19742322368E+03 -0.18621787699E+03  0.10877130354E+03  0.34014226075E+03  0.17381753111E+03 0.  0.
        -24    2    5    5    0    0 -0.87476822788E+02 -0.11572251768E+03  0.12635872223E+03  0.20827409155E+03  0.79797712395E+02 0.  0.
          5    1    3    3  501    0 -0.28182881073E+01  0.65636463143E+02  0.18977851792E+02  0.68544415530E+02  0.47000000000E+01 0. -1.
        -13    1    4    4    0    0  0.16153572136E+03  0.12435838756E+03  0.17767427590E+03  0.27041994406E+03  0.00000000000E+00 0.  1.
         14    1    4    4    0    0  0.38705790424E+02 -0.37769737105E+01  0.64828507598E+02  0.75598539272E+02  0.00000000000E+00 0. -1.
         -5    1    5    5    0  502 -0.10994640089E+03 -0.70495359314E+02 -0.17587418696E+02  0.13186816921E+03  0.47000000000E+01 0.  1.
         11    1    6    6    0    0 -0.49220208278E+02 -0.11637166900E+03  0.87171707893E+02  0.15350537745E+03  0.00000000000E+00 0. -1.
        -12    1    6    6    0    0 -0.38256614509E+02  0.64915132445E+00  0.39187014338E+02  0.54768714098E+02  0.00000000000E+00 0.  1.
</event>
<event>
12    1  0.1035051E+000  0.2996995E+03  0.7818608E-02  0.1085487E+00
         21   -1    0    0  503  502  0.00000000000E+00  0.00000000000E+00  0.75897836351E+02  0.75897836351E+02  0.00000000000E+00 0.  1.
         21   -1    0    0  501  503 -0.00000000000E+00 -0.00000000000E+00 -0.12114244713E+04  0.12114244713E+04  0.00000000000E+00 0.  1.
          6    2    1    2  501    0  0.10186119200E+03  0.22454776301E+03 -0.67004023766E+03  0.73370024175E+03  0.16901101842E+03 0.  0.
         24    2    3    3    0    0  0.84173740092E+01  0.83319638539E+02 -0.38615163880E+03  0.40310690119E+03  0.79806461405E+02 0.  0.
         -6    2    1    2    0  502 -0.10186119200E+03 -0.22454776301E+03 -0.46548639726E+03  0.55362206587E+03  0.17035963570E+03 0.  0.
        -24    2    5    5    0    0 -0.57029499187E+02 -0.14692772874E+03 -0.40852746226E+03  0.44731514852E+03  0.91411341862E+02 0.  0.
          5    1    3    3  501    0  0.93443817991E+02  0.14122812447E+03 -0.28388859886E+03  0.33059334056E+03  0.47000000000E+01 0. -1.
        -11    1    4    4    0    0  0.23299919212E+02  0.20378802481E+02 -0.25503135948E+03  0.25690304814E+03  0.00000000000E+00 0.  1.
         12    1    4    4    0    0 -0.14882545202E+02  0.62940836058E+02 -0.13112027932E+03  0.14620385304E+03  0.00000000000E+00 0. -1.
         -5    1    5    5    0  502 -0.44831692813E+02 -0.77620034274E+02 -0.56958934994E+02  0.10630691735E+03  0.47000000000E+01 0.  1.
         13    1    6    6    0    0 -0.60745838012E+02 -0.13067603068E+03 -0.25513193263E+03  0.29301635599E+03  0.00000000000E+00 0. -1.
        -14    1    6    6    0    0  0.37163388246E+01 -0.16251698055E+02 -0.15339552963E+03  0.15429879253E+03  0.00000000000E+00 0.  1.
</event>
<event>
12    1  0.1035051E+000  0.1989058E+03  0.7818608E-02  0.1150708E+00
         21   -1    0    0  501  502  0.00000000000E+00  0.00000000000E+00  0.42028380157E+03  0.42028380157E+03  0.00000000000E+00 0.  1.
         21   -1    0    0  502  503 -0.00000000000E+00 -0.00000000000E+00 -0.97294073947E+02  0.97294073947E+02  0.00000000000E+00 0.  1.
         -6    2    1    2    0  503 -0.81231836856E+01 -0.99653343732E+02  0.11424503764E+03  0.22938059469E+03  0.17194985771E+03 0.  0.
        -24    2    3    3    0    0  0.45368978273E+02 -0.18428192756E+02  0.25523731442E+02  0.97651718908E+02  0.80538530290E+02 0.  0.
          6    2    1    2  501    0  0.81231836856E+01  0.99653343732E+02  0.20874468999E+03  0.28819728083E+03  0.17171648741E+03 0.  0.
         24    2    5    5    0    0 -0.17316449965E+02 -0.11370164816E+02  0.71415570996E+02  0.10971823070E+03  0.80676925327E+02 0.  0.
          5    1    5    5  501    0  0.25439633651E+02  0.11102350855E+03  0.13732911899E+03  0.17847905012E+03  0.47000000000E+01 0. -1.
        -11    1    6    6    0    0 -0.46833678335E+02 -0.16139031494E+02  0.27699342013E+02  0.56754870380E+02  0.00000000000E+00 0.  1.
         12    1    6    6    0    0  0.29517228370E+02  0.47688666783E+01  0.43716228983E+02  0.52963360321E+02  0.00000000000E+00 0. -1.
         -5    1    3    3    0  503 -0.53492161959E+02 -0.81225150976E+02  0.88721306194E+02  0.13172887578E+03  0.47000000000E+01 0.  1.
         11    1    4    4    0    0  0.33674229271E+02 -0.41384714436E+02  0.41273932864E+02  0.67455065340E+02  0.00000000000E+00 0. -1.
        -12    1    4    4    0    0  0.11694749001E+02  0.22956521680E+02 -0.15750201423E+02  0.30196653568E+02  0.00000000000E+00 0.  1.
</event>
<event>
12    1  0.1035051E+000  0.1836704E+03  0.7818608E-02  0.1164309E+00
         21   -1    0    0  503  502  0.00000000000E+00  0.00000000000E+00  0.10997469372E+04  0.10997469372E+04  0.00000000000E+00 0.  1.
         21   -1    0    0  501  503 -0.00000000000E+00 -0.00000000000E+00 -0.31808027161E+02  0.31808027161E+02  0.00000000000E+00 0.  1.
          6    2    1    2  501    0 -0.95118891111E+01 -0.64305899793E+02  0.42672348348E+03  0.46455269369E+03  0.17172812547E+03 0.  0.
         24    2    3    3    0    0 -0.27718426450E+02 -0.78741429506E+01  0.37894440544E+03  0.38825753342E+03  0.79465316655E+02 0.  0.
         -6    2    1    2    0  502  0.95118891111E+01  0.64305899793E+02  0.64121542656E+03  0.66700227067E+03  0.17178207427E+03 0.  0.
        -24    2    5    5    0    0  0.59489390747E+02  0.83873041778E+02  0.46000626401E+03  0.47795340316E+03  0.79120274995E+02 0.  0.
          5    1    3    3  501    0  0.18206537339E+02 -0.56431756842E+02  0.47779078039E+02  0.76295160269E+02  0.47000000000E+01 0. -1.
        -13    1    4    4    0    0 -0.13909003337E+02  0.35559385725E+02  0.19908647622E+03  0.20271496072E+03  0.00000000000E+00 0.  1.
         14    1    4    4    0    0 -0.13809423113E+02 -0.43433528676E+02  0.17985792922E+03  0.18554257269E+03  0.00000000000E+00 0. -1.
         -5    1    5    5    0  502 -0.49977501636E+02 -0.19567141985E+02  0.18120916255E+03  0.18904886751E+03  0.47000000000E+01 0.  1.
         11    1    6    6    0    0 -0.12583769754E+02  0.30000779158E+02  0.63308090059E+02  0.71178032273E+02  0.00000000000E+00 0. -1.
        -12    1    6    6    0    0  0.72073160501E+02  0.53872262620E+02  0.39669817395E+03  0.40677537089E+03  0.00000000000E+00 0.  1.
</event>
<event>
12    1  0.1035051E+000  0.1770679E+03  0.7818608E-02  0.1171054E+00
         21   -1    0    0  501  502  0.00000000000E+00  0.00000000000E+00  0.25614394445E+03  0.25614394445E+03  0.00000000000E+00 0. -1.
         21   -1    0    0  502  503 -0.00000000000E+00 -0.00000000000E+00 -0.12491186916E+03  0.12491186916E+03  0.00000000000E+00 0. -1.
         -6    2    1    2    0  503  0.30163880859E+02 -0.26783998331E+02  0.98109636340E+02  0.20243154050E+03  0.17241167470E+03 0.  0.
        -24    2    3    3    0    0 -0.39032268222E+02  0.54836668097E+01  0.85874033754E+02  0.12496471385E+03  0.81781669521E+02 0.  0.
          6    2    1    2  501    0 -0.30163880859E+02  0.26783998331E+02  0.33122438953E+02  0.17862427311E+03  0.17082825500E+03 0.  0.
         24    2    5    5    0    0 -0.79886492371E+02  0.46677124098E+02  0.23112433911E+02  0.12394004550E+03  0.79160246971E+02 0.  0.
          5    1    5    5  501    0  0.49722611512E+02 -0.19893125768E+02  0.10010005042E+02  0.54684227610E+02  0.47000000000E+01 0. -1.
        -13    1    6    6    0    0 -0.45709483935E+02 -0.67560586769E+01  0.36778057458E+02  0.59056132288E+02  0.00000000000E+00 0.  1.
         14    1    6    6    0    0 -0.34177008436E+02  0.53433182775E+02 -0.13665623547E+02  0.64883913215E+02  0.00000000000E+00 0. -1.
         -5    1    3    3    0  503  0.69196149082E+02 -0.32267665140E+02  0.12235602586E+02  0.77466826655E+02  0.47000000000E+01 0.  1.
         13    1    4    4    0    0 -0.52384982776E+02 -0.71621105737E+01  0.19929269151E+02  0.56503610656E+02  0.00000000000E+00 0. -1.
        -14    1    4    4    0    0  0.13352714554E+02  0.12645777383E+02  0.65944764604E+02  0.68461103192E+02  0.00000000000E+00 0.  1.
</event>
<event>
12    1  0.1035051E+000  0.2015448E+03  0.7818608E-02  0.1148547E+00
         21   -1    0    0  501  502  0.00000000000E+00  0.00000000000E+00  0.74861752963E+03  0.74861752963E+03  0.00000000000E+00 0. -1.
         21   -1    0    0  502  503 -0.00000000000E+00 -0.00000000000E+00 -0.55450875626E+02  0.55450875626E+02  0.00000000000E+00 0. -1.
         -6    2    1    2    0  503 -0.98415187107E+02 -0.36676915293E+02  0.40916375502E+03  0.45610885987E+03  0.17201618662E+03 0.  0.
        -24    2    3    3    0    0 -0.49580905985E+02  0.23169478084E+02  0.33435406144E+03  0.34847541680E+03  0.81531507775E+02 0.  0.
          6    2    1    2  501    0  0.98415187107E+02  0.36676915293E+02  0.28400289899E+03  0.34795954539E+03  0.17142769154E+03 0.  0.
         24    2    5    5    0    0  0.38506943940E+02  0.62780166895E+02  0.83293317280E+02  0.13682735094E+03  0.79748436818E+02 0.  0.
          5    1    5    5  501    0  0.59908243167E+02 -0.26103251602E+02  0.20070958171E+03  0.21113219445E+03  0.47000000000E+01 0. -1.
        -11    1    6    6    0    0  0.25543472610E+02 -0.36655924263E+01  0.59864374498E+02  0.65189331143E+02  0.00000000000E+00 0.  1.
         12    1    6    6    0    0  0.12963471331E+02  0.66445759321E+02  0.23428942782E+02  0.71638019798E+02  0.00000000000E+00 0. -1.
         -5    1    3    3    0  503 -0.48834281123E+02 -0.59846393376E+02  0.74809693572E+02  0.10763344306E+03  0.47000000000E+01 0.  1.
         13    1    4    4    0    0 -0.55888630967E+02  0.41702870001E+01  0.31719771289E+03  0.32211072542E+03  0.00000000000E+00 0. -1.
        -14    1    4    4    0    0  0.63077249821E+01  0.18999191084E+02  0.17156348550E+02  0.26364691386E+02  0.00000000000E+00 0.  1.
</event>
<event>
12    1  0.1035051E+000  0.2683447E+03  0.7818608E-02  0.1102297E+00
         21   -1    0    0  501  502  0.00000000000E+00  0.00000000000E+00  0.23190582168E+02  0.23190582168E+02  0.00000000000E+00 0. -1.
         21   -1    0    0  502  503 -0.00000000000E+00 -0.00000000000E+00 -0.31333208989E+04  0.31333208989E+04  0.00000000000E+00 0. -1.
         -6    2    1    2    0  503  0.10732267023E+03  0.17501308509E+03 -0.13905388428E+04  0.14161081647E+04  0.17209394334E+03 0.  0.
        -24    2    3    3    0    0  0.68745176056E+02  0.18989445322E+03 -0.12748530489E+04  0.12931652060E+04  0.78994628065E+02 0.  0.
          6    2    1    2  501    0 -0.10732267023E+03 -0.17501308509E+03 -0.17195914740E+04  0.17404033164E+04  0.17280373510E+03 0.  0.
         24    2    5    5    0    0  0.88081258765E+01 -0.69999591940E+02 -0.95395040756E+03  0.95890313846E+03  0.67054626225E+02 0.  0.
          5    1    5    5  501    0 -0.11613079610E+03 -0.10501349315E+03 -0.76564106643E+03  0.78150017796E+03  0.47000000000E+01 0. -1.
        -11    1    6    6    0    0  0.48460784102E+01 -0.42261178579E+02 -0.20197580870E+03  0.20640668350E+03  0.00000000000E+00 0.  1.
         12    1    6    6    0    0  0.39620474663E+01 -0.27738413361E+02 -0.75197459886E+03  0.75249645496E+03  0.00000000000E+00 0. -1.
         -5    1    3    3    0  503  0.38577494173E+02 -0.14881368129E+02 -0.11568579393E+03  0.12294295869E+03  0.47000000000E+01 0.  1.
         11    1    4    4    0    0 -0.57639697858E+01 -0.39632401062E+01 -0.88056869857E+02  0.88334268259E+02  0.00000000000E+00 0. -1.
        -12    1    4    4    0    0  0.74509145841E+02  0.19385769333E+03 -0.11867961790E+04  0.12048309377E+04  0.00000000000E+00 0.  1.
</event>
<event>
12    1  0.1035051E+000  0.1888163E+03  0.7818608E-02  0.1160029E+00
         21   -1    0    0  501  502  0.00000000000E+00  0.00000000000E+00  0.17048592845E+04  0.17048592845E+04  0.00000000000E+00 0.  1.
         21   -1    0    0  502  503 -0.00000000000E+00 -0.00000000000E+00 -0.29062283535E+02  0.29062283535E+02  0.00000000000E+00 0.  1.
         -6    2    1    2    0  503 -0.48988392123E+02  0.52392146908E+02  0.13002649263E+04  0.13135932222E+04  0.17231794762E+03 0.  0.
        -24    2    3    3    0    0 -0.95893516852E+02  0.61918334128E+02  0.90689574402E+03  0.91729504837E+03  0.77077030068E+02 0.  0.
          6    2    1    2  501    0  0.48988392123E+02 -0.52392146908E+02  0.37553207466E+03  0.42032834589E+03  0.17466190093E+03 0.  0.
         24    2    5    5    0    0 -0.14925859136E+02  0.13968597772E+02  0.99460771945E+02  0.12925063439E+03  0.79971109405E+02 0.  0.
          5    1    5    5  501    0  0.63914251260E+02 -0.66360744680E+02  0.27607130271E+03  0.29107771150E+03  0.47000000000E+01 0. -1.
        -13    1    6    6    0    0  0.12731747111E+02  0.40871182736E+02  0.62979512356E+02  0.76150968079E+02  0.00000000000E+00 0.  1.
         14    1    6    6    0    0 -0.27657606248E+02 -0.26902584964E+02  0.36481259589E+02  0.53099666311E+02  0.00000000000E+00 0. -1.
         -5    1    3    3    0  503  0.46905124729E+02 -0.95261872203E+01  0.39336918231E+03  0.39629817381E+03  0.47000000000E+01 0.  1.
         13    1    4    4    0    0 -0.45098187107E+02  0.37259932242E+02  0.20647674467E+03  0.21460380966E+03  0.00000000000E+00 0. -1.
        -14    1    4    4    0    0 -0.50795329746E+02  0.24658401887E+02  0.70041899935E+03  0.70269123871E+03  0.00000000000E+00 0.  1.
</event>
<event>
12    1  0.1035051E+000  0.6385478E+03  0.7818608E-02  0.9828669E-01
         21   -1    0    0  503  502  0.00000000000E+00  0.00000000000E+00  0.16376226732E+04  0.16376226732E+04  0.00000000000E+00 0.  1.
         21   -1    0    0  501  503 -0.00000000000E+00 -0.00000000000E+00 -0.24891527859E+03  0.24891527859E+03  0.00000000000E+00 0. -1.
          6    2    1    2  501    0 -0.48768155638E+03  0.37462301177E+03  0.70889720616E+03  0.95386158599E+03  0.17070727850E+03 0.  0.
         24    2    3    3    0    0 -0.24792279555E+03  0.14189296264E+03  0.26109322428E+03  0.39511474228E+03  0.79665942540E+02 0.  0.
         -6    2    1    2    0  502  0.48768155638E+03 -0.37462301177E+03  0.67981018844E+03  0.93267636579E+03  0.17195234694E+03 0.  0.
        -24    2    5    5    0    0  0.25722756450E+03 -0.17244879540E+03  0.43774760287E+03  0.54203606901E+03  0.79218238517E+02 0.  0.
          5    1    3    3  501    0 -0.23975876083E+03  0.23273004913E+03  0.44780398188E+03  0.55874684371E+03  0.47000000000E+01 0. -1.
        -11    1    4    4    0    0 -0.72479769296E+02  0.82322453467E+02  0.77669595773E+02  0.13439817487E+03  0.00000000000E+00 0.  1.
         12    1    4    4    0    0 -0.17544302626E+03  0.59570509176E+02  0.18342362851E+03  0.26071656741E+03  0.00000000000E+00 0. -1.
         -5    1    5    5    0  502  0.23045399188E+03 -0.20217421637E+03  0.24206258557E+03  0.39064029678E+03  0.47000000000E+01 0.  1.
         11    1    6    6    0    0  0.10506245873E+02 -0.30545930651E+02  0.69308081362E+02  0.76465974288E+02  0.00000000000E+00 0. -1.
        -12    1    6    6    0    0  0.24672131862E+03 -0.14190286475E+03  0.36843952151E+03  0.46557009472E+03  0.00000000000E+00 0.  1.
</event>
<event>
12    1  0.1035051E+000  0.2716146E+03  0.7818608E-02  0.1101397E+00
         21   -1    0    0  501  502  0.00000000000E+00  0.00000000000E+00  0.16590743531E+03  0.16590743531E+03  0.00000000000E+00 0.  1.
         21   -1    0    0  502  503 -0.00000000000E+00 -0.00000000000E+00 -0.47323677442E+03  0.47323677442E+03  0.00000000000E+00 0.  1.
         -6    2    1    2    0  503 -0.16785917447E+03  0.11019309528E+03 -0.58544279195E+02  0.27081219671E+03  0.17202497656E+03 0.  0.
        -24    2    3    3    0    0 -0.48323670570E+02  0.95360168346E+02  0.76948706445E+01  0.13326777703E+03  0.79198172433E+02 0.  0.
          6    2    1    2  501    0  0.16785917447E+03 -0.11019309528E+03 -0.24878505991E+03  0.36833201302E+03  0.18290775019E+03 0.  0.
         24    2    5    5    0    0  0.64384706663E+02 -0.55829103603E+02 -0.30535507422E+02  0.12070857665E+03  0.79849007516E+02 0.  0.
          5    1    5    5  501    0  0.10347446780E+03 -0.54363991681E+02 -0.21824955249E+03  0.24762343637E+03  0.47000000000E+01 0. -1.
        -11    1    6    6    0    0  0.45036407057E+02  0.34327565190E+00  0.13203561284E+02  0.46933248656E+02  0.00000000000E+00 0.  1.
         12    1    6    6    0    0  0.19348299605E+02 -0.56172379255E+02 -0.43739068706E+02  0.73775327990E+02  0.00000000000E+00 0. -1.
         -5    1    3    3    0  503 -0.11953550390E+03  0.14832926938E+02 -0.66239149839E+02  0.13754441968E+03  0.47000000000E+01 0.  1.
         11    1    4    4    0    0 -0.57740597530E+01  0.64730325418E+02  0.35364539110E+02  0.73986521889E+02  0.00000000000E+00 0. -1.
        -12    1    4    4    0    0 -0.42549610817E+02  0.30629842928E+02 -0.27669668465E+02  0.59281255144E+02  0.00000000000E+00 0.  1.
</event>
<event>
12    1  0.1035051E+000  0.2253432E+03  0.7818608E-02  0.1130494E+00
         21   -1    0    0  503  502  0.00000000000E+00  0.00000000000E+00  0.25877418707E+04  0.25877418707E+04  0.00000000000E+00 0.  1.
         21   -1    0    0  501  503 -0.00000000000E+00 -0.00000000000E+00 -0.20600419728E+02  0.20600419728E+02  0.00000000000E+00 0.  1.
          6    2    1    2  501    0 -0.30445116234E+02  0.13855052850E+03  0.95682394578E+03  0.98233428414E+03  0.17130507445E+03 0.  0.
         24    2    3    3    0    0  0.27039709527E+02  0.13747635632E+03  0.62362339109E+03  0.64417698541E+03  0.80168324058E+02 0.  0.
         -6    2    1    2    0  502  0.30445116234E+02 -0.13855052850E+03  0.16103175052E+04  0.16260080063E+04  0.17508973392E+03 0.  0.
        -24    2    5    5    0    0 -0.27594516210E+02 -0.14209777276E+03  0.12083842675E+04  0.12198632052E+04  0.83189345129E+02 0.  0.
          5    1    3    3  501    0 -0.57484825762E+02  0.10741721801E+01  0.33320055469E+03  0.33815729873E+03  0.47000000000E+01 0. -1.
        -13    1    4    4    0    0  0.32728188781E+02  0.18279405906E+02  0.92389428266E+02  0.99704952116E+02  0.00000000000E+00 0.  1.
         14    1    4    4    0    0 -0.56884792538E+01  0.11919695041E+03  0.53123396282E+03  0.54447203329E+03  0.00000000000E+00 0. -1.
         -5    1    5    5    0  502  0.58039632444E+02  0.35472442609E+01  0.40193323770E+03  0.40614480108E+03  0.47000000000E+01 0.  1.
         11    1    6    6    0    0  0.23717810149E+02 -0.89783907505E+02  0.61505140953E+03  0.62202244407E+03  0.00000000000E+00 0. -1.
        -12    1    6    6    0    0 -0.51312326359E+02 -0.52313865254E+02  0.59333285793E+03  0.59784076110E+03  0.00000000000E+00 0.  1.
</event>
<event>
12    1  0.1035051E+000  0.2926853E+03  0.7818608E-02  0.1089007E+00
         21   -1    0    0  503  502  0.00000000000E+00  0.00000000000E+00  0.22002700680E+03  0.22002700680E+03  0.00000000000E+00 0.  1.
         21   -1    0    0  501  503 -0.00000000000E+00 -0.00000000000E+00 -0.52154087610E+03  0.52154087610E+03  0.00000000000E+00 0. -1.
          6    2    1    2  501    0  0.22308192106E+03  0.80787604870E+02  0.36223742034E+02  0.29491835854E+03  0.17138406610E+03 0.  0.
         24    2    3    3    0    0  0.16200575616E+03  0.11761658817E+03  0.51105168974E+02  0.22191001108E+03  0.80949292042E+02 0.  0.
         -6    2    1    2    0  502 -0.22308192106E+03 -0.80787604870E+02 -0.33773761134E+03  0.44664952436E+03  0.17069540970E+03 0.  0.
        -24    2    5    5    0    0 -0.91995909078E+02 -0.98349915236E+02 -0.13680729140E+03  0.20605222439E+03  0.74868759043E+02 0.  0.
          5    1    3    3  501    0  0.61076164902E+02 -0.36828983304E+02 -0.14881426939E+02  0.73008347455E+02  0.47000000000E+01 0. -1.
        -13    1    4    4    0    0  0.10632505323E+03  0.50322823312E+02 -0.56143250197E+01  0.11776639646E+03  0.00000000000E+00 0.  1.
         14    1    4    4    0    0  0.55680702928E+02  0.67293764863E+02  0.56719493993E+02  0.10414361462E+03  0.00000000000E+00 0. -1.
         -5    1    5    5    0  502 -0.13108601198E+03  0.17562310366E+02 -0.20093031994E+03  0.24059729997E+03  0.47000000000E+01 0.  1.
         13    1    6    6    0    0 -0.26975567755E+02 -0.53733197690E+02 -0.16750574354E+02  0.62414097213E+02  0.00000000000E+00 0. -1.
        -14    1    6    6    0    0 -0.65020341323E+02 -0.44616717546E+02 -0.12005671705E+03  0.14363812717E+03  0.00000000000E+00 0.  1.
</event>
<event>
12    1  0.1035051E+000  0.3045741E+03  0.7818608E-02  0.1083053E+00
         21   -1    0    0  501  502  0.00000000000E+00  0.00000000000E+00  0.25538328281E+04  0.25538328281E+04  0.00000000000E+00 0. -1.
         21   -1    0    0  502  503 -0.00000000000E+00 -0.00000000000E+00 -0.36512553149E+02  0.36512553149E+02  0.00000000000E+00 0.  1.
         -6    2    1    2    0  503  0.16573636650E+03 -0.18838884319E+03  0.13672634481E+04  0.14006411730E+04  0.17154433687E+03 0.  0.
        -24    2    3    3    0    0  0.13983789504E+03 -0.84059412385E+02  0.10509503442E+04  0.10665282719E+04  0.79782874883E+02 0.  0.
          6    2    1    2  501    0 -0.16573636650E+03  0.18838884319E+03  0.11500568269E+04  0.11897042083E+04  0.17264558718E+03 0.  0.
         24    2    5    5    0    0 -0.17943760195E+03  0.19457017511E+03  0.96245633569E+03  0.10014438380E+04  0.80697934253E+02 0.  0.
          5    1    5    5  501    0  0.13701235452E+02 -0.61813319201E+01  0.18760049118E+03  0.18826037026E+03  0.47000000000E+01 0. -1.
        -11    1    6    6    0    0 -0.10478792671E+03  0.90315221653E+02  0.36391555878E+03  0.38932233787E+03  0.00000000000E+00 0.  1.
         12    1    6    6    0    0 -0.74649675237E+02  0.10425495346E+03  0.59854077691E+03  0.61212150016E+03  0.00000000000E+00 0. -1.
         -5    1    3    3    0  503  0.25898471457E+02 -0.10432943081E+03  0.31631310389E+03  0.33411290105E+03  0.47000000000E+01 0.  1.
         11    1    4    4    0    0  0.51370701001E+01  0.11811565634E+01  0.24008436245E+03  0.24014221977E+03  0.00000000000E+00 0. -1.
        -12    1    4    4    0    0  0.13470082494E+03 -0.85240568949E+02  0.81086598177E+03  0.82638605217E+03  0.00000000000E+00 0.  1.
</event>
<event>
12    1  0.1035051E+000  0.2032888E+03  0.7818608E-02  0.1148372E+00
         21   -1    0    0  503  502  0.00000000000E+00  0.00000000000E+00  0.74525771641E+03  0.74525771641E+03  0.00000000000E+00 0.  1.
         21   -1    0    0  501  503 -0.00000000000E+00 -0.00000000000E+00 -0.54209696695E+02  0.54209696695E+02  0.00000000000E+00 0.  1.
          6    2    1    2  501    0  0.92946764534E+02  0.49543679012E+02  0.37950881085E+03  0.42746873216E+03  0.16615926785E+03 0.  0.
         24    2    3    3    0    0  0.11800553701E+03  0.69931002274E+02  0.34923616677E+03  0.38294786056E+03  0.76599685958E+02 0.  0.
         -6    2    1    2    0  502 -0.92946764534E+02 -0.49543679012E+02  0.31153920887E+03  0.37199868095E+03  0.17387542322E+03 0.  0.
        -24    2    5    5    0    0 -0.15452070186E+02 -0.76736782400E+02  0.11769715547E+03  0.16142393368E+03  0.77960026368E+02 0.  0.
          5    1    3    3  501    0 -0.25058772476E+02 -0.20387323262E+02  0.30272644081E+02  0.44520871593E+02  0.47000000000E+01 0. -1.
        -13    1    4    4    0    0  0.10517472076E+02  0.27822519803E+02  0.25274335489E+02  0.39032061968E+02  0.00000000000E+00 0.  1.
         14    1    4    4    0    0  0.10748806493E+03  0.42108482471E+02  0.32396183128E+03  0.34391579860E+03  0.00000000000E+00 0. -1.
         -5    1    5    5    0  502 -0.77494694348E+02  0.27193103388E+02  0.19384205340E+03  0.21057474727E+03  0.47000000000E+01 0.  1.
         11    1    6    6    0    0 -0.29405634788E+01 -0.22726485973E+01 -0.11331459380E+02  0.11925343471E+02  0.00000000000E+00 0. -1.
        -12    1    6    6    0    0 -0.12511506707E+02 -0.74464133803E+02  0.12902861485E+03  0.14949859020E+03  0.00000000000E+00 0.  1.
</event>
<event>
12    1  0.1035051E+000  0.2910065E+03  0.7818608E-02  0.1090066E+00
         21   -1    0    0  503  502  0.00000000000E+00  0.00000000000E+00  0.60559665412E+03  0.60559665412E+03  0.00000000000E+00 0. -1.
         21   -1    0    0  501  503 -0.00000000000E+00 -0.00000000000E+00 -0.18115940560E+03  0.18115940560E+03  0.00000000000E+00 0. -1.
          6    2    1    2  501    0 -0.14909661613E+03  0.17863477095E+03  0.21814660175E+02  0.28997670004E+03  0.17166952216E+03 0.  0.
         24    2    3    3    0    0 -0.14984479501E+03  0.15194411789E+03 -0.32302638882E+02  0.22944800611E+03  0.77861733054E+02 0.  0.
         -6    2    1    2    0  502  0.14909661613E+03 -0.17863477095E+03  0.40262258835E+03  0.49677935968E+03  0.17477013825E+03 0.  0.
        -24    2    5    5    0    0  0.11464232926E+03 -0.19786933654E+03  0.38191496908E+03  0.45196907187E+03  0.78242317961E+02 0.  0.
          5    1    3    3  501    0  0.74817888297E+00  0.26690653053E+02  0.54117299058E+02  0.60528693934E+02  0.47000000000E+01 0. -1.
        -11    1    4    4    0    0 -0.74405089919E+02  0.12757544418E+03 -0.25570219629E+02  0.14988478073E+03  0.00000000000E+00 0.  1.
         12    1    4    4    0    0 -0.75439705093E+02  0.24368673711E+02 -0.67324192537E+01  0.79563225374E+02  0.00000000000E+00 0. -1.
         -5    1    5    5    0  502  0.34454286873E+02  0.19234565594E+02  0.20707619261E+02  0.44810287802E+02  0.47000000000E+01 0.  1.
         11    1    6    6    0    0  0.14571361261E+02  0.50500560003E+01  0.25866813629E+02  0.30115107205E+02  0.00000000000E+00 0. -1.
        -12    1    6    6    0    0  0.10007096800E+03 -0.20291939254E+03  0.35604815546E+03  0.42185396467E+03  0.00000000000E+00 0.  1.
</event>
<event>
12    1  0.1732936E+000  0.6161712E+03  0.7818608E-02  0.9872430E-01
         21   -1    0    0  501  502  0.00000000000E+00  0.00000000000E+00  0.98868232845E+03  0.98868232845E+03  0.00000000000E+00 0. -1.
         21   -1    0    0  502  503 -0.00000000000E+00 -0.00000000000E+00 -0.54685212154E+03  0.54685212154E+03  0.00000000000E+00 0. -1.
         -6    2    1    2    0  503 -0.36441090747E+03 -0.46635133956E+03  0.63990947185E+03  0.88834177955E+03  0.17142958829E+03 0.  0.
        -24    2    3    3    0    0 -0.20862082698E+03 -0.17657021011E+03  0.29259689286E+03  0.40991543236E+03  0.87852327375E+02 0.  0.
          6    2    1    2  501    0  0.36441090747E+03  0.46635133956E+03 -0.19807926494E+03  0.64719267043E+03  0.17130112687E+03 0.  0.
         24    2    5    5    0    0  0.19115509365E+03  0.24676729126E+03 -0.17495260174E+03  0.36649414204E+03  0.79216017510E+02 0.  0.
          5    1    5    5  501    0  0.17325581382E+03  0.21958404830E+03 -0.23126663204E+02  0.28069852839E+03  0.47000000000E+01 0. -1.
        -11    1    6    6    0    0  0.14326642385E+03  0.17701486816E+03 -0.85186865946E+02  0.24313850761E+03  0.00000000000E+00 0.  1.
         12    1    6    6    0    0  0.47888669798E+02  0.69752423100E+02 -0.89765735791E+02  0.12335563443E+03  0.00000000000E+00 0. -1.
         -5    1    3    3    0  503 -0.15579008049E+03 -0.28978112946E+03  0.34731257899E+03  0.47842634720E+03  0.47000000000E+01 0.  1.
         11    1    4    4    0    0 -0.16157340650E+02 -0.32772660321E+02  0.78808753501E+01  0.37379340787E+02  0.00000000000E+00 0. -1.
        -12    1    4    4    0    0 -0.19246348633E+03 -0.14379754979E+03  0.28471601751E+03  0.37253609157E+03  0.00000000000E+00 0.  1.
</event>
<event>
12    1  0.1035051E+000  0.2995266E+03  0.7818608E-02  0.1085545E+00
         21   -1    0    0  503  502  0.00000000000E+00  0.00000000000E+00  0.21630835590E+03  0.21630835590E+03  0.00000000000E+00 0. -1.
         21   -1    0    0  501  503 -0.00000000000E+00 -0.00000000000E+00 -0.45155331119E+03  0.45155331119E+03  0.00000000000E+00 0. -1.
          6    2    1    2  501    0 -0.56114759168E+02 -0.23854756802E+03 -0.21399883987E+03  0.36811915027E+03  0.17222774724E+03 0.  0.
         24    2    3    3    0    0 -0.68447777857E+01 -0.23052748817E+03 -0.20453616626E+03  0.31709479394E+03  0.74325576023E+02 0.  0.
         -6    2    1    2    0  502  0.56114759168E+02  0.23854756802E+03 -0.21246115420E+02  0.29974251682E+03  0.17129031078E+03 0.  0.
        -24    2    5    5    0    0  0.10413781085E+02  0.23263963685E+03  0.59355738724E+01  0.24603574554E+03  0.79175182829E+02 0.  0.
          5    1    3    3  501    0 -0.49269981382E+02 -0.80200798476E+01 -0.94626736164E+01  0.51024356323E+02  0.47000000000E+01 0. -1.
        -13    1    4    4    0    0 -0.32998616327E+02 -0.19713795994E+03 -0.17010530672E+03  0.26246542497E+03  0.00000000000E+00 0.  1.
         14    1    4    4    0    0  0.26153838542E+02 -0.33389528235E+02 -0.34430859536E+02  0.54629368975E+02  0.00000000000E+00 0. -1.
         -5    1    5    5    0  502  0.45700978083E+02  0.59079311666E+01 -0.27181689293E+02  0.53706771279E+02  0.47000000000E+01 0.  1.
         13    1    6    6    0    0 -0.16982686514E+02  0.85351727636E+02 -0.29858862845E+02  0.92004786517E+02  0.00000000000E+00 0. -1.
        -14    1    6    6    0    0  0.27396467599E+02  0.14728790922E+03  0.35794436717E+02  0.15403095903E+03  0.00000000000E+00 0.  1.
</event>
<event>
12    1  0.1035051E+000  0.2546187E+03  0.7818608E-02  0.1110588E+00
         21   -1    0    0  501  502  0.00000000000E+00  0.00000000000E+00  0.17299007833E+03  0.17299007833E+03  0.00000000000E+00 0.  1.
         21   -1    0    0  502  503 -0.00000000000E+00 -0.00000000000E+00 -0.37360194832E+03  0.37360194832E+03  0.00000000000E+00 0.  1.
         -6    2    1    2    0  503  0.80510209032E+02  0.16718191607E+03 -0.90812151271E+02  0.26930756153E+03  0.17276582145E+03 0.  0.
        -24    2    3    3    0    0 -0.73688544943E+01  0.63914039184E+02 -0.84758987762E+02  0.13349255871E+03  0.80603181101E+02 0.  0.
          6    2    1    2  501    0 -0.80510209032E+02 -0.16718191607E+03 -0.10979971872E+03  0.27728446512E+03  0.17435311740E+03 0.  0.
         24    2    5    5    0    0  0.13468823000E+02 -0.85828764767E+02 -0.96322858718E+02  0.15216808153E+03  0.79555300698E+02 0.  0.
          5    1    5    5  501    0 -0.93979032032E+02 -0.81353151299E+02 -0.13476860007E+02  0.12511638359E+03  0.47000000000E+01 0. -1.
        -13    1    6    6    0    0  0.35873634474E+02 -0.78997525842E+02 -0.49689853868E+02  0.99983040146E+02  0.00000000000E+00 0.  1.
         14    1    6    6    0    0 -0.22404811474E+02 -0.68312389257E+01 -0.46633004851E+02  0.52185041380E+02  0.00000000000E+00 0. -1.
         -5    1    3    3    0  503  0.87879063526E+02  0.10326787688E+03 -0.60531635090E+01  0.13581500282E+03  0.47000000000E+01 0.  1.
         13    1    4    4    0    0  0.22433653890E+02  0.55415129936E+00 -0.51085934350E+02  0.55797388818E+02  0.00000000000E+00 0. -1.
        -14    1    4    4    0    0 -0.29802508384E+02  0.63359887885E+02 -0.33673053413E+02  0.77695169894E+02  0.00000000000E+00 0.  1.
</event>
<event>
12    1  0.1035051E+000  0.2926200E+03  0.7818608E-02  0.1089063E+00
         21   -1    0    0  503  502  0.00000000000E+00  0.00000000000E+00  0.20835334709E+04  0.20835334709E+04  0.00000000000E+00 0.  1.
         21   -1    0    0  501  503 -0.00000000000E+00 -0.00000000000E+00 -0.63766064392E+02  0.63766064392E+02  0.00000000000E+00 0.  1.
          6    2    1    2  501    0  0.40764480876E+02  0.23294881419E+03  0.36923200535E+03  0.47112497129E+03  0.17233563726E+03 0.  0.
         24    2    3    3    0    0 -0.35111899668E+00  0.67789394688E+02  0.22414258614E+03  0.24742616493E+03  0.79901707452E+02 0.  0.
         -6    2    1    2    0  502 -0.40764480876E+02 -0.23294881419E+03  0.16505354012E+04  0.16761745640E+04  0.17136850817E+03 0.  0.
        -24    2    5    5    0    0 -0.11196015498E+02 -0.28719156688E+02  0.54504749168E+03  0.55158145752E+03  0.78836510365E+02 0.  0.
          5    1    3    3  501    0  0.41115599873E+02  0.16515941950E+03  0.14508941921E+03  0.22369880637E+03  0.47000000000E+01 0. -1.
        -11    1    4    4    0    0 -0.20040655357E+02 -0.10528302217E+02  0.67461507249E+02  0.71158470859E+02  0.00000000000E+00 0.  1.
         12    1    4    4    0    0  0.19689536360E+02  0.78317696905E+02  0.15668107889E+03  0.17626769407E+03  0.00000000000E+00 0. -1.
         -5    1    5    5    0  502 -0.29568465379E+02 -0.20422965750E+03  0.11054879095E+04  0.11245931065E+04  0.47000000000E+01 0.  1.
         13    1    6    6    0    0  0.27214428070E+02 -0.26327896048E+02  0.38980842637E+03  0.39164319536E+03  0.00000000000E+00 0. -1.
        -14    1    6    6    0    0 -0.38410443568E+02 -0.23912606408E+01  0.15523906531E+03  0.15993826215E+03  0.00000000000E+00 0.  1.
</event>
<event>
12    1  0.1035051E+000  0.1762511E+03  0.7818608E-02  0.1171788E+00
         21   -1    0    0  501  502  0.00000000000E+00  0.00000000000E+00  0.10427534418E+03  0.10427534418E+03  0.00000000000E+00 0.  1.
         21   -1    0    0  502  503 -0.00000000000E+00 -0.00000000000E+00 -0.35334137394E+03  0.35334137394E+03  0.00000000000E+00 0.  1.
         -6    2    1    2    0  503 -0.31555648212E+02 -0.62060353331E+01 -0.21647285967E+03  0.27837732178E+03  0.17204406556E+03 0.  0.
        -24    2    3    3    0    0  0.37524408789E+02 -0.33945064244E+02 -0.72468816718E+02  0.11620222385E+03  0.75437913475E+02 0.  0.
          6    2    1    2  501    0  0.31555648212E+02  0.62060353331E+01 -0.32593170086E+02  0.17923939634E+03  0.17329215982E+03 0.  0.
         24    2    5    5    0    0 -0.10156703430E+02  0.18349574154E+01  0.41713197898E+02  0.93784420335E+02  0.83360667736E+02 0.  0.
          5    1    5    5  501    0  0.41712351642E+02  0.43710779177E+01 -0.74306367984E+02  0.85454976009E+02  0.47000000000E+01 0. -1.
        -11    1    6    6    0    0 -0.18461749681E+02  0.19493199022E+02 -0.17091371354E+02  0.31826655246E+02  0.00000000000E+00 0.  1.
         12    1    6    6    0    0  0.83050462508E+01 -0.17658241606E+02  0.58804569252E+02  0.61957765089E+02  0.00000000000E+00 0. -1.
         -5    1    3    3    0  503 -0.69080057001E+02  0.27739028911E+02 -0.14400404295E+03  0.16217509793E+03  0.47000000000E+01 0.  1.
         13    1    4    4    0    0 -0.12100002277E+02 -0.96465692338E+01 -0.56654231756E+02  0.58729620542E+02  0.00000000000E+00 0. -1.
        -14    1    4    4    0    0  0.49624411065E+02 -0.24298495010E+02 -0.15814584961E+02  0.57472603307E+02  0.00000000000E+00 0.  1.
</event>
<event>
12    1  0.1035051E+000  0.2015661E+03  0.7818608E-02  0.1149165E+00
         21   -1    0    0  503  502  0.00000000000E+00  0.00000000000E+00  0.15488704238E+03  0.15488704238E+03  0.00000000000E+00 0. -1.
         21   -1    0    0  501  503 -0.00000000000E+00 -0.00000000000E+00 -0.10913570622E+04  0.10913570622E+04  0.00000000000E+00 0. -1.
          6    2    1    2  501    0 -0.80122520182E+02 -0.67000367687E+02 -0.10137901098E+04  0.10336340197E+04  0.17239556979E+03 0.  0.
         24    2    3    3    0    0 -0.58250093691E+02 -0.40505372418E+01 -0.86125885480E+03  0.86711387695E+03  0.81915690625E+02 0.  0.
         -6    2    1    2    0  502  0.80122520182E+02  0.67000367687E+02  0.77320089904E+02  0.21261008494E+03  0.16827354042E+03 0.  0.
        -24    2    5    5    0    0  0.26518455099E+02 -0.71282034792E+01 -0.10628335014E+02  0.85624037275E+02  0.80401955874E+02 0.  0.
          5    1    3    3  501    0 -0.21872426491E+02 -0.62949830445E+02 -0.15253125496E+03  0.16652014272E+03  0.47000000000E+01 0. -1.
        -11    1    4    4    0    0  0.11291493316E+02  0.17748863709E+02 -0.90290490995E+02  0.92708644410E+02  0.00000000000E+00 0.  1.
         12    1    4    4    0    0 -0.69541587007E+02 -0.21799400951E+02 -0.77096836380E+03  0.77440523254E+03  0.00000000000E+00 0. -1.
         -5    1    5    5    0  502  0.53604065083E+02  0.74128571166E+02  0.87948424918E+02  0.12698604767E+03  0.47000000000E+01 0.  1.
         13    1    6    6    0    0  0.49511805548E+02 -0.23699857084E+02 -0.15099758403E+02  0.56930701895E+02  0.00000000000E+00 0. -1.
        -14    1    6    6    0    0 -0.22993350449E+02  0.16571653605E+02  0.44714233896E+01  0.28693335380E+02  0.00000000000E+00 0.  1.
</event>
<event>
12    1  0.1035051E+000  0.2211099E+03  0.7818608E-02  0.1133188E+00
         21   -1    0    0  501  502  0.00000000000E+00  0.00000000000E+00  0.44214524854E+03  0.44214524854E+03  0.00000000000E+00 0. -1.
         21   -1    0    0  502  503 -0.00000000000E+00 -0.00000000000E+00 -0.11098075162E+03  0.11098075162E+03  0.00000000000E+00 0. -1.
         -6    2    1    2    0  503  0.76569525306E+02  0.11664051024E+03  0.14299669857E+03  0.26332044301E+03  0.17152754610E+03 0.  0.
        -24    2    3    3    0    0  0.58605825335E+02 -0.36440433312E+01  0.58168588678E+02  0.11496625004E+03  0.79910776022E+02 0.  0.
          6    2    1    2  501    0 -0.76569525306E+02 -0.11664051024E+03  0.18816779834E+03  0.28980555715E+03  0.17062309277E+03 0.  0.
         24    2    5    5    0    0  0.23853574842E+02 -0.38419057693E+02  0.66115831937E+02  0.11339079817E+03  0.80256793169E+02 0.  0.
          5    1    5    5  501    0 -0.10042310015E+03 -0.78221452545E+02  0.12205196641E+03  0.17641475898E+03  0.47000000000E+01 0. -1.
        -13    1    6    6    0    0 -0.23944276363E+02 -0.34557024126E+02  0.43067515897E+02  0.60185772509E+02  0.00000000000E+00 0.  1.
         14    1    6    6    0    0  0.47797851205E+02 -0.38620335674E+01  0.23048316040E+02  0.53205025659E+02  0.00000000000E+00 0. -1.
         -5    1    3    3    0  503  0.17963699970E+02  0.12028455357E+03  0.84828109895E+02  0.14835419297E+03  0.47000000000E+01 0.  1.
         11    1    4    4    0    0  0.62659112709E+02  0.18323667686E+02  0.64474784157E+02  0.91754667429E+02  0.00000000000E+00 0. -1.
        -12    1    4    4    0    0 -0.40532873739E+01 -0.21967711018E+02 -0.63061954788E+01  0.23211582611E+02  0.00000000000E+00 0.  1.
</event>
<event>
12    1  0.1035051E+000  0.2132481E+03  0.7818608E-02  0.1139105E+00
         21   -1    0    0  501  502  0.00000000000E+00  0.00000000000E+00  0.65217595084E+03  0.65217595084E+03  0.00000000000E+00 0. -1.
         21   -1    0    0  502  503 -0.00000000000E+00 -0.00000000000E+00 -0.93559562584E+02  0.93559562584E+02  0.00000000000E+00 0. -1.
         -6    2    1    2    0  503  0.12294146735E+03  0.27726696588E+02  0.46784996703E+03  0.51397425549E+03  0.17147177480E+03 0.  0.
        -24    2    3    3    0    0  0.78214052816E+02 -0.45322806383E+02  0.19032310032E+03  0.22349185801E+03  0.74526057496E+02 0.  0.
          6    2    1    2  501    0 -0.12294146735E+03 -0.27726696588E+02  0.90766421219E+02  0.23176125793E+03  0.17202140378E+03 0.  0.
         24    2    5    5    0    0 -0.10839798507E+03  0.10891304817E+01  0.12479912016E+03  0.18462126044E+03  0.82212408083E+02 0.  0.
          5    1    5    5  501    0 -0.14543482282E+02 -0.28815827070E+02 -0.34032698937E+02  0.47139997492E+02  0.47000000000E+01 0. -1.
        -13    1    6    6    0    0 -0.35653394583E+02  0.32260075311E+02  0.17231293173E+02  0.51076359196E+02  0.00000000000E+00 0.  1.
         14    1    6    6    0    0 -0.72744590487E+02 -0.31170944829E+02  0.10756782698E+03  0.13354490125E+03  0.00000000000E+00 0. -1.
         -5    1    3    3    0  503  0.44727414536E+02  0.73049502972E+02  0.27752686672E+03  0.29048239748E+03  0.47000000000E+01 0.  1.
         13    1    4    4    0    0 -0.12963587414E+02  0.73284296078E+00  0.37400245904E+02  0.39590024641E+02  0.00000000000E+00 0. -1.
        -14    1    4    4    0    0  0.91177640230E+02 -0.46055649344E+02  0.15292285442E+03  0.18390183337E+03  0.00000000000E+00 0.  1.
</event>
<event>
12    1  0.1035051E+000  0.1752270E+03  0.7818608E-02  0.1173947E+00
         21   -1    0    0  501  502  0.00000000000E+00  0.00000000000E+00  0.57671611955E+03  0.57671611955E+03  0.00000000000E+00 0.  1.
         21   -1    0    0  502  503 -0.00000000000E+00 -0.00000000000E+00 -0.79440638964E+02  0.79440638964E+02  0.00000000000E+00 0.  1.
         -6    2    1    2    0  503  0.18120567220E+02 -0.13794909372E+01  0.56853944052E+02  0.18421965304E+03  0.17428210367E+03 0.  0.
        -24    2    3    3    0    0  0.15686789541E+02  0.54031628003E+02  0.77783195402E+02  0.12475168739E+03  0.79669729696E+02 0.  0.
          6    2    1    2  501    0 -0.18120567220E+02  0.13794909372E+01  0.44042153653E+03  0.47193710547E+03  0.16859194444E+03 0.  0.
         24    2    5    5    0    0 -0.61698338020E+02 -0.91716130871E+01  0.17721422456E+03  0.20489679582E+03  0.81774153314E+02 0.  0.
          5    1    5    5  501    0  0.43577770800E+02  0.10551104024E+02  0.26320731197E+03  0.26704030965E+03  0.47000000000E+01 0. -1.
        -13    1    6    6    0    0 -0.42020482399E+02  0.34628622054E+02  0.10291570245E+03  0.11643240192E+03  0.00000000000E+00 0.  1.
         14    1    6    6    0    0 -0.19677855620E+02 -0.43800235141E+02  0.74298522118E+02  0.88464393906E+02  0.00000000000E+00 0. -1.
         -5    1    3    3    0  503  0.24337776788E+01 -0.55411118940E+02 -0.20929251349E+02  0.59467965645E+02  0.47000000000E+01 0.  1.
         11    1    4    4    0    0 -0.66360449261E+01 -0.17238518952E+02  0.23830900565E+01  0.18624788486E+02  0.00000000000E+00 0. -1.
        -12    1    4    4    0    0  0.22322834467E+02  0.71270146955E+02  0.75400105345E+02  0.10612689891E+03  0.00000000000E+00 0.  1.
</event>
<event>
12    1  0.1035051E+000  0.1894046E+03  0.7818608E-02  0.1159813E+00
         21   -1    0    0  501  502  0.00000000000E+00  0.00000000000E+00  0.16056838605E+03  0.16056838605E+03  0.00000000000E+00 0.  1.
         21   -1    0    0  502  503 -0.00000000000E+00 -0.00000000000E+00 -0.22134962764E+03  0.22134962764E+03  0.00000000000E+00 0.  1.
         -6    2    1    2    0  503 -0.20074080198E+02 -0.75163142454E+02 -0.12054274004E+02  0.18978776765E+03  0.17268938748E+03 0.  0.
        -24    2    3    3    0    0 -0.41420681982E+02 -0.12087515847E+03 -0.19157863875E+01  0.13811432431E+03  0.52396750947E+02 0.  0.
          6    2    1    2  501    0  0.20074080198E+02  0.75163142454E+02 -0.48726967583E+02  0.19213024604E+03  0.16878165598E+03 0.  0.
         24    2    5    5    0    0 -0.50425623755E+02  0.65472287851E+02 -0.34891525902E+02  0.11948294488E+03  0.78926494469E+02 0.  0.
          5    1    5    5  501    0  0.70499703953E+02  0.96908546025E+01 -0.13835441682E+02  0.72647301168E+02  0.47000000000E+01 0. -1.
        -11    1    6    6    0    0 -0.15943452251E+02  0.69918118288E+01  0.23972989638E+02  0.29627408502E+02  0.00000000000E+00 0.  1.
         12    1    6    6    0    0 -0.34482171504E+02  0.58480476022E+02 -0.58864515540E+02  0.89855536375E+02  0.00000000000E+00 0. -1.
         -5    1    3    3    0  503  0.21346601784E+02  0.45712016017E+02 -0.10138487616E+02  0.51673443346E+02  0.47000000000E+01 0.  1.
         13    1    4    4    0    0 -0.86834462053E+01  0.12858400241E+00  0.87239208135E+01  0.12309572137E+02  0.00000000000E+00 0. -1.
        -14    1    4    4    0    0 -0.32737235776E+02 -0.12100374247E+03 -0.10639707201E+02  0.12580475217E+03  0.00000000000E+00 0.  1.
</event>
<event>
12    1  0.1035051E+000  0.1723393E+03  0.7818608E-02  0.1175732E+00
         21   -1    0    0  503  502  0.00000000000E+00  0.00000000000E+00  0.11141573690E+03  0.11141573690E+03  0.00000000000E+00 0.  1.
         21   -1    0    0  501  503 -0.00000000000E+00 -0.00000000000E+00 -0.26835578974E+03  0.26835578974E+03  0.00000000000E+00 0.  1.
          6    2    1    2  501    0 -0.19165447173E+02 -0.89786973420E+00 -0.56771201787E+02  0.18144918231E+03  0.17126796511E+03 0.  0.
         24    2    3    3    0    0 -0.50566421619E+02  0.41277247560E+02 -0.72823402782E+02  0.12627196897E+03  0.79878582821E+02 0.  0.
         -6    2    1    2    0  502  0.19165447173E+02  0.89786973420E+00 -0.10016885106E+03  0.19832234434E+03  0.17008772150E+03 0.  0.
        -24    2    5    5    0    0 -0.20751045082E+02  0.57657995128E+02 -0.65610876435E+02  0.12066037296E+03  0.80616922671E+02 0.  0.
          5    1    3    3  501    0  0.31400974447E+02 -0.42175117294E+02  0.16052200995E+02  0.55177213338E+02  0.47000000000E+01 0. -1.
        -11    1    4    4    0    0 -0.49610853829E+02  0.28081802618E+02 -0.50624760480E+01  0.57231574499E+02  0.00000000000E+00 0.  1.
         12    1    4    4    0    0 -0.95556779043E+00  0.13195444942E+02 -0.67760926734E+02  0.69040394472E+02  0.00000000000E+00 0. -1.
         -5    1    5    5    0  502  0.39916492255E+02 -0.56760125394E+02 -0.34557974623E+02  0.77661971380E+02  0.47000000000E+01 0.  1.
         13    1    6    6    0    0  0.18983843040E+02  0.58385495128E+02 -0.42761302894E+02  0.74818322375E+02  0.00000000000E+00 0. -1.
        -14    1    6    6    0    0 -0.39734888122E+02 -0.72750000028E+00 -0.22849573541E+02  0.45842050580E+02  0.00000000000E+00 0.  1.
</event>
<event>
12    1  0.1035051E+000  0.1900294E+03  0.7818608E-02  0.1158843E+00
         21   -1    0    0  501  502  0.00000000000E+00  0.00000000000E+00  0.24702008991E+03  0.24702008991E+03  0.00000000000E+00 0. -1.
         21   -1    0    0  502  503 -0.00000000000E+00 -0.00000000000E+00 -0.35501016558E+03  0.35501016558E+03  0.00000000000E+00 0. -1.
         -6    2    1    2    0  503 -0.21324808555E+01  0.83516202633E+02  0.17773667775E+03  0.25888166223E+03  0.16867093657E+03 0.  0.
        -24    2    3    3    0    0 -0.13532398158E+02  0.96583438624E+02  0.58320394754E+02  0.13812136488E+03  0.78515963834E+02 0.  0.
          6    2    1    2  501    0  0.21324808555E+01 -0.83516202633E+02 -0.28572675342E+03  0.34314859327E+03  0.17068003945E+03 0.  0.
         24    2    5    5    0    0 -0.44161876151E+02 -0.32652186192E+02 -0.80304453930E+02  0.12646742938E+03  0.80800797049E+02 0.  0.
          5    1    5    5  501    0  0.46294357007E+02 -0.50864016441E+02 -0.20542229949E+03  0.21668116389E+03  0.47000000000E+01 0. -1.
        -13    1    6    6    0    0 -0.44721280510E+02 -0.38903604020E+02 -0.94156015923E+02  0.11126022951E+03  0.00000000000E+00 0.  1.
         14    1    6    6    0    0  0.55940435864E+00  0.62514178281E+01  0.13851561993E+02  0.15207199866E+02  0.00000000000E+00 0. -1.
         -5    1    3    3    0  503  0.11399917302E+02 -0.13067235991E+02  0.11941628299E+03  0.12076029734E+03  0.47000000000E+01 0.  1.
         13    1    4    4    0    0 -0.26360008793E+02 -0.79993508607E+00  0.18074256726E+02  0.31971373381E+02  0.00000000000E+00 0. -1.
        -14    1    4    4    0    0  0.12827610635E+02  0.97383373710E+02  0.40246138028E+02  0.10614999150E+03  0.00000000000E+00 0.  1.
</event>
<event>
12    1  0.1035051E+000  0.2175393E+03  0.7818608E-02  0.1135762E+00
         21   -1    0    0  503  502  0.00000000000E+00  0.00000000000E+00  0.11213333904E+03  0.11213333904E+03  0.00000000000E+00 0.  1.
         21   -1    0    0  501  503 -0.00000000000E+00 -0.00000000000E+00 -0.59095247444E+03  0.59095247444E+03  0.00000000000E+00 0.  1.
          6    2    1    2  501    0  0.10467557381E+03  0.82340640230E+02 -0.51218394782E+02  0.22332988689E+03  0.17180208855E+03 0.  0.
         24    2    3    3    0    0  0.13864275615E+02  0.21376474194E+02 -0.73627135097E+02  0.11158212153E+03  0.79877675452E+02 0.  0.
         -6    2    1    2    0  502 -0.10467557381E+03 -0.82340640230E+02 -0.42760074062E+03  0.47975592658E+03  0.17200697349E+03 0.  0.
        -24    2    5    5    0    0 -0.20983628730E+02 -0.61420510422E+02 -0.10688550739E+03  0.14760785068E+03  0.78426871140E+02 0.  0.
          5    1    3    3  501    0  0.90811298197E+02  0.60964166036E+02  0.22408740315E+02  0.11174776536E+03  0.47000000000E+01 0. -1.
        -13    1    4    4    0    0  0.37787758221E+02  0.34776168308E+02 -0.28379829185E+02  0.58674621925E+02  0.00000000000E+00 0.  1.
         14    1    4    4    0    0 -0.23923482606E+02 -0.13399694114E+02 -0.45247305912E+02  0.52907499607E+02  0.00000000000E+00 0. -1.
         -5    1    5    5    0  502 -0.83691945082E+02 -0.20920129808E+02 -0.32071523323E+03  0.33214807590E+03  0.47000000000E+01 0.  1.
         13    1    6    6    0    0  0.20752540709E+02 -0.18088671677E+01 -0.53332564256E+02  0.57256461264E+02  0.00000000000E+00 0. -1.
        -14    1    6    6    0    0 -0.41736169440E+02 -0.59611643254E+02 -0.53552943136E+02  0.90351389417E+02  0.00000000000E+00 0.  1.
</event>
<event>
12    1  0.1035051E+000  0.1898534E+03  0.7818608E-02  0.1160699E+00
         21   -1    0    0  503  502  0.00000000000E+00  0.00000000000E+00  0.14808358048E+03  0.14808358048E+03  0.00000000000E+00 0. -1.
         21   -1    0    0  501  503 -0.00000000000E+00 -0.00000000000E+00 -0.27245251708E+03  0.27245251708E+03  0.00000000000E+00 0. -1.
          6    2    1    2  501    0  0.65047282987E+02  0.44991321066E+02 -0.14199094294E+03  0.22986658139E+03  0.16254799096E+03 0.  0.
         24    2    3    3    0    0  0.29995358854E+02  0.82515834108E+02 -0.57019370322E+02  0.13047350005E+03  0.77868743356E+02 0.  0.
         -6    2    1    2    0  502 -0.65047282987E+02 -0.44991321066E+02  0.17622006336E+02  0.19066951617E+03  0.17259478930E+03 0.  0.
        -24    2    5    5    0    0  0.24479775335E+02  0.13300175723E+02  0.15739490851E+02  0.83718000827E+02  0.77361605564E+02 0.  0.
          5    1    3    3  501    0  0.35051924132E+02 -0.37524513042E+02 -0.84971572617E+02  0.99393081336E+02  0.47000000000E+01 0. -1.
        -11    1    4    4    0    0  0.63399294707E+01  0.29788697056E+02 -0.65337908483E+02  0.72087470915E+02  0.00000000000E+00 0.  1.
         12    1    4    4    0    0  0.23655429383E+02  0.52727137051E+02  0.83185381606E+01  0.58386029134E+02  0.00000000000E+00 0. -1.
         -5    1    5    5    0  502 -0.89527058322E+02 -0.58291496789E+02  0.18825154849E+01  0.10695151534E+03  0.47000000000E+01 0.  1.
         13    1    6    6    0    0 -0.18417478753E+01  0.21807573610E+02  0.40859866287E+02  0.46351817386E+02  0.00000000000E+00 0. -1.
        -14    1    6    6    0    0  0.26321523210E+02 -0.85073978863E+01 -0.25120375436E+02  0.37366183441E+02  0.00000000000E+00 0.  1.
</event>
<event>
12    1  0.1035051E+000  0.2418839E+03  0.7818608E-02  0.1119987E+00
         21   -1    0    0  501  502  0.00000000000E+00  0.00000000000E+00  0.10694473895E+04  0.10694473895E+04  0.00000000000E+00 0. -1.
         21   -1    0    0  502  503 -0.00000000000E+00 -0.00000000000E+00 -0.64598223339E+02  0.64598223339E+02  0.00000000000E+00 0.  1.
         -6    2    1    2    0  503  0.13388270195E+03  0.96951272229E+02  0.26738226459E+03  0.36055665262E+03  0.17658906325E+03 0.  0.
        -24    2    3    3    0    0  0.92141534007E+02 -0.10291104700E+02  0.17396448212E+03  0.21225889608E+03  0.78703423064E+02 0.  0.
          6    2    1    2  501    0 -0.13388270195E+03 -0.96951272229E+02  0.73746690157E+03  0.77348896023E+03  0.16463175153E+03 0.  0.
         24    2    5    5    0    0 -0.15100371256E+03 -0.52192764344E+02  0.49830123327E+03  0.52952429081E+03  0.81028696254E+02 0.  0.
          5    1    5    5  501    0  0.17121010609E+02 -0.44758507885E+02  0.23916566830E+03  0.24396466942E+03  0.47000000000E+01 0. -1.
        -13    1    6    6    0    0 -0.90002429571E+02  0.11213303547E+02  0.27183203536E+03  0.28656383399E+03  0.00000000000E+00 0.  1.
         14    1    6    6    0    0 -0.61001282987E+02 -0.63406067891E+02  0.22646919791E+03  0.24296045681E+03  0.00000000000E+00 0. -1.
         -5    1    3    3    0  503  0.41741167943E+02  0.10724237693E+03  0.93417782477E+02  0.14829775654E+03  0.47000000000E+01 0.  1.
         13    1    4    4    0    0  0.19527580620E+02 -0.18823669954E+01 -0.38615388349E+01  0.19994529065E+02  0.00000000000E+00 0. -1.
        -14    1    4    4    0    0  0.72613953387E+02 -0.84087377047E+01  0.17782602095E+03  0.19226436702E+03  0.00000000000E+00 0.  1.
</event>
<event>
12    1  0.1035051E+000  0.2099539E+03  0.7818608E-02  0.1143095E+00
         21   -1    0    0  501  502  0.00000000000E+00  0.00000000000E+00  0.19957774033E+03  0.19957774033E+03  0.00000000000E+00 0.  1.
         21   -1    0    0  502  503 -0.00000000000E+00 -0.00000000000E+00 -0.23847128394E+03  0.23847128394E+03  0.00000000000E+00 0.  1.
         -6    2    1    2    0  503 -0.93156002027E+02  0.65160117484E+02 -0.91100560877E+02  0.22886669153E+03  0.17651280031E+03 0.  0.
        -24    2    3    3    0    0 -0.11643072980E+03  0.87678088898E+02 -0.44187675768E+02  0.17166808334E+03  0.79207436725E+02 0.  0.
          6    2    1    2  501    0  0.93156002027E+02 -0.65160117484E+02  0.52207017273E+02  0.20918233274E+03  0.16765379225E+03 0.  0.
         24    2    5    5    0    0  0.99804357354E+02 -0.22065752969E+02 -0.12959352281E+02  0.13063253578E+03  0.80306334697E+02 0.  0.
          5    1    5    5  501    0 -0.66483553271E+01 -0.43094364516E+02  0.65166369554E+02  0.78549796960E+02  0.47000000000E+01 0. -1.
        -11    1    6    6    0    0  0.10093352943E+03 -0.34467429350E+02  0.72412962827E+01  0.10690190560E+03  0.00000000000E+00 0.  1.
         12    1    6    6    0    0 -0.11291720714E+01  0.12401676381E+02 -0.20200648563E+02  0.23730630186E+02  0.00000000000E+00 0. -1.
         -5    1    3    3    0  503  0.23274727774E+02 -0.22517971414E+02 -0.46912885109E+02  0.57198608189E+02  0.47000000000E+01 0.  1.
         13    1    4    4    0    0 -0.25948475148E+02  0.10722391944E+02  0.22018872743E+02  0.35680860533E+02  0.00000000000E+00 0. -1.
        -14    1    4    4    0    0 -0.90482254653E+02  0.76955696953E+02 -0.66206548511E+02  0.13598722281E+03  0.00000000000E+00 0.  1.
</event>
<event>
12    1  0.1035051E+000  0.2828576E+03  0.7818608E-02  0.1094183E+00
         21   -1    0    0  503  502  0.00000000000E+00  0.00000000000E+00  0.17795822326E+03  0.17795822326E+03  0.00000000000E+00 0. -1.
         21   -1    0    0  501  503 -0.00000000000E+00 -0.00000000000E+00 -0.44918733590E+03  0.44918733590E+03  0.00000000000E+00 0. -1.
          6    2    1    2  501    0 -0.15037725938E+03  0.16609783506E+03 -0.13042472911E+03  0.31117992001E+03  0.17210613500E+03 0.  0.
         24    2    3    3    0    0 -0.12852112203E+02  0.85854053505E+02 -0.29153028130E+02  0.12242007787E+03  0.81244575979E+02 0.  0.
         -6    2    1    2    0  502  0.15037725938E+03 -0.16609783506E+03 -0.14080438353E+03  0.31596563915E+03  0.17264587963E+03 0.  0.
        -24    2    5    5    0    0  0.31780786504E+02 -0.98789698292E+02 -0.12012887061E+03  0.17796174251E+03  0.80436393277E+02 0.  0.
          5    1    3    3  501    0 -0.13752514718E+03  0.80243781553E+02 -0.10127170098E+03  0.18875984214E+03  0.47000000000E+01 0. -1.
        -11    1    4    4    0    0  0.19573731449E+00  0.80175941384E+02 -0.51957935686E+02  0.95539766436E+02  0.00000000000E+00 0.  1.
         12    1    4    4    0    0 -0.13047849517E+02  0.56781121209E+01  0.22804907556E+02  0.26880311437E+02  0.00000000000E+00 0. -1.
         -5    1    5    5    0  502  0.11859647288E+03 -0.67308136766E+02 -0.20675512917E+02  0.13800389664E+03  0.47000000000E+01 0.  1.
         13    1    6    6    0    0 -0.91800925208E+01 -0.13229139089E+02  0.84444392015E+01  0.18182210348E+02  0.00000000000E+00 0. -1.
        -14    1    6    6    0    0  0.40960879024E+02 -0.85560559203E+02 -0.12857330981E+03  0.15977953216E+03  0.00000000000E+00 0.  1.
</event>
<event>
12    1  0.1035051E+000  0.2856961E+03  0.7818608E-02  0.1093619E+00
         21   -1    0    0  501  502  0.00000000000E+00  0.00000000000E+00  0.10313795974E+04  0.10313795974E+04  0.00000000000E+00 0.  1.
         21   -1    0    0  502  503 -0.00000000000E+00 -0.00000000000E+00 -0.92516382952E+02  0.92516382952E+02  0.00000000000E+00 0.  1.
         -6    2    1    2    0  503 -0.21761988358E+03  0.15404110385E+02  0.70396939915E+03  0.75973363317E+03  0.18446294502E+03 0.  0.
        -24    2    3    3    0    0 -0.22942749206E+03  0.13706462685E+02  0.70580645354E+03  0.74678116643E+03  0.81820043016E+02 0.  0.
          6    2    1    2  501    0  0.21761988358E+03 -0.15404110385E+02  0.23489381529E+03  0.36416234717E+03  0.17275245380E+03 0.  0.
         24    2    5    5    0    0  0.79055420483E+02 -0.50762785933E+02  0.16291435256E+03  0.20399531116E+03  0.79034048131E+02 0.  0.
          5    1    5    5  501    0  0.13856446309E+03  0.35358675548E+02  0.71979462733E+02  0.16016703601E+03  0.47000000000E+01 0. -1.
        -11    1    6    6    0    0  0.43712862284E+02 -0.33026214168E+02  0.24449022336E+02  0.59994165087E+02  0.00000000000E+00 0.  1.
         12    1    6    6    0    0  0.35342558199E+02 -0.17736571765E+02  0.13846533022E+03  0.14400114607E+03  0.00000000000E+00 0. -1.
         -5    1    3    3    0  503  0.11807608485E+02  0.16976477008E+01 -0.18370543920E+01  0.12952466741E+02  0.47000000000E+01 0.  1.
         13    1    4    4    0    0 -0.18673043707E+03  0.12750616939E+02  0.44900739565E+03  0.48645500892E+03  0.00000000000E+00 0. -1.
        -14    1    4    4    0    0 -0.42697054990E+02  0.95584574554E+00  0.25679905790E+03  0.26032615751E+03  0.00000000000E+00 0.  1.
</event>
<event>
12    1  0.1035051E+000  0.1812031E+03  0.7818608E-02  0.1167728E+00
         21   -1    0    0  503  502  0.00000000000E+00  0.00000000000E+00  0.40554371993E+03  0.40554371993E+03  0.00000000000E+00 0.  1.
         21   -1    0    0  501  503 -0.00000000000E+00 -0.00000000000E+00 -0.79356925794E+02  0.79356925794E+02  0.00000000000E+00 0.  1.
          6    2    1    2  501    0 -0.40600652234E+02  0.39400462295E+02  0.18174888858E+03  0.25664613010E+03  0.17214461421E+03 0.  0.
         24    2    3    3    0    0  0.26640067941E+01  0.86104057822E+02  0.12099203345E+03  0.16851814361E+03  0.79613358570E+02 0.  0.
         -6    2    1    2    0  502  0.40600652234E+02 -0.39400462295E+02  0.14443790555E+03  0.22825451562E+03  0.16744254523E+03 0.  0.
        -24    2    5    5    0    0  0.61539551762E+02 -0.50695089125E+01  0.31427740201E+02  0.10821102623E+03  0.83121038206E+02 0.  0.
          5    1    3    3  501    0 -0.43264659028E+02 -0.46703595527E+02  0.60756855137E+02  0.88127986485E+02  0.47000000000E+01 0. -1.
        -13    1    4    4    0    0  0.34134260576E+02  0.12421473257E+02  0.47487975262E+02  0.59787528277E+02  0.00000000000E+00 0.  1.
         14    1    4    4    0    0 -0.31470253782E+02  0.73682584565E+02  0.73504058187E+02  0.10873061534E+03  0.00000000000E+00 0. -1.
         -5    1    5    5    0  502 -0.20938899529E+02 -0.34330953383E+02  0.11301016535E+03  0.12004348939E+03  0.47000000000E+01 0.  1.
         13    1    6    6    0    0  0.91751009144E+01  0.27699668814E+02  0.35916208114E+02  0.46275567360E+02  0.00000000000E+00 0. -1.
        -14    1    6    6    0    0  0.52364450848E+02 -0.32769177727E+02 -0.44884679129E+01  0.61935458872E+02  0.00000000000E+00 0.  1.
</event>
<event>
12    1  0.1035051E+000  0.1819521E+03  0.7818608E-02  0.1166357E+00
         21   -1    0    0  501  502  0.00000000000E+00  0.00000000000E+00  0.66999511677E+03  0.66999511677E+03  0.00000000000E+00 0. -1.
         21   -1    0    0  502  503 -0.00000000000E+00 -0.00000000000E+00 -0.51878093570E+02  0.51878093570E+02  0.00000000000E+00 0. -1.
         -6    2    1    2    0  503 -0.28994488285E+01 -0.55128158827E+02  0.39657697790E+03  0.43632540795E+03  0.17337543519E+03 0.  0.
        -24    2    3    3    0    0  0.33579572471E+02 -0.43196016807E+02  0.38364967983E+03  0.39555409397E+03  0.79262102369E+02 0.  0.
          6    2    1    2  501    0  0.28994488285E+01  0.55128158827E+02  0.22154004530E+03  0.28554780239E+03  0.17149354238E+03 0.  0.
         24    2    5    5    0    0  0.55319652924E+02  0.63114777018E+02  0.10710464837E+03  0.15933681262E+03  0.82904011214E+02 0.  0.
          5    1    5    5  501    0 -0.52420204095E+02 -0.79866181909E+01  0.11443539693E+03  0.12621098977E+03  0.47000000000E+01 0. -1.
        -13    1    6    6    0    0  0.21060807664E+02 -0.66758820101E+01 -0.52474111341E+01  0.22708155885E+02  0.00000000000E+00 0.  1.
         14    1    6    6    0    0  0.34258845260E+02  0.69790659028E+02  0.11235205951E+03  0.13662865674E+03  0.00000000000E+00 0. -1.
         -5    1    3    3    0  503 -0.36479021300E+02 -0.11932142020E+02  0.12927298070E+02  0.40771313979E+02  0.47000000000E+01 0.  1.
         13    1    4    4    0    0 -0.17419263001E+01  0.16344643938E+02  0.17389516221E+03  0.17467028692E+03  0.00000000000E+00 0. -1.
        -14    1    4    4    0    0  0.35321498771E+02 -0.59540660746E+02  0.20975451762E+03  0.22088380706E+03  0.00000000000E+00 0.  1.
</event>
<event>
12    1  0.1035051E+000  0.1926063E+03  0.7818608E-02  0.1156733E+00
         21   -1    0    0  501  502  0.00000000000E+00  0.00000000000E+00  0.25695028208E+03  0.25695028208E+03  0.00000000000E+00 0. -1.
         21   -1    0    0  502  503 -0.00000000000E+00 -0.00000000000E+00 -0.22607544826E+03  0.22607544826E+03  0.00000000000E+00 0. -1.
         -6    2    1    2    0  503 -0.78698579535E+02 -0.32575313441E+02  0.16246895050E+03  0.25197889548E+03  0.17275006925E+03 0.  0.
        -24    2    3    3    0    0 -0.38025809028E+02  0.46411217365E+02  0.61892540488E+02  0.11769989281E+03  0.80141218789E+02 0.  0.
          6    2    1    2  501    0  0.78698579535E+02  0.32575313441E+02 -0.13159411668E+03  0.23104683486E+03  0.16973806552E+03 0.  0.
         24    2    5    5    0    0 -0.15028171735E+02  0.32861903718E+02 -0.95512794675E+02  0.13050461569E+03  0.81258907868E+02 0.  0.
          5    1    5    5  501    0  0.93726751270E+02 -0.28659027762E+00 -0.36081322010E+02  0.10054221917E+03  0.47000000000E+01 0. -1.
        -13    1    6    6    0    0 -0.74510425677E+01  0.14974097413E+02 -0.10675664654E+03  0.10805888769E+03  0.00000000000E+00 0.  1.
         14    1    6    6    0    0 -0.75771291677E+01  0.17887806305E+02  0.11243851861E+02  0.22445728002E+02  0.00000000000E+00 0. -1.
         -5    1    3    3    0  503 -0.40672770507E+02 -0.78986530805E+02  0.10057641001E+03  0.13427900268E+03  0.47000000000E+01 0.  1.
         13    1    4    4    0    0 -0.53290564002E+02  0.32370119840E+01  0.41255378058E+02  0.67471243333E+02  0.00000000000E+00 0. -1.
        -14    1    4    4    0    0  0.15264754974E+02  0.43174205381E+02  0.20637162430E+02  0.50228649472E+02  0.00000000000E+00 0.  1.
</event>
<event>
12    1  0.1035051E+000  0.2122655E+03  0.7818608E-02  0.1140073E+00
         21   -1    0    0  503  502  0.00000000000E+00  0.00000000000E+00  0.20299782598E+03  0.20299782598E+03  0.00000000000E+00 0. -1.
         21   -1    0    0  501  503 -0.00000000000E+00 -0.00000000000E+00 -0.27953532926E+03  0.27953532926E+03  0.00000000000E+00 0. -1.
          6    2    1    2  501    0  0.22721954371E+02 -0.12180865269E+03 -0.14911667157E+03  0.25820216399E+03  0.17052548393E+03 0.  0.
         24    2    3    3    0    0 -0.16042417821E+02 -0.12510033350E+03 -0.58824583796E+02  0.15977319047E+03  0.78483680618E+02 0.  0.
         -6    2    1    2    0  502 -0.22721954371E+02  0.12180865269E+03  0.72579168288E+02  0.22433099125E+03  0.17234564946E+03 0.  0.
        -24    2    5    5    0    0 -0.49903982271E+02  0.13692583474E+03  0.24032652072E+02  0.16648424484E+03  0.76813695043E+02 0.  0.
          5    1    3    3  501    0  0.38764372192E+02  0.32916808146E+01 -0.90292087769E+02  0.98428973518E+02  0.47000000000E+01 0. -1.
        -13    1    4    4    0    0  0.23325794161E+02 -0.84091316520E+01 -0.15399701241E+02  0.29188301881E+02  0.00000000000E+00 0.  1.
         14    1    4    4    0    0 -0.39368211982E+02 -0.11669120185E+03 -0.43424882555E+02  0.13058488859E+03  0.00000000000E+00 0. -1.
         -5    1    5    5    0  502  0.27182027900E+02 -0.15117182058E+02  0.48546516216E+02  0.57846746415E+02  0.47000000000E+01 0.  1.
         11    1    6    6    0    0 -0.16658985986E+02  0.12892256097E+02 -0.21632773142E+02  0.30194518628E+02  0.00000000000E+00 0. -1.
        -12    1    6    6    0    0 -0.33244996285E+02  0.12403357865E+03  0.45665425213E+02  0.13628972621E+03  0.00000000000E+00 0.  1.
</event>
<event>
12    1  0.1035051E+000  0.2003580E+03  0.7818608E-02  0.1149851E+00
         21   -1    0    0  501  502  0.00000000000E+00  0.00000000000E+00  0.13539815764E+04  0.13539815764E+04  0.00000000000E+00 0. -1.
         21   -1    0    0  502  503 -0.00000000000E+00 -0.00000000000E+00 -0.32902970408E+02  0.32902970408E+02  0.00000000000E+00 0. -1.
         -6    2    1    2    0  503 -0.62777104243E+02 -0.75714010870E+02  0.43008439233E+03  0.47364087829E+03  0.17230647347E+03 0.  0.
        -24    2    3    3    0    0  0.12600668112E+02 -0.29110376615E+02  0.32308505883E+03  0.33462773265E+03  0.81151545608E+02 0.  0.
          6    2    1    2  501    0  0.62777104243E+02  0.75714010870E+02  0.89099421365E+03  0.91324366851E+03  0.17455581644E+03 0.  0.
         24    2    5    5    0    0  0.90172347120E+02  0.10235088175E+03  0.65554797241E+03  0.67467073472E+03  0.82648054881E+02 0.  0.
          5    1    5    5  501    0 -0.27395242877E+02 -0.26636870879E+02  0.23544624124E+03  0.23857293379E+03  0.47000000000E+01 0. -1.
        -13    1    6    6    0    0 -0.89263132498E+01  0.25461474400E+01  0.13923311481E+03  0.13954218786E+03  0.00000000000E+00 0.  1.
         14    1    6    6    0    0  0.99098660370E+02  0.99804734310E+02  0.51631485760E+03  0.53512854685E+03  0.00000000000E+00 0. -1.
         -5    1    3    3    0  503 -0.75377772355E+02 -0.46603634255E+02  0.10699933350E+03  0.13901314564E+03  0.47000000000E+01 0.  1.
         11    1    4    4    0    0  0.26604455658E+02 -0.50674465032E+02  0.26493708616E+03  0.27104862680E+03  0.00000000000E+00 0. -1.
        -12    1    4    4    0    0 -0.14003787546E+02  0.21564088417E+02  0.58147972676E+02  0.63579105855E+02  0.00000000000E+00 0.  1.
</event>
<event>
12    1  0.1035051E+000  0.1871455E+03  0.7818608E-02  0.1161143E+00
         21   -1    0    0  501  502  0.00000000000E+00  0.00000000000E+00  0.91028581239E+03  0.91028581239E+03  0.00000000000E+00 0.  1.
         21   -1    0    0  502  503 -0.00000000000E+00 -0.00000000000E+00 -0.38868912609E+02  0.38868912609E+02  0.00000000000E+00 0.  1.
         -6    2    1    2    0  503 -0.75270225026E+02  0.79928547983E+01  0.38412780805E+03  0.42729103297E+03  0.17115478793E+03 0.  0.
        -24    2    3    3    0    0 -0.84240860706E+01  0.22590463726E+01  0.59754014957E+02  0.96018138665E+02  0.74651672002E+02 0.  0.
          6    2    1    2  501    0  0.75270225026E+02 -0.79928547983E+01  0.48728909173E+03  0.52186369203E+03  0.17076756612E+03 0.  0.
         24    2    5    5    0    0  0.91004024302E+02  0.26452393068E+02  0.22680434727E+03  0.25859876912E+03  0.80322163262E+02 0.  0.
          5    1    5    5  501    0 -0.15733799276E+02 -0.34445247866E+02  0.26048474445E+03  0.26326492291E+03  0.47000000000E+01 0. -1.
        -13    1    6    6    0    0  0.13683909678E+02 -0.14833943006E+02  0.60336077134E+01  0.21064179814E+02  0.00000000000E+00 0.  1.
         14    1    6    6    0    0  0.77320114623E+02  0.41286336074E+02  0.22077073956E+03  0.23753458931E+03  0.00000000000E+00 0. -1.
         -5    1    3    3    0  503 -0.66846138955E+02  0.57338084257E+01  0.32437379310E+03  0.33127289430E+03  0.47000000000E+01 0.  1.
         13    1    4    4    0    0  0.67139847900E+01 -0.28766657649E+02  0.31362486584E+01  0.29705794716E+02  0.00000000000E+00 0. -1.
        -14    1    4    4    0    0 -0.15138070861E+02  0.31025704022E+02  0.56617766298E+02  0.66312343949E+02  0.00000000000E+00 0.  1.
</event>
<event>
12    1  0.1035051E+000  0.1949060E+03  0.7818608E-02  0.1155154E+00
         21   -1    0    0  501  502  0.00000000000E+00  0.00000000000E+00  0.10539215882E+03  0.10539215882E+03  0.00000000000E+00 0.  1.
         21   -1    0    0  502  503 -0.00000000000E+00 -0.00000000000E+00 -0.39632272561E+03  0.39632272561E+03  0.00000000000E+00 0.  1.
         -6    2    1    2    0  503 -0.86615292599E+02 -0.16696551546E+01 -0.59772324528E+02  0.19935340495E+03  0.16930461490E+03 0.  0.
        -24    2    3    3    0    0  0.62345487153E+01  0.18771547870E+02  0.89920795237E+01  0.81924409055E+02  0.78990573474E+02 0.  0.
          6    2    1    2  501    0  0.86615292599E+02  0.16696551546E+01 -0.23115824226E+03  0.30236147947E+03  0.17459477268E+03 0.  0.
         24    2    5    5    0    0  0.85958124065E+02 -0.57206807845E+02 -0.12923480280E+03  0.18455932637E+03  0.81847985543E+02 0.  0.
          5    1    5    5  501    0  0.65716853340E+00  0.58876463000E+02 -0.10192343945E+03  0.11780215311E+03  0.47000000000E+01 0. -1.
        -11    1    6    6    0    0  0.57727619184E+01 -0.29084938947E+02 -0.82313650771E+02  0.87491688502E+02  0.00000000000E+00 0.  1.
         12    1    6    6    0    0  0.80185362147E+02 -0.28121868899E+02 -0.46921152033E+02  0.97067637867E+02  0.00000000000E+00 0. -1.
         -5    1    3    3    0  503 -0.92849841314E+02 -0.20441203025E+02 -0.68764404052E+02  0.11742899590E+03  0.47000000000E+01 0.  1.
         13    1    4    4    0    0 -0.61381281425E+01  0.44211868889E+02 -0.12549972057E+02  0.46366666544E+02  0.00000000000E+00 0. -1.
        -14    1    4    4    0    0  0.12372676858E+02 -0.25440321019E+02  0.21542051581E+02  0.35557742511E+02  0.00000000000E+00 0.  1.
</event>
<event>
12    1  0.1035051E+000  0.1913376E+03  0.7818608E-02  0.1157652E+00
         21   -1    0    0  501  502  0.00000000000E+00  0.00000000000E+00  0.48267206340E+03  0.48267206340E+03  0.00000000000E+00 0.  1.
         21   -1    0    0  502  503 -0.00000000000E+00 -0.00000000000E+00 -0.77206870164E+02  0.77206870164E+02  0.00000000000E+00 0.  1.
         -6    2    1    2    0  503 -0.47110248204E+02  0.68971014495E+02  0.15624154636E+03  0.24567758052E+03  0.17020480732E+03 0.  0.
        -24    2    3    3    0    0 -0.52445700766E+02  0.10056993518E+03  0.16239497701E+03  0.21270920854E+03  0.77512679273E+02 0.  0.
          6    2    1    2  501    0  0.47110248204E+02 -0.68971014495E+02  0.24922364688E+03  0.31420135305E+03  0.17214438059E+03 0.  0.
         24    2    5    5    0    0  0.11615552469E+02  0.94505008776E+01  0.19756013434E+03  0.21369754205E+03  0.80077461049E+02 0.  0.
          5    1    5    5  501    0  0.35494695735E+02 -0.78421515373E+02  0.51663512531E+02  0.10050381100E+03  0.47000000000E+01 0. -1.
        -11    1    6    6    0    0  0.44305441961E+02 -0.67608476045E+01  0.11548433176E+03  0.12387619678E+03  0.00000000000E+00 0.  1.
         12    1    6    6    0    0 -0.32689889492E+02  0.16211348482E+02  0.82075802584E+02  0.89821345261E+02  0.00000000000E+00 0. -1.
         -5    1    3    3    0  503  0.53354525615E+01 -0.31598920685E+02 -0.61534306451E+01  0.32968371983E+02  0.47000000000E+01 0.  1.
         11    1    4    4    0    0  0.81150731344E+00  0.29305719598E+02  0.99571544692E+02  0.10379776615E+03  0.00000000000E+00 0. -1.
        -12    1    4    4    0    0 -0.53257208079E+02  0.71264215582E+02  0.62823432315E+02  0.10891144239E+03  0.00000000000E+00 0.  1.
</event>
<event>
12    1  0.1035051E+000  0.3492592E+03  0.7818608E-02  0.1062981E+00
         21   -1    0    0  503  502  0.00000000000E+00  0.00000000000E+00  0.33708093050E+03  0.33708093050E+03  0.00000000000E+00 0.  1.
         21   -1    0    0  501  503 -0.00000000000E+00 -0.00000000000E+00 -0.91165089812E+03  0.91165089812E+03  0.00000000000E+00 0.  1.
          6    2    1    2  501    0  0.14008862097E+03 -0.26915888880E+03 -0.77232090422E+03  0.84737482667E+03  0.17173581058E+03 0.  0.
         24    2    3    3    0    0  0.60131576026E+02 -0.69254948122E+02 -0.39267815637E+03  0.41090556025E+03  0.78963223592E+02 0.  0.
         -6    2    1    2    0  502 -0.14008862097E+03  0.26915888880E+03  0.19775093661E+03  0.40135700194E+03  0.17294704663E+03 0.  0.
        -24    2    5    5    0    0 -0.64552899879E+02  0.24101171610E+03  0.11576398088E+03  0.28628372355E+03  0.79393620152E+02 0.  0.
          5    1    3    3  501    0  0.79957044939E+02 -0.19990394067E+03 -0.37964274785E+03  0.43646926642E+03  0.47000000000E+01 0. -1.
        -11    1    4    4    0    0  0.40954834916E+02 -0.11524096928E+02 -0.65393820849E+02  0.78015736350E+02  0.00000000000E+00 0.  1.
         12    1    4    4    0    0  0.19176741110E+02 -0.57730851195E+02 -0.32728433552E+03  0.33288982390E+03  0.00000000000E+00 0. -1.
         -5    1    5    5    0  502 -0.75535721087E+02  0.28147172697E+02  0.81986955725E+02  0.11507327839E+03  0.47000000000E+01 0.  1.
         13    1    6    6    0    0 -0.19846574580E+02  0.42269453130E+02  0.58161210171E+02  0.74587663585E+02  0.00000000000E+00 0. -1.
        -14    1    6    6    0    0 -0.44706325298E+02  0.19874226297E+03  0.57602770712E+02  0.21169605997E+03  0.00000000000E+00 0.  1.
</event>
<event>
12    1  0.1035051E+000  0.5511008E+03  0.7818608E-02  0.1001280E+00
         21   -1    0    0  503  502  0.00000000000E+00  0.00000000000E+00  0.25940623973E+03  0.25940623973E+03  0.00000000000E+00 0.  1.
         21   -1    0    0  501  503 -0.00000000000E+00 -0.00000000000E+00 -0.11734441619E+04  0.11734441619E+04  0.00000000000E+00 0.  1.
          6    2    1    2  501    0 -0.29758067095E+03 -0.43081413261E+03 -0.41425457463E+03  0.68887762351E+03  0.16967750289E+03 0.  0.
         24    2    3    3    0    0 -0.91511690860E+02 -0.11997120859E+03 -0.81204784721E+02  0.18884562401E+03  0.79378663311E+02 0.  0.
         -6    2    1    2    0  502  0.29758067095E+03  0.43081413261E+03 -0.49978334758E+03  0.74397277815E+03  0.17192157378E+03 0.  0.
        -24    2    5    5    0    0  0.16574512865E+03  0.22021368898E+03 -0.17772990950E+03  0.33718823561E+03  0.78373905218E+02 0.  0.
          5    1    3    3  501    0 -0.20606898009E+03 -0.31084292402E+03 -0.33304978991E+03  0.50003199950E+03  0.47000000000E+01 0. -1.
        -13    1    4    4    0    0 -0.21134784028E+02  0.80163669068E+01 -0.21033264421E+02  0.30876195467E+02  0.00000000000E+00 0.  1.
         14    1    4    4    0    0 -0.70376906832E+02 -0.12798757550E+03 -0.60171520300E+02  0.15796942854E+03  0.00000000000E+00 0. -1.
         -5    1    5    5    0  502  0.13183554230E+03  0.21060044364E+03 -0.32205343807E+03  0.40678454254E+03  0.47000000000E+01 0.  1.
         11    1    6    6    0    0  0.16208807703E+03  0.21798940121E+03 -0.18506480029E+03  0.32869576215E+03  0.00000000000E+00 0. -1.
        -12    1    6    6    0    0  0.36570516246E+01  0.22242877691E+01  0.73348907821E+01  0.84924734589E+01  0.00000000000E+00 0.  1.
</event>
<event>
12    1  0.1035051E+000  0.2503869E+03  0.7818608E-02  0.1113096E+00
         21   -1    0    0  503  502  0.00000000000E+00  0.00000000000E+00  0.43241780661E+03  0.43241780661E+03  0.00000000000E+00 0.  1.
         21   -1    0    0  501  503 -0.00000000000E+00 -0.00000000000E+00 -0.18095425229E+03  0.18095425229E+03  0.00000000000E+00 0.  1.
          6    2    1    2  501    0  0.18055394092E+03  0.22178100298E+02 -0.11297922617E+02  0.25041584123E+03  0.17172319812E+03 0.  0.
         24    2    3    3    0    0  0.19399175840E+02 -0.70113140337E+01 -0.25049723379E+02  0.85995397733E+02  0.79638139369E+02 0.  0.
         -6    2    1    2    0  502 -0.18055394092E+03 -0.22178100298E+02  0.26276147694E+03  0.36295621768E+03  0.17205240037E+03 0.  0.
        -24    2    5    5    0    0 -0.62895202270E+02  0.50352932249E+02  0.11289324749E+03  0.15902753980E+03  0.77805197967E+02 0.  0.
          5    1    3    3  501    0  0.16115476508E+03  0.29189414332E+02  0.13751800761E+02  0.16442044350E+03  0.47000000000E+01 0. -1.
        -13    1    4    4    0    0  0.33474213611E+02  0.11452344527E+02 -0.43692432987E+02  0.56220173180E+02  0.00000000000E+00 0.  1.
         14    1    4    4    0    0 -0.14075037771E+02 -0.18463658560E+02  0.18642709608E+02  0.29775224553E+02  0.00000000000E+00 0. -1.
         -5    1    5    5    0  502 -0.11765873865E+03 -0.72531032547E+02  0.14986822945E+03  0.20392867788E+03  0.47000000000E+01 0.  1.
         11    1    6    6    0    0 -0.54389027253E+02  0.14060578116E+02  0.10759406956E+03  0.12137689215E+03  0.00000000000E+00 0. -1.
        -12    1    6    6    0    0 -0.85061750167E+01  0.36292354133E+02  0.52991779309E+01  0.37650647653E+02  0.00000000000E+00 0.  1.
</event>
<event>
12    1  0.1035051E+000  0.2366218E+03  0.7818608E-02  0.1122177E+00
         21   -1    0    0  501  502  0.00000000000E+00  0.00000000000E+00  0.76364593013E+03  0.76364593013E+03  0.00000000000E+00 0. -1.
         21   -1    0    0  502  503 -0.00000000000E+00 -0.00000000000E+00 -0.80572809927E+02  0.80572809927E+02  0.00000000000E+00 0. -1.
         -6    2    1    2    0  503  0.79039634848E+02  0.14237399912E+03  0.47041057257E+03  0.52657000211E+03  0.17167481132E+03 0.  0.
        -24    2    3    3    0    0 -0.10013550973E+02  0.11259112136E+03  0.22684943298E+03  0.26549221977E+03  0.79046958866E+02 0.  0.
          6    2    1    2  501    0 -0.79039634848E+02 -0.14237399912E+03  0.21266254764E+03  0.31764873794E+03  0.17075638216E+03 0.  0.
         24    2    5    5    0    0 -0.19446796908E+02 -0.12463561507E+03  0.20684092423E+03  0.25502336049E+03  0.79633736604E+02 0.  0.
          5    1    5    5  501    0 -0.59592837940E+02 -0.17738384051E+02  0.58216234099E+01  0.62625377457E+02  0.47000000000E+01 0. -1.
        -13    1    6    6    0    0 -0.46350986806E+02 -0.79673728901E+02  0.99848043421E+02  0.13588947284E+03  0.00000000000E+00 0.  1.
         14    1    6    6    0    0  0.26904189897E+02 -0.44961886168E+02  0.10699288081E+03  0.11913388764E+03  0.00000000000E+00 0. -1.
         -5    1    3    3    0  503  0.89053185821E+02  0.29782877757E+02  0.24356113959E+03  0.26107778234E+03  0.47000000000E+01 0.  1.
         13    1    4    4    0    0 -0.17671861934E+02  0.99662719737E+02  0.22894410371E+03  0.25032050462E+03  0.00000000000E+00 0. -1.
        -14    1    4    4    0    0  0.76583109612E+01  0.12928401626E+02 -0.20946707292E+01  0.15171715158E+02  0.00000000000E+00 0.  1.
</event>
<event>
12    1  0.1035051E+000  0.2016886E+03  0.7818608E-02  0.1148345E+00
         21   -1    0    0  503  502  0.00000000000E+00  0.00000000000E+00  0.65601460503E+03  0.65601460503E+03  0.00000000000E+00 0. -1.
         21   -1    0    0  501  503 -0.00000000000E+00 -0.00000000000E+00 -0.86806471018E+02  0.86806471018E+02  0.00000000000E+00 0. -1.
          6    2    1    2  501    0 -0.14997773120E+02 -0.10479601101E+03  0.86012541772E+02  0.21926343930E+03  0.17167166729E+03 0.  0.
         24    2    3    3    0    0  0.34072575485E+02 -0.10832992945E+02  0.60040968819E+01  0.86371042489E+02  0.78393964468E+02 0.  0.
         -6    2    1    2    0  502  0.14997773120E+02  0.10479601101E+03  0.48319559224E+03  0.52355763675E+03  0.17154440099E+03 0.  0.
        -24    2    5    5    0    0  0.39487850337E+02  0.36165623915E+02  0.12120208210E+03  0.15427280724E+03  0.79012098265E+02 0.  0.
          5    1    3    3  501    0 -0.49070348606E+02 -0.93963018070E+02  0.80008444890E+02  0.13289239681E+03  0.47000000000E+01 0. -1.
        -13    1    4    4    0    0  0.23216339907E+01  0.15715501643E+02 -0.28406571859E+02  0.32546893877E+02  0.00000000000E+00 0.  1.
         14    1    4    4    0    0  0.31750941494E+02 -0.26548494587E+02  0.34410668741E+02  0.53824148612E+02  0.00000000000E+00 0. -1.
         -5    1    5    5    0  502 -0.24490077217E+02  0.68630387099E+02  0.36199351014E+03  0.36928482950E+03  0.47000000000E+01 0.  1.
         13    1    6    6    0    0  0.12886908673E+02  0.46273952031E+02  0.25406769524E+02  0.54340178407E+02  0.00000000000E+00 0. -1.
        -14    1    6    6    0    0  0.26600941665E+02 -0.10108328116E+02  0.95795312576E+02  0.99932628837E+02  0.00000000000E+00 0.  1.
</event>
<event>
12    1  0.1035051E+000  0.2104903E+03  0.7818608E-02  0.1142007E+00
         21   -1    0    0  503  502  0.00000000000E+00  0.00000000000E+00  0.10323289483E+04  0.10323289483E+04  0.00000000000E+00 0. -1.
         21   -1    0    0  501  503 -0.00000000000E+00 -0.00000000000E+00 -0.50500356153E+02  0.50500356153E+02  0.00000000000E+00 0. -1.
          6    2    1    2  501    0 -0.54090704405E+02 -0.10887332747E+03  0.27386395149E+03  0.34540934628E+03  0.17183406773E+03 0.  0.
         24    2    3    3    0    0  0.15741127192E+02 -0.45155077829E+02  0.55791757004E+02  0.10768246086E+03  0.78714853035E+02 0.  0.
         -6    2    1    2    0  502  0.54090704405E+02  0.10887332747E+03  0.70796464070E+03  0.73741995822E+03  0.16671849496E+03 0.  0.
        -24    2    5    5    0    0  0.44349487674E+02 -0.30076330367E+01  0.31725548779E+03  0.33086372251E+03  0.82727476857E+02 0.  0.
          5    1    3    3  501    0 -0.69831831597E+02 -0.63718249639E+02  0.21807219449E+03  0.23772688542E+03  0.47000000000E+01 0. -1.
        -13    1    4    4    0    0 -0.77829569841E+01 -0.54606321916E+02  0.60529715741E+02  0.81891826822E+02  0.00000000000E+00 0.  1.
         14    1    4    4    0    0  0.23524084176E+02  0.94512440868E+01 -0.47379587367E+01  0.25790634038E+02  0.00000000000E+00 0. -1.
         -5    1    5    5    0  502  0.97412167306E+01  0.11188096050E+03  0.39070915291E+03  0.40655623571E+03  0.47000000000E+01 0.  1.
         13    1    6    6    0    0  0.55736189464E+02 -0.13277453141E+02  0.30726756366E+03  0.31256386429E+03  0.00000000000E+00 0. -1.
        -14    1    6    6    0    0 -0.11386701790E+02  0.10269820105E+02  0.99879241249E+01  0.18299858222E+02  0.00000000000E+00 0.  1.
</event>
<event>
12    1  0.1035051E+000  0.6399957E+03  0.7818608E-02  0.9825735E-01
         21   -1    0    0  501  502  0.00000000000E+00  0.00000000000E+00  0.16830010814E+04  0.16830010814E+04  0.00000000000E+00 0. -1.
         21   -1    0    0  502  503 -0.00000000000E+00 -0.00000000000E+00 -0.25911361193E+03  0.25911361193E+03  0.00000000000E+00 0. -1.
         -6    2    1    2    0  503  0.32342567294E+02 -0.61554542081E+03  0.47259403722E+03  0.79557506118E+03  0.17219856913E+03 0.  0.
        -24    2    3    3    0    0  0.52699557270E+02 -0.28113066740E+03  0.15974178007E+03  0.33715793765E+03  0.79663938707E+02 0.  0.
          6    2    1    2  501    0 -0.32342567294E+02  0.61554542081E+03  0.95129343223E+03  0.11465396321E+04  0.17219676858E+03 0.  0.
         24    2    5    5    0    0  0.26638192920E+02  0.23788874065E+03  0.31006101684E+03  0.40001140179E+03  0.81059491436E+02 0.  0.
          5    1    5    5  501    0 -0.58980760215E+02  0.37765668016E+03  0.64123241540E+03  0.74652823035E+03  0.47000000000E+01 0. -1.
        -11    1    6    6    0    0  0.51097521159E+02  0.18800682634E+03  0.26235272575E+03  0.32678200092E+03  0.00000000000E+00 0.  1.
         12    1    6    6    0    0 -0.24459328239E+02  0.49881914312E+02  0.47708291085E+02  0.73229400868E+02  0.00000000000E+00 0. -1.
         -5    1    3    3    0  503 -0.20356989975E+02 -0.33441475341E+03  0.31285225716E+03  0.45841712353E+03  0.47000000000E+01 0.  1.
         13    1    4    4    0    0  0.23423795213E+02 -0.24802958881E+03  0.11542063258E+03  0.27457107191E+03  0.00000000000E+00 0. -1.
        -14    1    4    4    0    0  0.29275762057E+02 -0.33101078598E+02  0.44321147490E+02  0.62586865740E+02  0.00000000000E+00 0.  1.
</event>
<event>
12    1  0.1035051E+000  0.2455483E+03  0.7818608E-02  0.1116269E+00
         21   -1    0    0  501  502  0.00000000000E+00  0.00000000000E+00  0.61686527626E+03  0.61686527626E+03  0.00000000000E+00 0.  1.
         21   -1    0    0  502  503 -0.00000000000E+00 -0.00000000000E+00 -0.98380349397E+02  0.98380349397E+02  0.00000000000E+00 0.  1.
         -6    2    1    2    0  503 -0.16827265613E+03 -0.41090154855E+02  0.22490425130E+03  0.33298029010E+03  0.17403983370E+03 0.  0.
        -24    2    3    3    0    0 -0.18042804048E+03  0.45425055501E+01  0.19277692209E+03  0.27567105571E+03  0.79099160037E+02 0.  0.
          6    2    1    2  501    0  0.16827265613E+03  0.41090154855E+02  0.29358067557E+03  0.38226533556E+03  0.17301180906E+03 0.  0.
         24    2    5    5    0    0  0.13400321899E+03 -0.28254130890E+02  0.23764854849E+03  0.28669589940E+03  0.83441881116E+02 0.  0.
          5    1    5    5  501    0  0.34269437144E+02  0.69344285744E+02  0.55932127080E+02  0.95569436157E+02  0.47000000000E+01 0. -1.
        -11    1    6    6    0    0  0.12428691348E+03 -0.50245278904E+02  0.18171703368E+03  0.22581608721E+03  0.00000000000E+00 0.  1.
         12    1    6    6    0    0  0.97163055110E+01  0.21991148014E+02  0.55931514808E+02  0.60879812191E+02  0.00000000000E+00 0. -1.
         -5    1    3    3    0  503  0.12155384343E+02 -0.45632660405E+02  0.32127329204E+02  0.57309234386E+02  0.47000000000E+01 0.  1.
         11    1    4    4    0    0 -0.91840267832E+02  0.40863203408E+02  0.86372704173E+02  0.13253180831E+03  0.00000000000E+00 0. -1.
        -12    1    4    4    0    0 -0.88587772645E+02 -0.36320697858E+02  0.10640421792E+03  0.14313924740E+03  0.00000000000E+00 0.  1.
</event>
<event>
12    1  0.1035051E+000  0.2953742E+03  0.7818608E-02  0.1087610E+00
         21   -1    0    0  503  502  0.00000000000E+00  0.00000000000E+00  0.42867888029E+03  0.42867888029E+03  0.00000000000E+00 0. -1.
         21   -1    0    0  501  503 -0.00000000000E+00 -0.00000000000E+00 -0.21057047099E+03  0.21057047099E+03  0.00000000000E+00 0.  1.
          6    2    1    2  501    0  0.15634386293E+03 -0.18203905801E+03  0.49870229843E+02  0.29955460989E+03  0.17223327891E+03 0.  0.
         24    2    3    3    0    0  0.65721776929E+02 -0.38377138867E+02 -0.26447422589E+02  0.11328173597E+03  0.79631204897E+02 0.  0.
         -6    2    1    2    0  502 -0.15634386293E+03  0.18203905801E+03  0.16823817946E+03  0.33969474138E+03  0.17177546441E+03 0.  0.
        -24    2    5    5    0    0 -0.78732553833E+02  0.20972937830E+02  0.77068637327E+02  0.13894667593E+03  0.82023927833E+02 0.  0.
          5    1    3    3  501    0  0.90622086006E+02 -0.14366191915E+03  0.76317652432E+02  0.18627287392E+03  0.47000000000E+01 0. -1.
        -13    1    4    4    0    0  0.37507178928E+02  0.21920406759E+02 -0.76993033936E+01  0.44119972533E+02  0.00000000000E+00 0.  1.
         14    1    4    4    0    0  0.28214598001E+02 -0.60297545626E+02 -0.18748119195E+02  0.69161763441E+02  0.00000000000E+00 0. -1.
         -5    1    5    5    0  502 -0.77611309102E+02  0.16106612018E+03  0.91169542129E+02  0.20074806545E+03  0.47000000000E+01 0.  1.
         13    1    6    6    0    0 -0.71150908806E+02  0.48253979567E+02  0.48426625358E+02  0.98671355577E+02  0.00000000000E+00 0. -1.
        -14    1    6    6    0    0 -0.75816450265E+01 -0.27281041736E+02  0.28642011969E+02  0.40275320349E+02  0.00000000000E+00 0.  1.
</event>
<event>
12    1  0.1035051E+000  0.2328682E+03  0.7818608E-02  0.1124920E+00
         21   -1    0    0  503  502  0.00000000000E+00  0.00000000000E+00  0.11357811838E+04  0.11357811838E+04  0.00000000000E+00 0.  1.
         21   -1    0    0  501  503 -0.00000000000E+00 -0.00000000000E+00 -0.82328408646E+02  0.82328408646E+02  0.00000000000E+00 0.  1.
          6    2    1    2  501    0  0.10189516044E+02  0.15453964886E+03  0.92443330411E+03  0.95331240690E+03  0.17390020730E+03 0.  0.
         24    2    3    3    0    0  0.57657055246E+01  0.21902897336E+02  0.52854075302E+03  0.53574195780E+03  0.84564398371E+02 0.  0.
         -6    2    1    2    0  502 -0.10189516044E+02 -0.15453964886E+03  0.12901947105E+03  0.26479718555E+03  0.17171253960E+03 0.  0.
        -24    2    5    5    0    0  0.59268833513E+02 -0.67443756457E+02  0.52213681646E+02  0.12940377329E+03  0.77185575594E+02 0.  0.
          5    1    3    3  501    0  0.44238105199E+01  0.13263675153E+03  0.39589255109E+03  0.41757044910E+03  0.47000000000E+01 0. -1.
        -13    1    4    4    0    0 -0.97953795451E+01 -0.35708821148E+01  0.53835930990E+01  0.11733871235E+02  0.00000000000E+00 0.  1.
         14    1    4    4    0    0  0.15561085070E+02  0.25473779451E+02  0.52315715992E+03  0.52400808657E+03  0.00000000000E+00 0. -1.
         -5    1    5    5    0  502 -0.69458349557E+02 -0.87095892405E+02  0.76805789403E+02  0.13539341226E+03  0.47000000000E+01 0.  1.
         13    1    6    6    0    0 -0.76056114021E+01 -0.48224407373E+02  0.21658706680E+02  0.53409159948E+02  0.00000000000E+00 0. -1.
        -14    1    6    6    0    0  0.66874444915E+02 -0.19219349083E+02  0.30554974967E+02  0.75994613343E+02  0.00000000000E+00 0.  1.
</event>
<event>
12    1  0.1035051E+000  0.1851436E+03  0.7818608E-02  0.1164686E+00
         21   -1    0    0  501  502  0.00000000000E+00  0.00000000000E+00  0.48751522366E+02  0.48751522366E+02  0.00000000000E+00 0. -1.
         21   -1    0    0  502  503 -0.00000000000E+00 -0.00000000000E+00 -0.69375843617E+03  0.69375843617E+03  0.00000000000E+00 0. -1.
         -6    2    1    2    0  503 -0.28810564554E+02 -0.50579535259E+02 -0.37678916889E+03  0.41659753287E+03  0.16791393207E+03 0.  0.
        -24    2    3    3    0    0 -0.82207054182E+02 -0.46831290633E+02 -0.24945415446E+03  0.27838924679E+03  0.79511181658E+02 0.  0.
          6    2    1    2  501    0  0.28810564554E+02  0.50579535259E+02 -0.26821774492E+03  0.32591242567E+03  0.17575497859E+03 0.  0.
         24    2    5    5    0    0  0.60262695466E+02  0.87215028787E+02 -0.17044138880E+03  0.21676252076E+03  0.81839291794E+02 0.  0.
          5    1    5    5  501    0 -0.31452130912E+02 -0.36635493528E+02 -0.97776356122E+02  0.10914990491E+03  0.47000000000E+01 0. -1.
        -11    1    6    6    0    0  0.41895429401E+02  0.20310623620E+00 -0.34280133064E+02  0.54133130149E+02  0.00000000000E+00 0.  1.
         12    1    6    6    0    0  0.18367266065E+02  0.87011922550E+02 -0.13616125573E+03  0.16262939061E+03  0.00000000000E+00 0. -1.
         -5    1    3    3    0  503  0.53396489628E+02 -0.37482446258E+01 -0.12733501442E+03  0.13820828608E+03  0.47000000000E+01 0.  1.
         11    1    4    4    0    0  0.81069572687E+01 -0.10820010714E+02 -0.35758587375E+01  0.13985068957E+02  0.00000000000E+00 0. -1.
        -12    1    4    4    0    0 -0.90314011451E+02 -0.36011279919E+02 -0.24587829573E+03  0.26440417783E+03  0.00000000000E+00 0.  1.
</event>
<event>
12    1  0.1035051E+000  0.1920640E+03  0.7818608E-02  0.1156752E+00
         21   -1    0    0  503  502  0.00000000000E+00  0.00000000000E+00  0.32251998381E+03  0.32251998381E+03  0.00000000000E+00 0.  1.
         21   -1    0    0  501  503 -0.00000000000E+00 -0.00000000000E+00 -0.14865728972E+03  0.14865728972E+03  0.00000000000E+00 0. -1.
          6    2    1    2  501    0 -0.60829576711E+02  0.61795532021E+02  0.20078681421E+03  0.27785594466E+03  0.17137577437E+03 0.  0.
         24    2    3    3    0    0 -0.75803517056E+02  0.87054319941E+02  0.99953741609E+02  0.17272924117E+03  0.80746594198E+02 0.  0.
         -6    2    1    2    0  502  0.60829576711E+02 -0.61795532021E+02 -0.26924120117E+02  0.19332132887E+03  0.17067308742E+03 0.  0.
        -24    2    5    5    0    0  0.42341076963E+02 -0.10164975460E+03  0.92747385454E+01  0.13620188342E+03  0.79620932320E+02 0.  0.
          5    1    3    3  501    0  0.14973940346E+02 -0.25258787919E+02  0.10083307260E+03  0.10512670349E+03  0.47000000000E+01 0. -1.
        -11    1    4    4    0    0  0.93176300484E+01  0.39979004473E+02  0.45389356921E+02  0.61199123769E+02  0.00000000000E+00 0.  1.
         12    1    4    4    0    0 -0.85121147105E+02  0.47075315467E+02  0.54564384688E+02  0.11153011740E+03  0.00000000000E+00 0. -1.
         -5    1    5    5    0  502  0.18488499748E+02  0.39854222574E+02 -0.36198858662E+02  0.57119445449E+02  0.47000000000E+01 0.  1.
         11    1    6    6    0    0  0.16606461095E+00 -0.76081992819E+01 -0.26137024548E+02  0.27222349751E+02  0.00000000000E+00 0. -1.
        -12    1    6    6    0    0  0.42175012352E+02 -0.94041555314E+02  0.35411763093E+02  0.10897953367E+03  0.00000000000E+00 0.  1.
</event>
<event>
12    1  0.1035051E+000  0.2071091E+03  0.7818608E-02  0.1143997E+00
         21   -1    0    0  503  502  0.00000000000E+00  0.00000000000E+00  0.56887815212E+03  0.56887815212E+03  0.00000000000E+00 0. -1.
         21   -1    0    0  501  503 -0.00000000000E+00 -0.00000000000E+00 -0.83201574655E+02  0.83201574655E+02  0.00000000000E+00 0. -1.
          6    2    1    2  501    0  0.30173104682E+02 -0.10928875208E+03  0.34437244820E+03  0.40185390753E+03  0.17331974020E+03 0.  0.
         24    2    3    3    0    0  0.38117326394E+02 -0.93757756695E+01  0.24458088071E+03  0.26034009034E+03  0.80101933114E+02 0.  0.
         -6    2    1    2    0  502 -0.30173104682E+02  0.10928875208E+03  0.14130412927E+03  0.25022581925E+03  0.17260259584E+03 0.  0.
        -24    2    5    5    0    0 -0.18043075945E+02  0.14444307891E+03  0.13059747077E+03  0.21124265842E+03  0.79864921765E+02 0.  0.
          5    1    3    3  501    0 -0.79442217117E+01 -0.99912976410E+02  0.99791567484E+02  0.14151381719E+03  0.47000000000E+01 0. -1.
        -11    1    4    4    0    0 -0.21852159051E+02 -0.15349280822E+02  0.10424365459E+03  0.10760974305E+03  0.00000000000E+00 0.  1.
         12    1    4    4    0    0  0.59969485445E+02  0.59735051530E+01  0.14033722612E+03  0.15273034729E+03  0.00000000000E+00 0. -1.
         -5    1    5    5    0  502 -0.12130028737E+02 -0.35154326830E+02  0.10706658495E+02  0.38983160829E+02  0.47000000000E+01 0.  1.
         13    1    6    6    0    0 -0.29132520018E+02  0.12916823119E+03  0.74232827790E+02  0.15180134516E+03  0.00000000000E+00 0. -1.
        -14    1    6    6    0    0  0.11089444073E+02  0.15274847717E+02  0.56364642984E+02  0.59441313253E+02  0.00000000000E+00 0.  1.
</event>
<event>
12    1  0.1035051E+000  0.3010673E+03  0.7818608E-02  0.1084867E+00
         21   -1    0    0  501  502  0.00000000000E+00  0.00000000000E+00  0.59919677872E+03  0.59919677872E+03  0.00000000000E+00 0. -1.
         21   -1    0    0  502  503 -0.00000000000E+00 -0.00000000000E+00 -0.15434186964E+03  0.15434186964E+03  0.00000000000E+00 0.  1.
         -6    2    1    2    0  503 -0.24357381749E+03  0.43491407300E+02  0.16448169484E+03  0.34306815609E+03  0.17152791233E+03 0.  0.
        -24    2    3    3    0    0 -0.10075702781E+03 -0.40432495273E+02  0.83529018187E+02  0.15863583057E+03  0.80009152819E+02 0.  0.
          6    2    1    2  501    0  0.24357381749E+03 -0.43491407300E+02  0.28037321424E+03  0.41047049227E+03  0.16928431317E+03 0.  0.
         24    2    5    5    0    0  0.25019267401E+03 -0.57617131868E+02  0.21754357570E+03  0.34556287457E+03  0.78564527245E+02 0.  0.
          5    1    5    5  501    0 -0.66188565186E+01  0.14125724568E+02  0.62829638541E+02  0.64907617699E+02  0.47000000000E+01 0. -1.
        -11    1    6    6    0    0  0.89824978387E+02  0.16587401476E+02  0.64811399428E+02  0.11200083092E+03  0.00000000000E+00 0.  1.
         12    1    6    6    0    0  0.16036769562E+03 -0.74204533344E+02  0.15273217627E+03  0.23356204366E+03  0.00000000000E+00 0. -1.
         -5    1    3    3    0  503 -0.14281678969E+03  0.83923902573E+02  0.80952676648E+02  0.18443232552E+03  0.47000000000E+01 0.  1.
         11    1    4    4    0    0 -0.10761504192E+02  0.14166030165E+02 -0.76586063478E+01  0.19368547553E+02  0.00000000000E+00 0. -1.
        -12    1    4    4    0    0 -0.89995523613E+02 -0.54598525438E+02  0.91187624535E+02  0.13926728302E+03  0.00000000000E+00 0.  1.
</event>
<event>
12    1  0.1035051E+000  0.1781576E+03  0.7818608E-02  0.1169639E+00
         21   -1    0    0  501  502  0.00000000000E+00  0.00000000000E+00  0.92944329949E+02  0.92944329949E+02  0.00000000000E+00 0. -1.
         21   -1    0    0  502  503 -0.00000000000E+00 -0.00000000000E+00 -0.51031739773E+03  0.51031739773E+03  0.00000000000E+00 0. -1.
         -6    2    1    2    0  503 -0.33731314912E+02  0.27703544646E+02 -0.34969336079E+02  0.18139355368E+03  0.17255572682E+03 0.  0.
        -24    2    3    3    0    0  0.31522520938E+02  0.17429438502E+02  0.24321433679E+02  0.92505389510E+02  0.81659416477E+02 0.  0.
          6    2    1    2  501    0  0.33731314912E+02 -0.27703544646E+02 -0.38240373170E+03  0.42186817400E+03  0.17272768807E+03 0.  0.
         24    2    5    5    0    0  0.51405614427E+02  0.20983032264E+02 -0.11981605927E+03  0.15417966220E+03  0.79577982768E+02 0.  0.
          5    1    5    5  501    0 -0.17674299515E+02 -0.48686576910E+02 -0.26258767243E+03  0.26768851180E+03  0.47000000000E+01 0. -1.
        -13    1    6    6    0    0  0.18857867972E+02 -0.24328654332E+02 -0.12489261502E+02  0.33218733554E+02  0.00000000000E+00 0.  1.
         14    1    6    6    0    0  0.32547746455E+02  0.45311686596E+02 -0.10732679776E+03  0.12096092865E+03  0.00000000000E+00 0. -1.
         -5    1    3    3    0  503 -0.65253835850E+02  0.10274106144E+02 -0.59290769758E+02  0.88888164166E+02  0.47000000000E+01 0.  1.
         11    1    4    4    0    0  0.48592768469E+01 -0.10903897661E+02  0.46304127471E+02  0.47818195036E+02  0.00000000000E+00 0. -1.
        -12    1    4    4    0    0  0.26663244091E+02  0.28333336164E+02 -0.21982693791E+02  0.44687194474E+02  0.00000000000E+00 0.  1.
</event>
<event>
12    1  0.1035051E+000  0.2605859E+03  0.7818608E-02  0.1106985E+00
         21   -1    0    0  503  502  0.00000000000E+00  0.00000000000E+00  0.10893784585E+03  0.10893784585E+03  0.00000000000E+00 0. -1.
         21   -1    0    0  501  503 -0.00000000000E+00 -0.00000000000E+00 -0.67640112348E+03  0.67640112348E+03  0.00000000000E+00 0. -1.
          6    2    1    2  501    0  0.16744544063E+03  0.96721361533E+02 -0.17125144237E+03  0.31182055707E+03  0.17467686148E+03 0.  0.
         24    2    3    3    0    0  0.14938876710E+03  0.10285911340E+03 -0.19696313184E+03  0.27946477811E+03  0.80056767053E+02 0.  0.
         -6    2    1    2    0  502 -0.16744544063E+03 -0.96721361533E+02 -0.39621183526E+03  0.47351841226E+03  0.17275089287E+03 0.  0.
        -24    2    5    5    0    0 -0.14506322227E+03  0.15708429576E+01 -0.25167426231E+03  0.29723590844E+03  0.62955896867E+02 0.  0.
          5    1    3    3  501    0  0.18056673522E+02 -0.61377518684E+01  0.25711689474E+02  0.32355778963E+02  0.47000000000E+01 0. -1.
        -11    1    4    4    0    0  0.12209558260E+03  0.64005706793E+02 -0.96283689079E+02  0.16815055925E+03  0.00000000000E+00 0.  1.
         12    1    4    4    0    0  0.27293184506E+02  0.38853406608E+02 -0.10067944277E+03  0.11131421886E+03  0.00000000000E+00 0. -1.
         -5    1    5    5    0  502 -0.22382218359E+02 -0.98292204491E+02 -0.14453757295E+03  0.17628250383E+03  0.47000000000E+01 0.  1.
         11    1    6    6    0    0 -0.13785729147E+03 -0.81924096780E+01 -0.19299954401E+03  0.23731955750E+03  0.00000000000E+00 0. -1.
        -12    1    6    6    0    0 -0.72059308016E+01  0.97632526356E+01 -0.58674718305E+02  0.59916350931E+02  0.00000000000E+00 0.  1.
</event>
<event>
12    1  0.1035051E+000  0.2368211E+03  0.7818608E-02  0.1122062E+00
         21   -1    0    0  501  502  0.00000000000E+00  0.00000000000E+00  0.21233567077E+04  0.21233567077E+04  0.00000000000E+00 0.  1.
         21   -1    0    0  502  503 -0.00000000000E+00 -0.00000000000E+00 -0.26869657199E+02  0.26869657199E+02  0.00000000000E+00 0.  1.
         -6    2    1    2    0  503  0.14646198337E+03  0.68445961036E+02  0.11995413075E+04  0.12225432750E+04  0.17197891976E+03 0.  0.
        -24    2    3    3    0    0  0.71256384665E+02  0.21030339546E+02  0.96665282363E+03  0.97321766635E+03  0.84942316490E+02 0.  0.
          6    2    1    2  501    0 -0.14646198337E+03 -0.68445961036E+02  0.89694574306E+03  0.92768308989E+03  0.17305573417E+03 0.  0.
         24    2    5    5    0    0 -0.10116527640E+02 -0.85481723329E+01  0.41439533636E+03  0.42265357255E+03  0.82080035367E+02 0.  0.
          5    1    5    5  501    0 -0.13634545573E+03 -0.59897788703E+02  0.48255040669E+03  0.50502951735E+03  0.47000000000E+01 0. -1.
        -11    1    6    6    0    0 -0.99903106088E+01  0.24473656711E+02  0.48203582114E+02  0.54975917523E+02  0.00000000000E+00 0.  1.
         12    1    6    6    0    0 -0.12621703096E+00 -0.33021829044E+02  0.36619175425E+03  0.36767765503E+03  0.00000000000E+00 0. -1.
         -5    1    3    3    0  503  0.75205598706E+02  0.47415621490E+02  0.23288848384E+03  0.24932560868E+03  0.47000000000E+01 0.  1.
         13    1    4    4    0    0  0.73252733324E+02  0.28184538524E+02  0.46993900255E+03  0.47644831542E+03  0.00000000000E+00 0. -1.
        -14    1    4    4    0    0 -0.19963486592E+01 -0.71541989778E+01  0.49671382107E+03  0.49676935092E+03  0.00000000000E+00 0.  1.
</event>
<event>
12    1  0.1035051E+000  0.2483724E+03  0.7818608E-02  0.1115306E+00
         21   -1    0    0  503  502  0.00000000000E+00  0.00000000000E+00  0.10192406658E+04  0.10192406658E+04  0.00000000000E+00 0.  1.
         21   -1    0    0  501  503 -0.00000000000E+00 -0.00000000000E+00 -0.71885549855E+02  0.71885549855E+02  0.00000000000E+00 0.  1.
          6    2    1    2  501    0  0.10389586083E+03  0.13413934141E+03  0.24811356954E+03  0.35106862609E+03  0.18138666991E+03 0.  0.
         24    2    3    3    0    0  0.10527389124E+03  0.15610955921E+03  0.25494945530E+03  0.32754398428E+03  0.82662266041E+02 0.  0.
         -6    2    1    2    0  502 -0.10389586083E+03 -0.13413934141E+03  0.69924154639E+03  0.74005758955E+03  0.17308605619E+03 0.  0.
        -24    2    5    5    0    0 -0.92620970740E+02 -0.27288849341E+02  0.27082670413E+03  0.29835008693E+03  0.79638842191E+02 0.  0.
          5    1    3    3  501    0 -0.13780304067E+01 -0.21970217804E+02 -0.68358857569E+01  0.23524641809E+02  0.47000000000E+01 0. -1.
        -13    1    4    4    0    0  0.40177163898E+02  0.17018205546E+02  0.10134293156E+03  0.11033681886E+03  0.00000000000E+00 0.  1.
         14    1    4    4    0    0  0.65096727340E+02  0.13909135366E+03  0.15360652374E+03  0.21720716542E+03  0.00000000000E+00 0. -1.
         -5    1    5    5    0  502 -0.11274890091E+02 -0.10685049206E+03  0.42841484226E+03  0.44170750262E+03  0.47000000000E+01 0.  1.
         13    1    6    6    0    0 -0.51223027517E+02 -0.53226425381E+02  0.13323401727E+03  0.15234222745E+03  0.00000000000E+00 0. -1.
        -14    1    6    6    0    0 -0.41397943222E+02  0.25937576040E+02  0.13759268686E+03  0.14600785949E+03  0.00000000000E+00 0.  1.
</event>
<event>
12    1  0.1035051E+000  0.1821473E+03  0.7818608E-02  0.1165908E+00
         21   -1    0    0  501  502  0.00000000000E+00  0.00000000000E+00  0.53440745129E+02  0.53440745129E+02  0.00000000000E+00 0. -1.
         21   -1    0    0  502  503 -0.00000000000E+00 -0.00000000000E+00 -0.99262671625E+03  0.99262671625E+03  0.00000000000E+00 0. -1.
         -6    2    1    2    0  503  0.51268767537E+02 -0.27299299904E+02 -0.14790027058E+03  0.23408797819E+03  0.17189808956E+03 0.  0.
        -24    2    3    3    0    0  0.36977078347E+01 -0.15425442816E+02 -0.16265390206E+03  0.18267053129E+03  0.81612583693E+02 0.  0.
          6    2    1    2  501    0 -0.51268767537E+02  0.27299299904E+02 -0.79128570054E+03  0.81197948319E+03  0.17263801131E+03 0.  0.
         24    2    5    5    0    0 -0.49382194939E+02 -0.17017027130E+02 -0.31419057699E+03  0.33280379212E+03  0.96511475963E+02 0.  0.
          5    1    5    5  501    0 -0.18865725978E+01  0.44316327034E+02 -0.47709512355E+03  0.47917569107E+03  0.47000000000E+01 0. -1.
        -11    1    6    6    0    0 -0.19136887146E+02  0.39825400985E+02 -0.15226116719E+03  0.15854256857E+03  0.00000000000E+00 0.  1.
         12    1    6    6    0    0 -0.30245307793E+02 -0.56842428115E+02 -0.16192940980E+03  0.17426122356E+03  0.00000000000E+00 0. -1.
         -5    1    3    3    0  503  0.47571059702E+02 -0.11873857088E+02  0.14753631481E+02  0.51417446895E+02  0.47000000000E+01 0.  1.
         11    1    4    4    0    0 -0.37379607416E+02 -0.48247237216E+01 -0.52483740639E+02  0.64614673574E+02  0.00000000000E+00 0. -1.
        -12    1    4    4    0    0  0.41077315251E+02 -0.10600719095E+02 -0.11017016142E+03  0.11805585772E+03  0.00000000000E+00 0.  1.
</event>
<event>
12    1  0.1035051E+000  0.1762607E+03  0.7818608E-02  0.1171685E+00
         21   -1    0    0  501  502  0.00000000000E+00  0.00000000000E+00  0.83969845408E+02  0.83969845408E+02  0.00000000000E+00 0. -1.
         21   -1    0    0  502  503 -0.00000000000E+00 -0.00000000000E+00 -0.40945037872E+03  0.40945037872E+03  0.00000000000E+00 0. -1.
         -6    2    1    2    0  503  0.12004124432E+00  0.42118981442E+02 -0.84076037267E+02  0.19451561152E+03  0.17027483688E+03 0.  0.
        -24    2    3    3    0    0 -0.40617552822E+02  0.42000349872E+02  0.28353125164E+01  0.98415463941E+02  0.79143853577E+02 0.  0.
          6    2    1    2  501    0 -0.12004124432E+00 -0.42118981442E+02 -0.24140449604E+03  0.29890461261E+03  0.17115435641E+03 0.  0.
         24    2    5    5    0    0  0.35419372251E+02 -0.69290019292E+02 -0.22482341948E+03  0.25096363525E+03  0.79884526473E+02 0.  0.
          5    1    5    5  501    0 -0.35539413495E+02  0.27171037850E+02 -0.16581076565E+02  0.47940977352E+02  0.47000000000E+01 0. -1.
        -13    1    6    6    0    0  0.21761451943E+01 -0.71244028676E+02 -0.18928989028E+03  0.20226494949E+03  0.00000000000E+00 0.  1.
         14    1    6    6    0    0  0.33243227057E+02  0.19540093839E+01 -0.35533529196E+02  0.48698685762E+02  0.00000000000E+00 0. -1.
         -5    1    3    3    0  503  0.40737594066E+02  0.11863156996E+00 -0.86911349783E+02  0.96100147580E+02  0.47000000000E+01 0.  1.
         11    1    4    4    0    0  0.70219237088E+01 -0.15104952436E+02 -0.14465849205E+02  0.22061908210E+02  0.00000000000E+00 0. -1.
        -12    1    4    4    0    0 -0.47639476531E+02  0.57105302308E+02  0.17301161721E+02  0.76353555731E+02  0.00000000000E+00 0.  1.
</event>
<event>
12    1  0.1035051E+000  0.4188540E+03  0.7818608E-02  0.1037481E+00
         21   -1    0    0  501  502  0.00000000000E+00  0.00000000000E+00  0.90794024365E+03  0.90794024365E+03  0.00000000000E+00 0. -1.
         21   -1    0    0  502  503 -0.00000000000E+00 -0.00000000000E+00 -0.38732398089E+03  0.38732398089E+03  0.00000000000E+00 0. -1.
         -6    2    1    2    0  503  0.33044373383E+03  0.19079723766E+03  0.71896138534E+03  0.83182119007E+03  0.17153533608E+03 0.  0.
        -24    2    3    3    0    0  0.31526099031E+03  0.17076368951E+03  0.55282916435E+03  0.66373233380E+03  0.79817268256E+02 0.  0.
          6    2    1    2  501    0 -0.33044373383E+03 -0.19079723766E+03 -0.19834512258E+03  0.46344303447E+03  0.17274840498E+03 0.  0.
         24    2    5    5    0    0 -0.24682160658E+03 -0.11202459183E+03 -0.70620875762E+02  0.29159029774E+03  0.81038132954E+02 0.  0.
          5    1    5    5  501    0 -0.83622127244E+02 -0.78772645829E+02 -0.12772424682E+03  0.17185273673E+03  0.47000000000E+01 0. -1.
        -13    1    6    6    0    0 -0.90107769379E+02 -0.39206641556E+02  0.13858913558E+02  0.99240316049E+02  0.00000000000E+00 0.  1.
         14    1    6    6    0    0 -0.15671383720E+03 -0.72817950273E+02 -0.84479789321E+02  0.19234998169E+03  0.00000000000E+00 0. -1.
         -5    1    3    3    0  503  0.15182743518E+02  0.20033548145E+02  0.16613222099E+03  0.16808885627E+03  0.47000000000E+01 0.  1.
         11    1    4    4    0    0  0.54075935271E+02  0.63710431312E+02  0.10248126381E+03  0.13223326082E+03  0.00000000000E+00 0. -1.
        -12    1    4    4    0    0  0.26118505504E+03  0.10705325820E+03  0.45034790054E+03  0.53149907299E+03  0.00000000000E+00 0.  1.
</event>
<event>
12    1  0.1035051E+000  0.3044193E+03  0.7818608E-02  0.1083072E+00
         21   -1    0    0  501  502  0.00000000000E+00  0.00000000000E+00  0.14810255413E+04  0.14810255413E+04  0.00000000000E+00 0.  1.
         21   -1    0    0  502  503 -0.00000000000E+00 -0.00000000000E+00 -0.76274551644E+02  0.76274551644E+02  0.00000000000E+00 0.  1.
         -6    2    1    2    0  503  0.89020003566E+02  0.23462536458E+03  0.10326561675E+04  0.10765447687E+04  0.17203562451E+03 0.  0.
        -24    2    3    3    0    0 -0.12172477314E+02  0.14953415785E+03  0.52967953224E+03  0.55646014364E+03  0.81110116659E+02 0.  0.
          6    2    1    2  501    0 -0.89020003566E+02 -0.23462536458E+03  0.37209482219E+03  0.48075532423E+03  0.17232963278E+03 0.  0.
         24    2    5    5    0    0 -0.82256768677E+02 -0.12958523463E+03  0.31863772361E+03  0.36260744386E+03  0.79972810439E+02 0.  0.
          5    1    5    5  501    0 -0.67632348897E+01 -0.10504012995E+03  0.53457098578E+02  0.11814788037E+03  0.47000000000E+01 0. -1.
        -13    1    6    6    0    0 -0.26622897973E+02 -0.28384350561E+02  0.16990098857E+03  0.17430087771E+03  0.00000000000E+00 0.  1.
         14    1    6    6    0    0 -0.55633870704E+02 -0.10120088407E+03  0.14873673504E+03  0.18830656615E+03  0.00000000000E+00 0. -1.
         -5    1    3    3    0  503  0.10119248088E+03  0.85091206732E+02  0.50297663525E+03  0.52008462510E+03  0.47000000000E+01 0.  1.
         11    1    4    4    0    0  0.42675852901E+01 -0.71006869778E+01  0.79680119897E+01  0.11494401021E+02  0.00000000000E+00 0. -1.
        -12    1    4    4    0    0 -0.16440062604E+02  0.15663484483E+03  0.52171152025E+03  0.54496574262E+03  0.00000000000E+00 0.  1.
</event>
<event>
12    1  0.1035051E+000  0.2102966E+03  0.7818608E-02  0.1141655E+00
         21   -1    0    0  501  502  0.00000000000E+00  0.00000000000E+00  0.99147619755E+03  0.99147619755E+03  0.00000000000E+00 0.  1.
         21   -1    0    0  502  503 -0.00000000000E+00 -0.00000000000E+00 -0.45591312909E+02  0.45591312909E+02  0.00000000000E+00 0.  1.
         -6    2    1    2    0  503  0.70499330064E+02 -0.97028215749E+02  0.38252177236E+03  0.43573344720E+03  0.17075157538E+03 0.  0.
        -24    2    3    3    0    0  0.77037696093E+02 -0.34744708470E+02  0.12596107532E+03  0.17159812814E+03  0.80235426724E+02 0.  0.
          6    2    1    2  501    0 -0.70499330064E+02  0.97028215749E+02  0.56336311228E+03  0.60133406325E+03  0.17274266745E+03 0.  0.
         24    2    5    5    0    0 -0.19656334035E+02  0.12108332980E+03  0.46831506612E+03  0.49079049792E+03  0.80676932695E+02 0.  0.
          5    1    5    5  501    0 -0.50842996030E+02 -0.24055114052E+02  0.95048046160E+02  0.11054356533E+03  0.47000000000E+01 0. -1.
        -11    1    6    6    0    0 -0.89535904933E+01  0.12829808246E+02  0.75743159449E+01  0.17382204244E+02  0.00000000000E+00 0.  1.
         12    1    6    6    0    0 -0.10702743541E+02  0.10825352156E+03  0.46074075018E+03  0.47340829368E+03  0.00000000000E+00 0. -1.
         -5    1    3    3    0  503 -0.65383660288E+01 -0.62283507279E+02  0.25656069704E+03  0.26413531906E+03  0.47000000000E+01 0.  1.
         13    1    4    4    0    0  0.58670928896E+02 -0.31023109027E+02  0.13526947461E+03  0.15067362726E+03  0.00000000000E+00 0. -1.
        -14    1    4    4    0    0  0.18366767198E+02 -0.37215994433E+01 -0.93083992940E+01  0.20924500881E+02  0.00000000000E+00 0.  1.
</event>
<event>
12    1  0.1035051E+000  0.2043762E+03  0.7818608E-02  0.1146352E+00
         21   -1    0    0  503  502  0.00000000000E+00  0.00000000000E+00  0.13412445364E+03  0.13412445364E+03  0.00000000000E+00 0.  1.
         21   -1    0    0  501  503 -0.00000000000E+00 -0.00000000000E+00 -0.31203460099E+03  0.31203460099E+03  0.00000000000E+00 0.  1.
          6    2    1    2  501    0 -0.10877681925E+03  0.19223014884E+01 -0.10911779522E+03  0.23168152679E+03  0.17301313526E+03 0.  0.
         24    2    3    3    0    0 -0.25761887895E+02  0.15709275220E+02  0.95581084522E+01  0.86121849734E+02  0.80094690014E+02 0.  0.
         -6    2    1    2    0  502  0.10877681925E+03 -0.19223014884E+01 -0.68792352136E+02  0.21447752784E+03  0.17155795110E+03 0.  0.
        -24    2    5    5    0    0  0.10445615883E+03 -0.56749510907E+02 -0.30620460765E+02  0.14736661747E+03  0.81533497543E+02 0.  0.
          5    1    3    3  501    0 -0.83014931355E+02 -0.13786973731E+02 -0.11867590367E+03  0.14555967706E+03  0.47000000000E+01 0. -1.
        -13    1    4    4    0    0  0.67801352790E+01 -0.18926331442E+02 -0.21432134362E+02  0.29385585574E+02  0.00000000000E+00 0.  1.
         14    1    4    4    0    0 -0.32542023174E+02  0.34635606661E+02  0.30990242814E+02  0.56736264159E+02  0.00000000000E+00 0. -1.
         -5    1    5    5    0  502  0.43206604179E+01  0.54827209418E+02 -0.38171891371E+02  0.67110910364E+02  0.47000000000E+01 0.  1.
         13    1    6    6    0    0  0.10505457329E+03 -0.62287451684E+02 -0.46387550371E+02  0.13064453619E+03  0.00000000000E+00 0. -1.
        -14    1    6    6    0    0 -0.59841445538E+00  0.55379407771E+01  0.15767089606E+02  0.16722081286E+02  0.00000000000E+00 0.  1.
</event>
<event>
12    1  0.1035051E+000  0.1772990E+03  0.7818608E-02  0.1171015E+00
         21   -1    0    0  501  502  0.00000000000E+00  0.00000000000E+00  0.45409517650E+02  0.45409517650E+02  0.00000000000E+00 0. -1.
         21   -1    0    0  502  503 -0.00000000000E+00 -0.00000000000E+00 -0.11443993277E+04  0.11443993277E+04  0.00000000000E+00 0. -1.
         -6    2    1    2    0  503  0.12178455826E+02  0.38868750331E+02 -0.17401997773E+03  0.24843088431E+03  0.17255682278E+03 0.  0.
        -24    2    3    3    0    0  0.26038590179E+01  0.23574347058E+02 -0.19959974385E+03  0.21677640421E+03  0.81175253366E+02 0.  0.
          6    2    1    2  501    0 -0.12178455826E+02 -0.38868750331E+02 -0.92496983234E+03  0.94137796107E+03  0.17018866091E+03 0.  0.
         24    2    5    5    0    0 -0.35707907604E+02 -0.69884779508E+02 -0.84753203027E+03  0.85457742907E+03  0.76374752735E+02 0.  0.
          5    1    5    5  501    0  0.23529451778E+02  0.31016029176E+02 -0.77437802067E+02  0.86800532002E+02  0.47000000000E+01 0. -1.
        -11    1    6    6    0    0 -0.57330327058E+01 -0.44602645209E+02 -0.16798812331E+03  0.17390305689E+03  0.00000000000E+00 0.  1.
         12    1    6    6    0    0 -0.29974874898E+02 -0.25282134299E+02 -0.67954390697E+03  0.68067437217E+03  0.00000000000E+00 0. -1.
         -5    1    3    3    0  503  0.95745968076E+01  0.15294403274E+02  0.25579766114E+02  0.31654480093E+02  0.47000000000E+01 0.  1.
         13    1    4    4    0    0 -0.81325782380E-01 -0.20980881930E+02 -0.14378869477E+03  0.14531136488E+03  0.00000000000E+00 0. -1.
        -14    1    4    4    0    0  0.26851848003E+01  0.44555228987E+02 -0.55811049078E+02  0.71465039332E+02  0.00000000000E+00 0.  1.
</event>
<event>
12    1  0.1035051E+000  0.2030247E+03  0.7818608E-02  0.1147460E+00
         21   -1    0    0  501  502  0.00000000000E+00  0.00000000000E+00  0.18433286172E+03  0.18433286172E+03  0.00000000000E+00 0. -1.
         21   -1    0    0  502  503 -0.00000000000E+00 -0.00000000000E+00 -0.22846383706E+03  0.22846383706E+03  0.00000000000E+00 0. -1.
         -6    2    1    2    0  503 -0.73157690519E+02 -0.76704858095E+02  0.11780118939E+02  0.20336612352E+03  0.17315694053E+03 0.  0.
        -24    2    3    3    0    0 -0.12435554045E+02 -0.10041533597E+03  0.34326591807E+02  0.13423003990E+03  0.81249652333E+02 0.  0.
          6    2    1    2  501    0  0.73157690519E+02  0.76704858095E+02 -0.55911094274E+02  0.20943057526E+03  0.17175398818E+03 0.  0.
         24    2    5    5    0    0  0.63709822132E+02  0.74254140300E+02  0.22401653759E+02  0.13037208591E+03  0.83201129228E+02 0.  0.
          5    1    5    5  501    0  0.94478683876E+01  0.24507177957E+01 -0.78312748033E+02  0.79058489356E+02  0.47000000000E+01 0. -1.
        -13    1    6    6    0    0  0.35071116704E+02 -0.11612499929E+02  0.13841974716E+02  0.39451662139E+02  0.00000000000E+00 0.  1.
         14    1    6    6    0    0  0.28638705427E+02  0.85866640229E+02  0.85596790435E+01  0.90920423768E+02  0.00000000000E+00 0. -1.
         -5    1    3    3    0  503 -0.60722136474E+02  0.23710477874E+02 -0.22546472867E+02  0.69136083616E+02  0.47000000000E+01 0.  1.
         11    1    4    4    0    0 -0.44589823830E+02 -0.54984290284E+02  0.41413066562E+01  0.70913151023E+02  0.00000000000E+00 0. -1.
        -12    1    4    4    0    0  0.32154269784E+02 -0.45431045685E+02  0.30185285150E+02  0.63316888877E+02  0.00000000000E+00 0.  1.
</event>
<event>
12    1  0.1035051E+000  0.2209021E+03  0.7818608E-02  0.1133502E+00
         21   -1    0    0  503  502  0.00000000000E+00  0.00000000000E+00  0.20475671842E+03  0.20475671842E+03  0.00000000000E+00 0.  1.
         21   -1    0    0  501  503 -0.00000000000E+00 -0.00000000000E+00 -0.34434711519E+03  0.34434711519E+03  0.00000000000E+00 0.  1.
          6    2    1    2  501    0 -0.77890605757E+02  0.11270297414E+03  0.83581813627E+02  0.23618560390E+03  0.17328823698E+03 0.  0.
         24    2    3    3    0    0 -0.10937600179E+03  0.73158759140E+02  0.18910854249E+02  0.15396943706E+03  0.77676594500E+02 0.  0.
         -6    2    1    2    0  502  0.77890605757E+02 -0.11270297414E+03 -0.22317221040E+03  0.31291822972E+03  0.17129820825E+03 0.  0.
        -24    2    5    5    0    0  0.20165704910E+02 -0.11605463083E+03 -0.21090508038E+03  0.25362261218E+03  0.77253760325E+02 0.  0.
          5    1    3    3  501    0  0.31485396031E+02  0.39544215001E+02  0.64670959378E+02  0.82216166842E+02  0.47000000000E+01 0. -1.
        -11    1    4    4    0    0 -0.69271999226E+02  0.70643180558E+01  0.30091731362E+02  0.75855301481E+02  0.00000000000E+00 0.  1.
         12    1    4    4    0    0 -0.40104002562E+02  0.66094441085E+02 -0.11180877113E+02  0.78114135576E+02  0.00000000000E+00 0. -1.
         -5    1    5    5    0  502  0.57724900846E+02  0.33516566909E+01 -0.12267130014E+02  0.59295617537E+02  0.47000000000E+01 0.  1.
         13    1    6    6    0    0  0.43926476174E+02 -0.40335891615E+02 -0.70487592160E+02  0.92331035465E+02  0.00000000000E+00 0. -1.
        -14    1    6    6    0    0 -0.23760771264E+02 -0.75718739217E+02 -0.14041748822E+03  0.16129157671E+03  0.00000000000E+00 0.  1.
</event>
<event>
12    1  0.1035051E+000  0.1766954E+03  0.7818608E-02  0.1171137E+00
         21   -1    0    0  501  502  0.00000000000E+00  0.00000000000E+00  0.11530701664E+03  0.11530701664E+03  0.00000000000E+00 0.  1.
         21   -1    0    0  502  503 -0.00000000000E+00 -0.00000000000E+00 -0.36254669879E+03  0.36254669879E+03  0.00000000000E+00 0.  1.
         -6    2    1    2    0  503 -0.26992068127E+02  0.18914123072E+02 -0.24432636223E+03  0.30152387636E+03  0.17359424224E+03 0.  0.
        -24    2    3    3    0    0 -0.41651645922E+01  0.76193323236E+02 -0.21335437853E+03  0.23236226800E+03  0.51471950126E+02 0.  0.
          6    2    1    2  501    0  0.26992068127E+02 -0.18914123072E+02 -0.29133199132E+01  0.17632983908E+03  0.17319760080E+03 0.  0.
         24    2    5    5    0    0 -0.25809650384E+02  0.29854856792E+02 -0.35733059387E+02  0.97173915900E+02  0.81292483485E+02 0.  0.
          5    1    5    5  501    0  0.52801718511E+02 -0.48768979864E+02  0.32819739474E+02  0.79155923176E+02  0.47000000000E+01 0. -1.
        -13    1    6    6    0    0  0.22560776534E+02  0.22025665930E+02 -0.36416397639E+02  0.48169208157E+02  0.00000000000E+00 0.  1.
         14    1    6    6    0    0 -0.48370426918E+02  0.78291908625E+01  0.68333825209E+00  0.49004707743E+02  0.00000000000E+00 0. -1.
         -5    1    3    3    0  503 -0.22826903535E+02 -0.57279200164E+02 -0.30971983701E+02  0.69161608359E+02  0.47000000000E+01 0.  1.
         13    1    4    4    0    0  0.16747104668E+02  0.33067795234E+02 -0.13933131703E+03  0.14417753120E+03  0.00000000000E+00 0. -1.
        -14    1    4    4    0    0 -0.20912269260E+02  0.43125528002E+02 -0.74023061493E+02  0.88184736797E+02  0.00000000000E+00 0.  1.
</event>
<event>
12    1  0.1035051E+000  0.2227817E+03  0.7818608E-02  0.1133157E+00
         21   -1    0    0  503  502  0.00000000000E+00  0.00000000000E+00  0.11777428384E+03  0.11777428384E+03  0.00000000000E+00 0.  1.
         21   -1    0    0  501  503 -0.00000000000E+00 -0.00000000000E+00 -0.45771044817E+03  0.45771044817E+03  0.00000000000E+00 0.  1.
          6    2    1    2  501    0 -0.12911632270E+03 -0.55870957070E+02 -0.26721888325E+03  0.34790462236E+03  0.17273999556E+03 0.  0.
         24    2    3    3    0    0 -0.73109252906E+02 -0.24763420157E+02 -0.50618753490E+02  0.12197946456E+03  0.79740464821E+02 0.  0.
         -6    2    1    2    0  502  0.12911632270E+03  0.55870957070E+02 -0.72717281079E+02  0.22758010964E+03  0.16343902443E+03 0.  0.
        -24    2    5    5    0    0  0.13147878860E+03 -0.16334856823E+01 -0.21964677683E+02  0.15070190121E+03  0.70279981753E+02 0.  0.
          5    1    3    3  501    0 -0.56007069790E+02 -0.31107536913E+02 -0.21660012976E+03  0.22592515781E+03  0.47000000000E+01 0. -1.
        -13    1    4    4    0    0 -0.44741843674E+02  0.22337984667E+02 -0.43979612673E+02  0.66595979347E+02  0.00000000000E+00 0.  1.
         14    1    4    4    0    0 -0.28367409233E+02 -0.47101404825E+02 -0.66391408173E+01  0.55383485208E+02  0.00000000000E+00 0. -1.
         -5    1    5    5    0  502 -0.23624658995E+01  0.57504442753E+02 -0.50752603396E+02  0.76878208439E+02  0.47000000000E+01 0.  1.
         13    1    6    6    0    0  0.12836049415E+03 -0.28205574114E+01  0.94797754208E-01  0.12839151447E+03  0.00000000000E+00 0. -1.
        -14    1    6    6    0    0  0.31182944470E+01  0.11870717291E+01 -0.22059475438E+02  0.22310386732E+02  0.00000000000E+00 0.  1.
</event>
<event>
12    1  0.1035051E+000  0.2496664E+03  0.7818608E-02  0.1113528E+00
         21   -1    0    0  501  502  0.00000000000E+00  0.00000000000E+00  0.11633758636E+03  0.11633758636E+03  0.00000000000E+00 0. -1.
         21   -1    0    0  502  503 -0.00000000000E+00 -0.00000000000E+00 -0.72204662431E+03  0.72204662431E+03  0.00000000000E+00 0. -1.
         -6    2    1    2    0  503  0.16454789042E+03 -0.71280592981E+02 -0.51588456051E+03  0.57312319432E+03  0.17371351392E+03 0.  0.
        -24    2    3    3    0    0  0.88669383115E+02 -0.46403411739E+01 -0.13891423467E+03  0.18283203686E+03  0.79035415089E+02 0.  0.
          6    2    1    2  501    0 -0.16454789042E+03  0.71280592981E+02 -0.89824477437E+02  0.26526101634E+03  0.17360310731E+03 0.  0.
         24    2    5    5    0    0 -0.61895759388E+02  0.90462265880E+02 -0.86486349450E+02  0.16067311227E+03  0.79507570619E+02 0.  0.
          5    1    5    5  501    0 -0.10265213103E+03 -0.19181672899E+02 -0.33381279864E+01  0.10458790407E+03  0.47000000000E+01 0. -1.
        -13    1    6    6    0    0 -0.15324183641E+02 -0.14106998933E+02 -0.15705945831E+02  0.26086677780E+02  0.00000000000E+00 0.  1.
         14    1    6    6    0    0 -0.46571575747E+02  0.10456926481E+03 -0.70780403619E+02  0.13458643449E+03  0.00000000000E+00 0. -1.
         -5    1    3    3    0  503  0.75878507303E+02 -0.66640251807E+02 -0.37697032584E+03  0.39029115747E+03  0.47000000000E+01 0.  1.
         11    1    4    4    0    0  0.18345469799E+02  0.13020008509E+00 -0.10128096127E+03  0.10292913256E+03  0.00000000000E+00 0. -1.
        -12    1    4    4    0    0  0.70323913316E+02 -0.47705412589E+01 -0.37633273405E+02  0.79902904298E+02  0.00000000000E+00 0.  1.
</event>
<event>
12    1  0.1035051E+000  0.6950788E+03  0.7818608E-02  0.9726365E-01
         21   -1    0    0  501  502  0.00000000000E+00  0.00000000000E+00  0.80143719429E+03  0.80143719429E+03  0.00000000000E+00 0.  1.
         21   -1    0    0  502  503 -0.00000000000E+00 -0.00000000000E+00 -0.60875790433E+03  0.60875790433E+03  0.00000000000E+00 0.  1.
         -6    2    1    2    0  503 -0.44830195304E+03 -0.50315604979E+03  0.19090547755E+02  0.69376810583E+03  0.16373479810E+03 0.  0.
        -24    2    3    3    0    0 -0.41559436321E+03 -0.44773511985E+03 -0.23458997805E+02  0.61647761654E+03  0.79428677640E+02 0.  0.
          6    2    1    2  501    0  0.44830195304E+03  0.50315604979E+03  0.17358874220E+03  0.71642699279E+03  0.17027604950E+03 0.  0.
         24    2    5    5    0    0  0.32756372998E+03  0.31039184312E+03  0.58824635654E+02  0.46161598825E+03  0.77381453691E+02 0.  0.
          5    1    5    5  501    0  0.12073822306E+03  0.19276420667E+03  0.11476410654E+03  0.25481100454E+03  0.47000000000E+01 0. -1.
        -13    1    6    6    0    0  0.43136533073E+02  0.75375941351E+02  0.28538900583E+02  0.91415326213E+02  0.00000000000E+00 0.  1.
         14    1    6    6    0    0  0.28442719691E+03  0.23501590177E+03  0.30285735071E+02  0.37020066204E+03  0.00000000000E+00 0. -1.
         -5    1    3    3    0  503 -0.32707589837E+02 -0.55420929937E+02  0.42549545560E+02  0.77290489295E+02  0.47000000000E+01 0.  1.
         11    1    4    4    0    0 -0.28189826309E+03 -0.34492059669E+03 -0.38655315422E+02  0.44713653638E+03  0.00000000000E+00 0. -1.
        -12    1    4    4    0    0 -0.13369610011E+03 -0.10281452316E+03  0.15196317617E+02  0.16934108015E+03  0.00000000000E+00 0.  1.
</event>
<event>
12    1  0.1035051E+000  0.2128361E+03  0.7818608E-02  0.1139419E+00
         21   -1    0    0  503  502  0.00000000000E+00  0.00000000000E+00  0.22419330587E+03  0.22419330587E+03  0.00000000000E+00 0.  1.
         21   -1    0    0  501  503 -0.00000000000E+00 -0.00000000000E+00 -0.21624734017E+03  0.21624734017E+03  0.00000000000E+00 0.  1.
          6    2    1    2  501    0 -0.10572225671E+03  0.66471678916E+02  0.61160284092E+02  0.22144931992E+03  0.17234715338E+03 0.  0.
         24    2    3    3    0    0 -0.57600987386E+02  0.10725875369E+03  0.63263801597E+02  0.15815827145E+03  0.78672843123E+02 0.  0.
         -6    2    1    2    0  502  0.10572225671E+03 -0.66471678916E+02 -0.53214318394E+02  0.21899132613E+03  0.17184224619E+03 0.  0.
        -24    2    5    5    0    0  0.12233743526E+03 -0.61732395363E+02 -0.86536448581E+02  0.18116303873E+03  0.80957723334E+02 0.  0.
          5    1    3    3  501    0 -0.48121269325E+02 -0.40787074773E+02 -0.21035175051E+01  0.63291048466E+02  0.47000000000E+01 0. -1.
        -11    1    4    4    0    0 -0.27282936129E+02  0.93606203386E+02  0.13677478830E+02  0.98455844638E+02  0.00000000000E+00 0.  1.
         12    1    4    4    0    0 -0.30318051257E+02  0.13652550303E+02  0.49586322767E+02  0.59702426813E+02  0.00000000000E+00 0. -1.
         -5    1    5    5    0  502 -0.16615178547E+02 -0.47392835531E+01  0.33322130187E+02  0.37828287391E+02  0.47000000000E+01 0.  1.
         11    1    6    6    0    0  0.74893670890E+02 -0.24190438420E+02 -0.91222350182E+02  0.12048135301E+03  0.00000000000E+00 0. -1.
        -12    1    6    6    0    0  0.47443764368E+02 -0.37541956942E+02  0.46859016009E+01  0.60681685724E+02  0.00000000000E+00 0.  1.
</event>
<event>
12    1  0.1035051E+000  0.1762048E+03  0.7818608E-02  0.1171665E+00
         21   -1    0    0  503  502  0.00000000000E+00  0.00000000000E+00  0.62591591917E+03  0.62591591917E+03  0.00000000000E+00 0.  1.
         21   -1    0    0  501  503 -0.00000000000E+00 -0.00000000000E+00 -0.49629166974E+02  0.49629166974E+02  0.00000000000E+00 0.  1.
          6    2    1    2  501    0 -0.37724955199E+02 -0.85623122505E+01  0.26821494950E+03  0.32091649983E+03  0.17190594897E+03 0.  0.
         24    2    3    3    0    0 -0.57282868866E+02  0.34842338416E+02  0.24802766160E+03  0.26899259128E+03  0.79649090586E+02 0.  0.
         -6    2    1    2    0  502  0.37724955199E+02  0.85623122505E+01  0.30807180269E+03  0.35462858631E+03  0.17133800857E+03 0.  0.
        -24    2    5    5    0    0  0.84543814034E+02  0.13946696984E+02  0.27080666147E+03  0.29436435237E+03  0.77278439463E+02 0.  0.
          5    1    3    3  501    0  0.19557913667E+02 -0.43404650667E+02  0.20187287899E+02  0.51923908551E+02  0.47000000000E+01 0. -1.
        -13    1    4    4    0    0 -0.24403025284E+02  0.55955743075E+02  0.11312781979E+03  0.12854748709E+03  0.00000000000E+00 0.  1.
         14    1    4    4    0    0 -0.32879843582E+02 -0.21113404659E+02  0.13489984181E+03  0.14044510419E+03  0.00000000000E+00 0. -1.
         -5    1    5    5    0  502 -0.46818858834E+02 -0.53843847330E+01  0.37265141226E+02  0.60264233938E+02  0.47000000000E+01 0.  1.
         11    1    6    6    0    0  0.44058158756E+02 -0.11378160602E+02  0.46612248791E+02  0.65140506821E+02  0.00000000000E+00 0. -1.
        -12    1    6    6    0    0  0.40485655278E+02  0.25324857585E+02  0.22419441268E+03  0.22922384555E+03  0.00000000000E+00 0.  1.
</event>
<event>
12    1  0.1035051E+000  0.1799919E+03  0.7818608E-02  0.1167863E+00
         21   -1    0    0  501  502  0.00000000000E+00  0.00000000000E+00  0.64885650316E+03  0.64885650316E+03  0.00000000000E+00 0. -1.
         21   -1    0    0  502  503 -0.00000000000E+00 -0.00000000000E+00 -0.50675251746E+02  0.50675251746E+02  0.00000000000E+00 0. -1.
         -6    2    1    2    0  503  0.35664324303E+02  0.37321089079E+02  0.25482507433E+03  0.31185848709E+03  0.17220653225E+03 0.  0.
        -24    2    3    3    0    0  0.13689235108E+02 -0.13969078255E+02  0.45643886670E+02  0.95311852209E+02  0.81353884209E+02 0.  0.
          6    2    1    2  501    0 -0.35664324303E+02 -0.37321089079E+02  0.34335617709E+03  0.38767326782E+03  0.17243053823E+03 0.  0.
         24    2    5    5    0    0  0.18402184397E+02 -0.68383097775E+02  0.14955408553E+03  0.18403295638E+03  0.80540772810E+02 0.  0.
          5    1    5    5  501    0 -0.54066508700E+02  0.31062008696E+02  0.19380209157E+03  0.20364031144E+03  0.47000000000E+01 0. -1.
        -11    1    6    6    0    0 -0.17668537601E+02  0.76319939071E+01  0.11680396073E+02  0.22513467178E+02  0.00000000000E+00 0.  1.
         12    1    6    6    0    0  0.36070721998E+02 -0.76015091682E+02  0.13787368945E+03  0.16151948920E+03  0.00000000000E+00 0. -1.
         -5    1    3    3    0  503  0.21975089195E+02  0.51290167335E+02  0.20918118765E+03  0.21654663488E+03  0.47000000000E+01 0.  1.
         13    1    4    4    0    0  0.23045431556E+02 -0.44460242903E+02  0.37008843271E+02  0.62269250797E+02  0.00000000000E+00 0. -1.
        -14    1    4    4    0    0 -0.93561964489E+01  0.30491164647E+02  0.86350433987E+01  0.33042601411E+02  0.00000000000E+00 0.  1.
</event>
<event>
12    1  0.1035051E+000  0.3468380E+03  0.7818608E-02  0.1064148E+00
         21   -1    0    0  503  502  0.00000000000E+00  0.00000000000E+00  0.70453569203E+03  0.70453569203E+03  0.00000000000E+00 0. -1.
         21   -1    0    0  501  503 -0.00000000000E+00 -0.00000000000E+00 -0.20392746232E+03  0.20392746232E+03  0.00000000000E+00 0. -1.
          6    2    1    2  501    0 -0.20631434679E+03 -0.21758070659E+03  0.64796302266E+02  0.35283872931E+03  0.17432623023E+03 0.  0.
         24    2    3    3    0    0 -0.12661195550E+03 -0.21476362522E+03  0.23504866265E+02  0.26290831282E+03  0.80089326484E+02 0.  0.
         -6    2    1    2    0  502  0.20631434679E+03  0.21758070659E+03  0.43581192744E+03  0.55562442503E+03  0.16993967171E+03 0.  0.
        -24    2    5    5    0    0  0.96613449122E+02  0.38174485191E+02  0.15380283854E+03  0.20381183935E+03  0.84216998541E+02 0.  0.
          5    1    3    3  501    0 -0.79702391285E+02 -0.28170813652E+01  0.41291436001E+02  0.89930416495E+02  0.47000000000E+01 0. -1.
        -13    1    4    4    0    0 -0.10487666303E+03 -0.10147551247E+03  0.21718800586E+02  0.14754016531E+03  0.00000000000E+00 0.  1.
         14    1    4    4    0    0 -0.21735292468E+02 -0.11328811275E+03  0.17860656791E+01  0.11536814751E+03  0.00000000000E+00 0. -1.
         -5    1    5    5    0  502  0.10970089766E+03  0.17940622140E+03  0.28200908890E+03  0.35181258569E+03  0.47000000000E+01 0.  1.
         13    1    6    6    0    0  0.61750153731E+02  0.32657857335E+02  0.15335136175E+03  0.16851189062E+03  0.00000000000E+00 0. -1.
        -14    1    6    6    0    0  0.34863295391E+02  0.55166278560E+01  0.45147679227E+00  0.35299948721E+02  0.00000000000E+00 0.  1.
</event>
<event>
12    1  0.1035051E+000  0.1775596E+03  0.7818608E-02  0.1171105E+00
         21   -1    0    0  501  502  0.00000000000E+00  0.00000000000E+00  0.13596257910E+03  0.13596257910E+03  0.00000000000E+00 0. -1.
         21   -1    0    0  502  503 -0.00000000000E+00 -0.00000000000E+00 -0.24797774063E+03  0.24797774063E+03  0.00000000000E+00 0. -1.
         -6    2    1    2    0  503  0.36434959771E+02  0.21568170412E+02 -0.83508179494E+00  0.17756151627E+03  0.17243753196E+03 0.  0.
        -24    2    3    3    0    0  0.59076846310E+02  0.29405240423E+02 -0.55659013202E+02  0.11754628364E+03  0.79777572740E+02 0.  0.
          6    2    1    2  501    0 -0.36434959771E+02 -0.21568170412E+02 -0.11118007973E+03  0.20637880346E+03  0.16863720859E+03 0.  0.
         24    2    5    5    0    0  0.10133085743E+02 -0.69127141591E+02 -0.61970045697E+02  0.12346827306E+03  0.80764390403E+02 0.  0.
          5    1    5    5  501    0 -0.46568045514E+02  0.47558971179E+02 -0.49210034032E+02  0.82910530405E+02  0.47000000000E+01 0. -1.
        -13    1    6    6    0    0 -0.27957476558E+02 -0.58007613346E+01 -0.25942004019E+01  0.28670528479E+02  0.00000000000E+00 0.  1.
         14    1    6    6    0    0  0.38090562301E+02 -0.63326380256E+02 -0.59375845295E+02  0.94797744579E+02  0.00000000000E+00 0. -1.
         -5    1    3    3    0  503 -0.22641886539E+02 -0.78370700118E+01  0.54823931407E+02  0.60015232628E+02  0.47000000000E+01 0.  1.
         13    1    4    4    0    0  0.42039754981E+02 -0.14592037737E+02  0.10556177828E+00  0.44500333790E+02  0.00000000000E+00 0. -1.
        -14    1    4    4    0    0  0.17037091329E+02  0.43997278160E+02 -0.55764574980E+02  0.73045949848E+02  0.00000000000E+00 0.  1.
</event>
<event>
12    1  0.1035051E+000  0.4228912E+03  0.7818608E-02  0.1036310E+00
         21   -1    0    0  503  502  0.00000000000E+00  0.00000000000E+00  0.11429401671E+04  0.11429401671E+04  0.00000000000E+00 0. -1.
         21   -1    0    0  501  503 -0.00000000000E+00 -0.00000000000E+00 -0.19621031384E+03  0.19621031384E+03  0.00000000000E+00 0. -1.
          6    2    1    2  501    0 -0.32992248754E+03  0.19543480125E+03  0.77879283633E+03  0.88620272980E+03  0.17830700230E+03 0.  0.
         24    2    3    3    0    0 -0.25321089993E+03  0.21634798749E+03  0.61254300785E+03  0.70185760646E+03  0.80454656419E+02 0.  0.
         -6    2    1    2    0  502  0.32992248754E+03 -0.19543480125E+03  0.16793701697E+03  0.45294775117E+03  0.17296015234E+03 0.  0.
        -24    2    5    5    0    0  0.27623133942E+03 -0.13740574966E+03  0.18783767857E+03  0.37128848013E+03  0.85953761209E+02 0.  0.
          5    1    3    3  501    0 -0.76711587618E+02 -0.20913186242E+02  0.16624982847E+03  0.18434512334E+03  0.47000000000E+01 0. -1.
        -11    1    4    4    0    0 -0.64123495653E+02  0.50635187807E+02  0.23005217468E+03  0.24413059622E+03  0.00000000000E+00 0.  1.
         12    1    4    4    0    0 -0.18908740427E+03  0.16571279968E+03  0.38249083318E+03  0.45772701023E+03  0.00000000000E+00 0. -1.
         -5    1    5    5    0  502  0.53691148121E+02 -0.58029051584E+02 -0.19900661606E+02  0.81659271039E+02  0.47000000000E+01 0.  1.
         13    1    6    6    0    0  0.73254975185E+02 -0.29992284489E+01  0.67796629210E+02  0.99858247997E+02  0.00000000000E+00 0. -1.
        -14    1    6    6    0    0  0.20297636424E+03 -0.13440652121E+03  0.12004104936E+03  0.27143023213E+03  0.00000000000E+00 0.  1.
</event>
<event>
12    1  0.1035051E+000  0.3619508E+03  0.7818608E-02  0.1057830E+00
         21   -1    0    0  503  502  0.00000000000E+00  0.00000000000E+00  0.22143062840E+03  0.22143062840E+03  0.00000000000E+00 0. -1.
         21   -1    0    0  501  503 -0.00000000000E+00 -0.00000000000E+00 -0.61398467689E+03  0.61398467689E+03  0.00000000000E+00 0. -1.
          6    2    1    2  501    0 -0.25160604520E+03 -0.19507890768E+03 -0.27636935847E+03  0.45527416403E+03  0.17185214555E+03 0.  0.
         24    2    3    3    0    0 -0.20814682755E+03 -0.18503322142E+03 -0.28811929657E+03  0.40890854684E+03  0.81431417646E+02 0.  0.
         -6    2    1    2    0  502  0.25160604520E+03  0.19507890768E+03 -0.11618469003E+03  0.38014114126E+03  0.17218310859E+03 0.  0.
        -24    2    5    5    0    0  0.22024256785E+03  0.16617986162E+03 -0.15143289835E+03  0.32461323148E+03  0.79493976189E+02 0.  0.
          5    1    3    3  501    0 -0.43459217651E+02 -0.10045686259E+02  0.11749938103E+02  0.46365617182E+02  0.47000000000E+01 0. -1.
        -13    1    4    4    0    0 -0.16927776882E+03 -0.10676346778E+03 -0.17418070643E+03  0.26531550946E+03  0.00000000000E+00 0.  1.
         14    1    4    4    0    0 -0.38869058725E+02 -0.78269753646E+02 -0.11393859014E+03  0.14359303738E+03  0.00000000000E+00 0. -1.
         -5    1    5    5    0  502  0.31363477348E+02  0.28899046064E+02  0.35248208323E+02  0.55527909781E+02  0.47000000000E+01 0.  1.
         13    1    6    6    0    0  0.26730622368E+02  0.45903401762E+02 -0.40882706858E+01  0.53276283867E+02  0.00000000000E+00 0. -1.
        -14    1    6    6    0    0  0.19351194548E+03  0.12027645986E+03 -0.14734462766E+03  0.27133694761E+03  0.00000000000E+00 0.  1.
</event>
<event>
12    1  0.1035051E+000  0.2252662E+03  0.7818608E-02  0.1130154E+00
         21   -1    0    0  501  502  0.00000000000E+00  0.00000000000E+00  0.27244588031E+03  0.27244588031E+03  0.00000000000E+00 0.  1.
         21   -1    0    0  502  503 -0.00000000000E+00 -0.00000000000E+00 -0.18598492178E+03  0.18598492178E+03  0.00000000000E+00 0.  1.
         -6    2    1    2    0  503 -0.11886386870E+03  0.82475070175E+02  0.53183993810E+02  0.23071994789E+03  0.17167527683E+03 0.  0.
        -24    2    3    3    0    0 -0.11073393370E+03  0.10163548544E+02 -0.10333273513E+02  0.13401635306E+03  0.74083092232E+02 0.  0.
          6    2    1    2  501    0  0.11886386870E+03 -0.82475070175E+02  0.33276964712E+02  0.22771085420E+03  0.17266765841E+03 0.  0.
         24    2    5    5    0    0  0.84779491197E+02 -0.12449155312E+03  0.16538640915E+02  0.17088312231E+03  0.79005100613E+02 0.  0.
          5    1    5    5  501    0  0.34084377500E+02  0.42016482942E+02  0.16738323797E+02  0.56827731891E+02  0.47000000000E+01 0. -1.
        -11    1    6    6    0    0 -0.80254558333E+01 -0.12832100809E+02 -0.16069555559E+02  0.22074903587E+02  0.00000000000E+00 0.  1.
         12    1    6    6    0    0  0.92804947031E+02 -0.11165945231E+03  0.32608196474E+02  0.14880821873E+03  0.00000000000E+00 0. -1.
         -5    1    3    3    0  503 -0.81299349939E+01  0.72311521631E+02  0.63517267322E+02  0.96703594823E+02  0.47000000000E+01 0.  1.
         13    1    4    4    0    0 -0.78508380997E+02  0.41015768706E+02 -0.11917315302E+02  0.89374949362E+02  0.00000000000E+00 0. -1.
        -14    1    4    4    0    0 -0.32225552707E+02 -0.30852220162E+02  0.15840417898E+01  0.44641403703E+02  0.00000000000E+00 0.  1.
</event>
<event>
12    1  0.1035051E+000  0.1891243E+03  0.7818608E-02  0.1159260E+00
         21   -1    0    0  501  502  0.00000000000E+00  0.00000000000E+00  0.10959790225E+03  0.10959790225E+03  0.00000000000E+00 0. -1.
         21   -1    0    0  502  503 -0.00000000000E+00 -0.00000000000E+00 -0.42610037015E+03  0.42610037015E+03  0.00000000000E+00 0. -1.
         -6    2    1    2    0  503  0.50493075745E+02  0.60881666893E+02 -0.28637514040E+02  0.19128022622E+03  0.17179024905E+03 0.  0.
        -24    2    3    3    0    0  0.99340888259E+02  0.53357635321E+02 -0.10458666924E+02  0.13840981558E+03  0.79575398256E+02 0.  0.
          6    2    1    2  501    0 -0.50493075745E+02 -0.60881666893E+02 -0.28786495385E+03  0.34441804619E+03  0.17175980560E+03 0.  0.
         24    2    5    5    0    0 -0.16797201543E+02 -0.49170747439E+02 -0.62102134412E+02  0.11580593318E+03  0.82791489157E+02 0.  0.
          5    1    5    5  501    0 -0.33695874202E+02 -0.11710919455E+02 -0.22576281944E+03  0.22861211301E+03  0.47000000000E+01 0. -1.
        -13    1    6    6    0    0 -0.31358803633E+02  0.12952997359E+02 -0.20767666055E+02  0.39780028397E+02  0.00000000000E+00 0.  1.
         14    1    6    6    0    0  0.14561602090E+02 -0.62123744798E+02 -0.41334468358E+02  0.76025904779E+02  0.00000000000E+00 0. -1.
         -5    1    3    3    0  503 -0.48847812514E+02  0.75240315727E+01 -0.18178847117E+02  0.52870410638E+02  0.47000000000E+01 0.  1.
         11    1    4    4    0    0  0.45009992570E+02  0.21662959961E+02  0.34835261433E+02  0.60898922031E+02  0.00000000000E+00 0. -1.
        -12    1    4    4    0    0  0.54330895689E+02  0.31694675360E+02 -0.45293928357E+02  0.77510893548E+02  0.00000000000E+00 0.  1.
</event>
<event>
12    1  0.1035051E+000  0.2819531E+03  0.7818608E-02  0.1094628E+00
         21   -1    0    0  503  502  0.00000000000E+00  0.00000000000E+00  0.14528952736E+04  0.14528952736E+04  0.00000000000E+00 0.  1.
         21   -1    0    0  501  503 -0.00000000000E+00 -0.00000000000E+00 -0.54783077185E+02  0.54783077185E+02  0.00000000000E+00 0.  1.
          6    2    1    2  501    0  0.20961136820E+03  0.77017368409E+02  0.67242246925E+03  0.72913923568E+03  0.17211463371E+03 0.  0.
         24    2    3    3    0    0  0.56408227170E+02  0.48780621774E+02  0.40036071496E+03  0.41559784378E+03  0.82894080150E+02 0.  0.
         -6    2    1    2    0  502 -0.20961136820E+03 -0.77017368409E+02  0.72568972714E+03  0.77853911508E+03  0.17213068559E+03 0.  0.
        -24    2    5    5    0    0 -0.13224038476E+03 -0.11443733106E+03  0.44006842436E+03  0.48023031319E+03  0.79859335632E+02 0.  0.
          5    1    3    3  501    0  0.15320314103E+03  0.28236746635E+02  0.27206175430E+03  0.31354139190E+03  0.47000000000E+01 0. -1.
        -11    1    4    4    0    0 -0.13875979821E+02  0.36239569503E+02  0.11206334789E+03  0.11859191859E+03  0.00000000000E+00 0.  1.
         12    1    4    4    0    0  0.70284206992E+02  0.12541052271E+02  0.28829736707E+03  0.29700592520E+03  0.00000000000E+00 0. -1.
         -5    1    5    5    0  502 -0.77370983443E+02  0.37419962652E+02  0.28562130278E+03  0.29830880189E+03  0.47000000000E+01 0.  1.
         11    1    6    6    0    0 -0.13151327390E+03 -0.85727312118E+02  0.40811487379E+03  0.43726726777E+03  0.00000000000E+00 0. -1.
        -12    1    6    6    0    0 -0.72711086148E+00 -0.28710018943E+02  0.31953550572E+02  0.42963045424E+02  0.00000000000E+00 0.  1.
</event>
<event>
12    1  0.1050945E+000  0.8572253E+03  0.7818608E-02  0.9480752E-01
         21   -1    0    0  503  502  0.00000000000E+00  0.00000000000E+00  0.48580453803E+03  0.48580453803E+03  0.00000000000E+00 0. -1.
         21   -1    0    0  501  503 -0.00000000000E+00 -0.00000000000E+00 -0.15498685274E+04  0.15498685274E+04  0.00000000000E+00 0. -1.
          6    2    1    2  501    0  0.71023432202E+03 -0.44793648716E+03 -0.37359402187E+03  0.93509768805E+03  0.17249725886E+03 0.  0.
         24    2    3    3    0    0  0.42748764289E+03 -0.34224776389E+03 -0.26979480560E+03  0.61586085107E+03  0.81339621604E+02 0.  0.
         -6    2    1    2    0  502 -0.71023432202E+03  0.44793648716E+03 -0.69046996749E+03  0.11005753774E+04  0.17157358940E+03 0.  0.
        -24    2    5    5    0    0 -0.59456640148E+03  0.30858109618E+03 -0.51591911101E+03  0.84900215874E+03  0.76815608768E+02 0.  0.
          5    1    3    3  501    0  0.28274667913E+03 -0.10568872327E+03 -0.10379921627E+03  0.31923683698E+03  0.47000000000E+01 0. -1.
        -13    1    4    4    0    0  0.49891632988E+02 -0.30325299692E+02 -0.57874870602E+02  0.82208877202E+02  0.00000000000E+00 0.  1.
         14    1    4    4    0    0  0.37759600990E+03 -0.31192246420E+03 -0.21191993500E+03  0.53365197387E+03  0.00000000000E+00 0. -1.
         -5    1    5    5    0  502 -0.11566792054E+03  0.13935539098E+03 -0.17455085647E+03  0.25157321863E+03  0.47000000000E+01 0.  1.
         11    1    6    6    0    0 -0.24739269412E+03  0.16234268391E+03 -0.25654009599E+03  0.39162624143E+03  0.00000000000E+00 0. -1.
        -12    1    6    6    0    0 -0.34717370736E+03  0.14623841227E+03 -0.25937901502E+03  0.45737591731E+03  0.00000000000E+00 0.  1.
</event>
<event>
12    1  0.1035051E+000  0.5708807E+03  0.7818608E-02  0.9967973E-01
         21   -1    0    0  503  502  0.00000000000E+00  0.00000000000E+00  0.17094340459E+04  0.17094340459E+04  0.00000000000E+00 0. -1.
         21   -1    0    0  501  503 -0.00000000000E+00 -0.00000000000E+00 -0.22008876083E+03  0.22008876083E+03  0.00000000000E+00 0.  1.
          6    2    1    2  501    0 -0.45355113143E+03 -0.30076647886E+03  0.10986294133E+04  0.12380998883E+04  0.17244025597E+03 0.  0.
         24    2    3    3    0    0 -0.30376209495E+03 -0.26253913417E+03  0.70667639411E+03  0.81673621565E+03  0.80425820871E+02 0.  0.
         -6    2    1    2    0  502  0.45355113143E+03  0.30076647886E+03  0.39071587171E+03  0.69142291842E+03  0.17099022220E+03 0.  0.
        -24    2    5    5    0    0  0.11376895456E+03  0.60088936577E+02  0.13095762013E+03  0.20063371078E+03  0.80931652084E+02 0.  0.
          5    1    3    3  501    0 -0.14978903648E+03 -0.38227344694E+02  0.39195301921E+03  0.42136367262E+03  0.47000000000E+01 0. -1.
        -11    1    4    4    0    0 -0.32119142051E+02 -0.50470738558E+02  0.64765937202E+02  0.88167802277E+02  0.00000000000E+00 0.  1.
         12    1    4    4    0    0 -0.27164295289E+03 -0.21206839561E+03  0.64191045691E+03  0.72856841337E+03  0.00000000000E+00 0. -1.
         -5    1    5    5    0  502  0.33978217687E+03  0.24067754229E+03  0.25975825158E+03  0.49078920765E+03  0.47000000000E+01 0.  1.
         13    1    6    6    0    0  0.11668905942E+03  0.66996221569E+02  0.13622192554E+03  0.19147125970E+03  0.00000000000E+00 0. -1.
        -14    1    6    6    0    0 -0.29201048571E+01 -0.69072849924E+01 -0.52643054090E+01  0.91624510794E+01  0.00000000000E+00 0.  1.
</event>
<event>
12    1  0.1035051E+000  0.1841351E+03  0.7818608E-02  0.1163983E+00
         21   -1    0    0  501  502  0.00000000000E+00  0.00000000000E+00  0.76347109116E+02  0.76347109116E+02  0.00000000000E+00 0.  1.
         21   -1    0    0  502  503 -0.00000000000E+00 -0.00000000000E+00 -0.58592468965E+03  0.58592468965E+03  0.00000000000E+00 0.  1.
         -6    2    1    2    0  503  0.48436825758E+02 -0.40976830089E+02 -0.90876468678E+02  0.20487003815E+03  0.17230198281E+03 0.  0.
        -24    2    3    3    0    0  0.70865772593E+02  0.27234024480E+02 -0.44214068009E+02  0.11910729581E+03  0.80423965902E+02 0.  0.
          6    2    1    2  501    0 -0.48436825758E+02  0.40976830089E+02 -0.41870111185E+03  0.45740176061E+03  0.17285983585E+03 0.  0.
         24    2    5    5    0    0 -0.72041661766E+02  0.62362483024E+00 -0.14963620270E+03  0.18426519258E+03  0.79826550099E+02 0.  0.
          5    1    5    5  501    0  0.23604836008E+02  0.40353205258E+02 -0.26906490916E+03  0.27313656803E+03  0.47000000000E+01 0. -1.
        -11    1    6    6    0    0  0.10909912614E+02 -0.11073457692E+01 -0.64355200136E+02  0.65282801659E+02  0.00000000000E+00 0.  1.
         12    1    6    6    0    0 -0.82951574380E+02  0.17309705994E+01 -0.85281002559E+02  0.11898239092E+03  0.00000000000E+00 0. -1.
         -5    1    3    3    0  503 -0.22428946835E+02 -0.68210854569E+02 -0.46662400669E+02  0.85762742338E+02  0.47000000000E+01 0.  1.
         13    1    4    4    0    0  0.76052037785E+01  0.32271926845E+02 -0.44687953175E+02  0.55644672214E+02  0.00000000000E+00 0. -1.
        -14    1    4    4    0    0  0.63260568814E+02 -0.50379023654E+01  0.47388516567E+00  0.63462623599E+02  0.00000000000E+00 0.  1.
</event>
<event>
12    1  0.1035051E+000  0.2173981E+03  0.7818608E-02  0.1136663E+00
         21   -1    0    0  501  502  0.00000000000E+00  0.00000000000E+00  0.16064756088E+03  0.16064756088E+03  0.00000000000E+00 0.  1.
         21   -1    0    0  502  503 -0.00000000000E+00 -0.00000000000E+00 -0.51407742593E+03  0.51407742593E+03  0.00000000000E+00 0.  1.
         -6    2    1    2    0  503  0.10578776386E+03  0.36565097524E+01 -0.40123051690E+03  0.45634184030E+03  0.18988819465E+03 0.  0.
        -24    2    3    3    0    0  0.24870808670E+01 -0.28228503782E+02 -0.28404484379E+03  0.29683554833E+03  0.81405377417E+02 0.  0.
          6    2    1    2  501    0 -0.10578776386E+03 -0.36565097524E+01  0.47800651853E+02  0.21838314651E+03  0.18493749029E+03 0.  0.
         24    2    5    5    0    0 -0.31917948582E+02 -0.46603134606E+02  0.80533921156E+02  0.12676044673E+03  0.79949301450E+02 0.  0.
          5    1    5    5  501    0 -0.73869815278E+02  0.42946624853E+02 -0.32733269303E+02  0.91622699779E+02  0.47000000000E+01 0. -1.
        -11    1    6    6    0    0 -0.52885058128E+02 -0.42205057608E+02  0.34420575294E+02  0.75913584189E+02  0.00000000000E+00 0.  1.
         12    1    6    6    0    0  0.20967109546E+02 -0.43980769980E+01  0.46113345861E+02  0.50846862544E+02  0.00000000000E+00 0. -1.
         -5    1    3    3    0  503  0.10330068299E+03  0.31885013534E+02 -0.11718567311E+03  0.15950629197E+03  0.47000000000E+01 0.  1.
         13    1    4    4    0    0 -0.68676718960E+01 -0.30656701276E+02 -0.32849111080E+02  0.45453958564E+02  0.00000000000E+00 0. -1.
        -14    1    4    4    0    0  0.93547527631E+01  0.24281974939E+01 -0.25119573271E+03  0.25138158976E+03  0.00000000000E+00 0.  1.
</event>
<event>
12    1  0.1035051E+000  0.1764954E+03  0.7818608E-02  0.1171498E+00
         21   -1    0    0  503  502  0.00000000000E+00  0.00000000000E+00  0.54400218327E+03  0.54400218327E+03  0.00000000000E+00 0.  1.
         21   -1    0    0  501  503 -0.00000000000E+00 -0.00000000000E+00 -0.65923175693E+02  0.65923175693E+02  0.00000000000E+00 0.  1.
          6    2    1    2  501    0 -0.83643965887E+01 -0.39312761761E+02  0.35110272672E+03  0.39250042587E+03  0.17078642579E+03 0.  0.
         24    2    3    3    0    0 -0.28108674640E+02 -0.55172185705E+02  0.10486479762E+03  0.14491899367E+03  0.78554575175E+02 0.  0.
         -6    2    1    2    0  502  0.83643965887E+01  0.39312761761E+02  0.12697628086E+03  0.21742493309E+03  0.17185799156E+03 0.  0.
        -24    2    5    5    0    0  0.36584153933E+02 -0.45123748285E+01  0.13422766207E+03  0.16458867820E+03  0.87827136350E+02 0.  0.
          5    1    3    3  501    0  0.19744278051E+02  0.15859423944E+02  0.24623792910E+03  0.24758143220E+03  0.47000000000E+01 0. -1.
        -13    1    4    4    0    0  0.82677429057E+01 -0.54290537987E+02  0.90377318552E+02  0.10575385476E+03  0.00000000000E+00 0.  1.
         14    1    4    4    0    0 -0.36376417545E+02 -0.88164771860E+00  0.14487479065E+02  0.39165138909E+02  0.00000000000E+00 0. -1.
         -5    1    5    5    0  502 -0.28219757344E+02  0.43825136590E+02 -0.72513812153E+01  0.52836254894E+02  0.47000000000E+01 0.  1.
         13    1    6    6    0    0  0.20366940815E+02 -0.18907444349E+02 -0.82857480748E+00  0.27802702497E+02  0.00000000000E+00 0. -1.
        -14    1    6    6    0    0  0.16217213118E+02  0.14395069520E+02  0.13505623688E+03  0.13678597570E+03  0.00000000000E+00 0.  1.
</event>
<event>
12    1  0.1035051E+000  0.2625693E+03  0.7818608E-02  0.1106172E+00
         21   -1    0    0  503  502  0.00000000000E+00  0.00000000000E+00  0.18236774546E+03  0.18236774546E+03  0.00000000000E+00 0.  1.
         21   -1    0    0  501  503 -0.00000000000E+00 -0.00000000000E+00 -0.41546417286E+03  0.41546417286E+03  0.00000000000E+00 0. -1.
          6    2    1    2  501    0  0.17562999845E+02  0.19135757124E+03 -0.21334922319E+02  0.26343467985E+03  0.17893147459E+03 0.  0.
         24    2    3    3    0    0  0.52612835049E+02  0.15155547655E+03  0.38936418181E+02  0.18301439525E+03  0.79000324821E+02 0.  0.
         -6    2    1    2    0  502 -0.17562999845E+02 -0.19135757124E+03 -0.21176150508E+03  0.33439723848E+03  0.17335627774E+03 0.  0.
        -24    2    5    5    0    0 -0.74940632657E+02 -0.15504696703E+03 -0.17041887710E+03  0.25476084219E+03  0.78770760002E+02 0.  0.
          5    1    3    3  501    0 -0.35049835204E+02  0.39802094690E+02 -0.60271340500E+02  0.80420284601E+02  0.47000000000E+01 0. -1.
        -13    1    4    4    0    0  0.33456170857E+02  0.92805836625E+01  0.19844886222E+01  0.34776181456E+02  0.00000000000E+00 0.  1.
         14    1    4    4    0    0  0.19156664192E+02  0.14227489289E+03  0.36951929559E+02  0.14823821379E+03  0.00000000000E+00 0. -1.
         -5    1    5    5    0  502  0.57377632813E+02 -0.36310604207E+02 -0.41342627982E+02  0.79636396287E+02  0.47000000000E+01 0.  1.
         13    1    6    6    0    0 -0.29354647363E+02 -0.13147878431E+03 -0.10070717849E+03  0.16819721117E+03  0.00000000000E+00 0. -1.
        -14    1    6    6    0    0 -0.45585985295E+02 -0.23568182723E+02 -0.69711698612E+02  0.86563631021E+02  0.00000000000E+00 0.  1.
</event>
<event>
12    1  0.1035051E+000  0.2001596E+03  0.7818608E-02  0.1149846E+00
         21   -1    0    0  501  502  0.00000000000E+00  0.00000000000E+00  0.26994925597E+03  0.26994925597E+03  0.00000000000E+00 0.  1.
         21   -1    0    0  502  503 -0.00000000000E+00 -0.00000000000E+00 -0.19722419466E+03  0.19722419466E+03  0.00000000000E+00 0.  1.
         -6    2    1    2    0  503  0.76621656884E+02 -0.65536084144E+02 -0.80767146253E+02  0.21584067870E+03  0.17291041044E+03 0.  0.
        -24    2    3    3    0    0  0.10297031447E+03 -0.76263439028E+02 -0.24375007089E+02  0.15250434427E+03  0.79021745474E+02 0.  0.
          6    2    1    2  501    0 -0.76621656884E+02  0.65536084144E+02  0.15349220756E+03  0.25133277192E+03  0.17158801774E+03 0.  0.
         24    2    5    5    0    0 -0.39153011547E+02  0.25344904013E+02  0.17370047662E+03  0.19259867210E+03  0.68898987257E+02 0.  0.
          5    1    5    5  501    0 -0.37468645337E+02  0.40191180131E+02 -0.20208269059E+02  0.58734099824E+02  0.47000000000E+01 0. -1.
        -11    1    6    6    0    0  0.13468573379E+02 -0.12402771529E+02  0.33954315349E+02  0.38576245817E+02  0.00000000000E+00 0.  1.
         12    1    6    6    0    0 -0.52621584926E+02  0.37747675543E+02  0.13974616127E+03  0.15402242628E+03  0.00000000000E+00 0. -1.
         -5    1    3    3    0  503 -0.26348657582E+02  0.10727354884E+02 -0.56392139164E+02  0.63336334427E+02  0.47000000000E+01 0.  1.
         13    1    4    4    0    0  0.22018170095E+02 -0.54671801058E+02 -0.34208487730E+02  0.68147092954E+02  0.00000000000E+00 0. -1.
        -14    1    4    4    0    0  0.80952144371E+02 -0.21591637970E+02  0.98334806407E+01  0.84357251319E+02  0.00000000000E+00 0.  1.
</event>
<event>
12    1  0.1035051E+000  0.2232014E+03  0.7818608E-02  0.1132191E+00
         21   -1    0    0  503  502  0.00000000000E+00  0.00000000000E+00  0.71794478094E+03  0.71794478094E+03  0.00000000000E+00 0.  1.
         21   -1    0    0  501  503 -0.00000000000E+00 -0.00000000000E+00 -0.68565211462E+02  0.68565211462E+02  0.00000000000E+00 0.  1.
          6    2    1    2  501    0  0.12998950183E+03 -0.58790792535E+02  0.34817058648E+03  0.41161573758E+03  0.16688657903E+03 0.  0.
         24    2    3    3    0    0  0.77275654041E+02 -0.10133953440E+03  0.22392606311E+03  0.27002500069E+03  0.80804649131E+02 0.  0.
         -6    2    1    2    0  502 -0.12998950183E+03  0.58790792535E+02  0.30120898300E+03  0.37489425482E+03  0.17165437072E+03 0.  0.
        -24    2    5    5    0    0 -0.75759339508E+02  0.16715696403E+02  0.28210322302E+03  0.30349156381E+03  0.80659834082E+02 0.  0.
          5    1    3    3  501    0  0.52713847791E+02  0.42548741866E+02  0.12424452338E+03  0.14159073689E+03  0.47000000000E+01 0. -1.
        -11    1    4    4    0    0  0.45343311876E+02 -0.52996828126E+02  0.19111027663E+03  0.20343996057E+03  0.00000000000E+00 0.  1.
         12    1    4    4    0    0  0.31932342165E+02 -0.48342706275E+02  0.32815786476E+02  0.66585040123E+02  0.00000000000E+00 0. -1.
         -5    1    5    5    0  502 -0.54230162323E+02  0.42075096133E+02  0.19105759976E+02  0.71402691017E+02  0.47000000000E+01 0.  1.
         11    1    6    6    0    0 -0.52085902289E+02  0.42638669304E+02  0.23678223601E+03  0.24616422288E+03  0.00000000000E+00 0. -1.
        -12    1    6    6    0    0 -0.23673437219E+02 -0.25922972901E+02  0.45320987009E+02  0.57327340923E+02  0.00000000000E+00 0.  1.
</event>
<event>
12    1  0.1035051E+000  0.2193441E+03  0.7818608E-02  0.1134488E+00
         21   -1    0    0  503  502  0.00000000000E+00  0.00000000000E+00  0.11875177836E+03  0.11875177836E+03  0.00000000000E+00 0. -1.
         21   -1    0    0  501  503 -0.00000000000E+00 -0.00000000000E+00 -0.58455392967E+03  0.58455392967E+03  0.00000000000E+00 0. -1.
          6    2    1    2  501    0  0.13204373915E+03  0.34484177982E+02 -0.37244967379E+02  0.22187754860E+03  0.17093200811E+03 0.  0.
         24    2    3    3    0    0  0.10000262496E+03  0.10258631537E+02 -0.88899564269E+02  0.15627421424E+03  0.80079541629E+02 0.  0.
         -6    2    1    2    0  502 -0.13204373915E+03 -0.34484177982E+02 -0.42855718393E+03  0.48142815943E+03  0.17171809810E+03 0.  0.
        -24    2    5    5    0    0 -0.59472518739E-01  0.29032690609E+01 -0.19642950874E+03  0.21175610781E+03  0.79042170916E+02 0.  0.
          5    1    3    3  501    0  0.32041114192E+02  0.24225546445E+02  0.51654596890E+02  0.65603334360E+02  0.47000000000E+01 0. -1.
        -13    1    4    4    0    0  0.68954336817E+02  0.22037259382E+02 -0.13162713219E+02  0.73577159406E+02  0.00000000000E+00 0.  1.
         14    1    4    4    0    0  0.31048288146E+02 -0.11778627846E+02 -0.75736851050E+02  0.82697054831E+02  0.00000000000E+00 0. -1.
         -5    1    5    5    0  502 -0.13198426664E+03 -0.37387447043E+02 -0.23212767519E+03  0.26967205162E+03  0.47000000000E+01 0.  1.
         11    1    6    6    0    0 -0.69295970937E+01  0.28625350596E+01  0.57570329150E+01  0.94528752681E+01  0.00000000000E+00 0. -1.
        -12    1    6    6    0    0  0.68701245750E+01  0.40734001273E-01 -0.20218654165E+03  0.20230323254E+03  0.00000000000E+00 0.  1.
</event>
<event>
12    1  0.1035051E+000  0.1738972E+03  0.7818608E-02  0.1175877E+00
         21   -1    0    0  503  502  0.00000000000E+00  0.00000000000E+00  0.14852336736E+03  0.14852336736E+03  0.00000000000E+00 0.  1.
         21   -1    0    0  501  503 -0.00000000000E+00 -0.00000000000E+00 -0.20688941794E+03  0.20688941794E+03  0.00000000000E+00 0.  1.
          6    2    1    2  501    0 -0.26799196071E+02  0.13811124058E+02  0.14865381057E+02  0.16672503217E+03  0.16330129436E+03 0.  0.
         24    2    3    3    0    0 -0.59863643906E+02 -0.46541675351E+01  0.53158903822E+02  0.11266295128E+03  0.79131247930E+02 0.  0.
         -6    2    1    2    0  502  0.26799196071E+02 -0.13811124058E+02 -0.73231431643E+02  0.18868775313E+03  0.17126377767E+03 0.  0.
        -24    2    5    5    0    0  0.96247357527E+01 -0.66081821383E+02 -0.78960255721E+01  0.10314248340E+03  0.78208580132E+02 0.  0.
          5    1    3    3  501    0  0.33064447835E+02  0.18465291593E+02 -0.38293522765E+02  0.54062080888E+02  0.47000000000E+01 0. -1.
        -11    1    4    4    0    0 -0.92591919317E+01  0.33687157940E+02  0.11732503570E+02  0.36853885620E+02  0.00000000000E+00 0.  1.
         12    1    4    4    0    0 -0.50604451975E+02 -0.38341325475E+02  0.41426400252E+02  0.75809065662E+02  0.00000000000E+00 0. -1.
         -5    1    5    5    0  502  0.17174460319E+02  0.52270697326E+02 -0.65335406071E+02  0.85545269727E+02  0.47000000000E+01 0.  1.
         13    1    6    6    0    0  0.21096771671E+02  0.11715005791E+02 -0.23821027452E+00  0.24132382389E+02  0.00000000000E+00 0. -1.
        -14    1    6    6    0    0 -0.11472035919E+02 -0.77796827174E+02 -0.76578152976E+01  0.79010101010E+02  0.00000000000E+00 0.  1.
</event>
<event>
12    1  0.1035051E+000  0.1851133E+03  0.7818608E-02  0.1163095E+00
         21   -1    0    0  501  502  0.00000000000E+00  0.00000000000E+00  0.34193575119E+03  0.34193575119E+03  0.00000000000E+00 0. -1.
         21   -1    0    0  502  503 -0.00000000000E+00 -0.00000000000E+00 -0.22377056211E+03  0.22377056211E+03  0.00000000000E+00 0. -1.
         -6    2    1    2    0  503  0.65821981010E+02  0.14723662998E+02 -0.15134886944E+03  0.23910963503E+03  0.17238798637E+03 0.  0.
        -24    2    3    3    0    0  0.42894508656E+02  0.62385377400E+02 -0.14978626227E+03  0.18598864342E+03  0.80149715708E+02 0.  0.
          6    2    1    2  501    0 -0.65821981010E+02 -0.14723662998E+02  0.26951405851E+03  0.32659667827E+03  0.17169229187E+03 0.  0.
         24    2    5    5    0    0  0.15414579128E+02 -0.98888989098E+01  0.78172105078E+02  0.11861449925E+03  0.87310491056E+02 0.  0.
          5    1    5    5  501    0 -0.81236560137E+02 -0.48347640882E+01  0.19134195344E+03  0.20798217902E+03  0.47000000000E+01 0. -1.
        -11    1    6    6    0    0 -0.31549190450E+02 -0.16484969582E+02  0.12749246788E+02  0.37810698669E+02  0.00000000000E+00 0.  1.
         12    1    6    6    0    0  0.46963769578E+02  0.65960706724E+01  0.65422858291E+02  0.80803800580E+02  0.00000000000E+00 0. -1.
         -5    1    3    3    0  503  0.22927472354E+02 -0.47661714402E+02 -0.15626071631E+01  0.53120991608E+02  0.47000000000E+01 0.  1.
         11    1    4    4    0    0 -0.13043091612E+02  0.33569524674E+02 -0.98286332897E+02  0.10467682867E+03  0.00000000000E+00 0. -1.
        -12    1    4    4    0    0  0.55937600268E+02  0.28815852726E+02 -0.51499929377E+02  0.81311814750E+02  0.00000000000E+00 0.  1.
</event>
<event>
12    1  0.1035051E+000  0.3641035E+03  0.7818608E-02  0.1056994E+00
         21   -1    0    0  501  502  0.00000000000E+00  0.00000000000E+00  0.33386888224E+03  0.33386888224E+03  0.00000000000E+00 0. -1.
         21   -1    0    0  502  503 -0.00000000000E+00 -0.00000000000E+00 -0.51123611238E+03  0.51123611238E+03  0.00000000000E+00 0. -1.
         -6    2    1    2    0  503 -0.32003045412E+03  0.23411498713E+02  0.11120113316E+03  0.38070602924E+03  0.17205754515E+03 0.  0.
        -24    2    3    3    0    0 -0.77322182664E+02  0.30492163724E+02 -0.50385019394E+01  0.11146416098E+03  0.74097103191E+02 0.  0.
          6    2    1    2  501    0  0.32003045412E+03 -0.23411498713E+02 -0.28856836330E+03  0.46439896538E+03  0.17154331496E+03 0.  0.
         24    2    5    5    0    0  0.20487423446E+03  0.45239354804E+02 -0.21874489749E+03  0.31316635979E+03  0.78764126083E+02 0.  0.
          5    1    5    5  501    0  0.11515621966E+03 -0.68650853517E+02 -0.69823465812E+02  0.15123260559E+03  0.47000000000E+01 0. -1.
        -13    1    6    6    0    0  0.96100736183E+02  0.24186523035E+02 -0.49219003599E+02  0.11064741166E+03  0.00000000000E+00 0.  1.
         14    1    6    6    0    0  0.10877349828E+03  0.21052831768E+02 -0.16952589389E+03  0.20251894813E+03  0.00000000000E+00 0. -1.
         -5    1    3    3    0  503 -0.24270827146E+03 -0.70806650110E+01  0.11623963510E+03  0.26924186825E+03  0.47000000000E+01 0.  1.
         13    1    4    4    0    0 -0.13664706186E+02 -0.20733664770E+02 -0.15217536251E+02  0.29123572231E+02  0.00000000000E+00 0. -1.
        -14    1    4    4    0    0 -0.63657476478E+02  0.51225828494E+02  0.10179034312E+02  0.82340588752E+02  0.00000000000E+00 0.  1.
</event>
<event>
12    1  0.1035051E+000  0.2643091E+03  0.7818608E-02  0.1104787E+00
         21   -1    0    0  503  502  0.00000000000E+00  0.00000000000E+00  0.16945704576E+03  0.16945704576E+03  0.00000000000E+00 0. -1.
         21   -1    0    0  501  503 -0.00000000000E+00 -0.00000000000E+00 -0.41035998771E+03  0.41035998771E+03  0.00000000000E+00 0. -1.
          6    2    1    2  501    0 -0.11098281379E+03 -0.16637345717E+03 -0.12833170412E+03  0.29381679875E+03  0.17280617101E+03 0.  0.
         24    2    3    3    0    0 -0.72094401009E+02 -0.10286167449E+03 -0.43793193583E+01  0.14913667269E+03  0.80277281770E+02 0.  0.
         -6    2    1    2    0  502  0.11098281379E+03  0.16637345717E+03 -0.11257123782E+03  0.28600023472E+03  0.17066498899E+03 0.  0.
        -24    2    5    5    0    0  0.12072010466E+03  0.80921953574E+02 -0.11346922896E+03  0.19986272438E+03  0.77124162447E+02 0.  0.
          5    1    3    3  501    0 -0.38888412781E+02 -0.63511782679E+02 -0.12395238477E+03  0.14468012606E+03  0.47000000000E+01 0. -1.
        -11    1    4    4    0    0 -0.71690262045E+01 -0.12386934903E+02 -0.31433002872E+02  0.34537874320E+02  0.00000000000E+00 0.  1.
         12    1    4    4    0    0 -0.64925374804E+02 -0.90474739589E+02  0.27053683514E+02  0.11459879837E+03  0.00000000000E+00 0. -1.
         -5    1    5    5    0  502 -0.97372908728E+01  0.85451503597E+02  0.89799114054E+00  0.86137510346E+02  0.47000000000E+01 0.  1.
         11    1    6    6    0    0  0.96108931492E+02  0.25008801459E+02 -0.47942599925E+02  0.11027628825E+03  0.00000000000E+00 0. -1.
        -12    1    6    6    0    0  0.24611173170E+02  0.55913152115E+02 -0.65526629038E+02  0.89586436124E+02  0.00000000000E+00 0.  1.
</event>
<event>
12    1  0.1035051E+000  0.2630550E+03  0.7818608E-02  0.1105405E+00
         21   -1    0    0  503  502  0.00000000000E+00  0.00000000000E+00  0.10742838675E+03  0.10742838675E+03  0.00000000000E+00 0.  1.
         21   -1    0    0  501  503 -0.00000000000E+00 -0.00000000000E+00 -0.73547692969E+03  0.73547692969E+03  0.00000000000E+00 0.  1.
          6    2    1    2  501    0  0.19184715045E+03 -0.52950602257E+02 -0.16466825456E+03  0.31034426693E+03  0.17201405333E+03 0.  0.
         24    2    3    3    0    0  0.19893507620E+03 -0.44814270096E+02 -0.93310039667E+02  0.23802190922E+03  0.79775826037E+02 0.  0.
         -6    2    1    2    0  502 -0.19184715045E+03  0.52950602257E+02 -0.46338028838E+03  0.53256104950E+03  0.17114579859E+03 0.  0.
        -24    2    5    5    0    0 -0.10472095730E+03 -0.37659683079E+02 -0.23131322677E+03  0.26859436899E+03  0.79072090802E+02 0.  0.
          5    1    3    3  501    0 -0.70879257501E+01 -0.81363321614E+01 -0.71358214890E+02  0.72322357710E+02  0.47000000000E+01 0. -1.
        -11    1    4    4    0    0  0.11280716824E+03 -0.63725093621E+02 -0.67781639791E+02  0.14622139193E+03  0.00000000000E+00 0.  1.
         12    1    4    4    0    0  0.86127907959E+02  0.18910823525E+02 -0.25528399875E+02  0.91800517297E+02  0.00000000000E+00 0. -1.
         -5    1    5    5    0  502 -0.87126193154E+02  0.90610285337E+02 -0.23206706160E+03  0.26396668052E+03  0.47000000000E+01 0.  1.
         11    1    6    6    0    0 -0.36877840407E+02  0.15470801933E+02 -0.31219989236E+02  0.50734687872E+02  0.00000000000E+00 0. -1.
        -12    1    6    6    0    0 -0.67843116891E+02 -0.53130485013E+02 -0.20009323754E+03  0.21785968112E+03  0.00000000000E+00 0.  1.
</event>
<event>
12    1  0.1035051E+000  0.2734835E+03  0.7818608E-02  0.1099496E+00
         21   -1    0    0  503  502  0.00000000000E+00  0.00000000000E+00  0.12466153249E+04  0.12466153249E+04  0.00000000000E+00 0.  1.
         21   -1    0    0  501  503 -0.00000000000E+00 -0.00000000000E+00 -0.77475292401E+02  0.77475292401E+02  0.00000000000E+00 0.  1.
          6    2    1    2  501    0  0.15793611761E+03  0.14297057510E+03  0.26629228829E+03  0.38073104234E+03  0.16929306308E+03 0.  0.
         24    2    3    3    0    0  0.11060823980E+03  0.35854114788E+02  0.20248784315E+03  0.24728831564E+03  0.81427785011E+02 0.  0.
         -6    2    1    2    0  502 -0.15793611761E+03 -0.14297057510E+03  0.90284774418E+03  0.94335957493E+03  0.17149004593E+03 0.  0.
        -24    2    5    5    0    0 -0.12163935883E+03 -0.96495449413E+02  0.83538914297E+03  0.85363697531E+03  0.81936317013E+02 0.  0.
          5    1    3    3  501    0  0.47327877813E+02  0.10711646031E+03  0.63804445140E+02  0.13344272670E+03  0.47000000000E+01 0. -1.
        -13    1    4    4    0    0  0.20226972370E+02 -0.18436711042E+02  0.85628224977E+02  0.89895693101E+02  0.00000000000E+00 0.  1.
         14    1    4    4    0    0  0.90381267429E+02  0.54290825830E+02  0.11685961817E+03  0.15739262254E+03  0.00000000000E+00 0. -1.
         -5    1    5    5    0  502 -0.36296758781E+02 -0.46475125690E+02  0.67458601207E+02  0.89722599621E+02  0.47000000000E+01 0.  1.
         11    1    6    6    0    0 -0.77824662309E+02 -0.10619456474E+02  0.34009809759E+03  0.34905037875E+03  0.00000000000E+00 0. -1.
        -12    1    6    6    0    0 -0.43814696522E+02 -0.85875992938E+02  0.49529104538E+03  0.50458659656E+03  0.00000000000E+00 0.  1.
</event>
<event>
12    1  0.1035051E+000  0.3304418E+03  0.7818608E-02  0.1071130E+00
         21   -1    0    0  501  502  0.00000000000E+00  0.00000000000E+00  0.20567295834E+03  0.20567295834E+03  0.00000000000E+00 0. -1.
         21   -1    0    0  502  503 -0.00000000000E+00 -0.00000000000E+00 -0.75383183568E+03  0.75383183568E+03  0.00000000000E+00 0. -1.
         -6    2    1    2    0  503  0.27600260051E+03  0.36030582369E+02 -0.11095986587E+02  0.32892704252E+03  0.17491209229E+03 0.  0.
        -24    2    3    3    0    0  0.11594414527E+03  0.42040830125E+02 -0.60195357923E+02  0.16133327641E+03  0.84820214238E+02 0.  0.
          6    2    1    2  501    0 -0.27600260051E+03 -0.36030582369E+02 -0.53706289076E+03  0.63057775150E+03  0.17809018418E+03 0.  0.
         24    2    5    5    0    0 -0.13108346925E+03 -0.48611872627E+02 -0.39814603813E+03  0.42938176393E+03  0.79387917492E+02 0.  0.
          5    1    5    5  501    0 -0.14491913126E+03  0.12581290257E+02 -0.13891685263E+03  0.20119598757E+03  0.47000000000E+01 0. -1.
        -13    1    6    6    0    0 -0.33017337779E+02  0.14213165622E+02 -0.16371546428E+03  0.16761536897E+03  0.00000000000E+00 0.  1.
         14    1    6    6    0    0 -0.98066131468E+02 -0.62825038249E+02 -0.23443057385E+03  0.26176639496E+03  0.00000000000E+00 0. -1.
         -5    1    3    3    0  503  0.16005845524E+03 -0.60102477556E+01  0.49099371336E+02  0.16759376611E+03  0.47000000000E+01 0.  1.
         11    1    4    4    0    0  0.16806566518E+00 -0.71561478369E+01  0.13687271663E+02  0.15446038441E+02  0.00000000000E+00 0. -1.
        -12    1    4    4    0    0  0.11577607960E+03  0.49196977962E+02 -0.73882629587E+02  0.14588723797E+03  0.00000000000E+00 0.  1.
</event>
<event>
12    1  0.1035051E+000  0.1938722E+03  0.7818608E-02  0.1155086E+00
         21   -1    0    0  501  502  0.00000000000E+00  0.00000000000E+00  0.79383599557E+02  0.79383599557E+02  0.00000000000E+00 0.  1.
         21   -1    0    0  502  503 -0.00000000000E+00 -0.00000000000E+00 -0.10199099454E+04  0.10199099454E+04  0.00000000000E+00 0.  1.
         -6    2    1    2    0  503 -0.13761935298E+02  0.88647331403E+02 -0.87269101347E+03  0.89389619551E+03  0.17150237059E+03 0.  0.
        -24    2    3    3    0    0  0.17242971608E+02  0.44978660172E+02 -0.78858943542E+03  0.79407925040E+03  0.79800741358E+02 0.  0.
          6    2    1    2  501    0  0.13761935298E+02 -0.88647331403E+02 -0.67835332406E+02  0.20539734949E+03  0.17186825951E+03 0.  0.
         24    2    5    5    0    0 -0.18104587017E+02 -0.11294977049E+03 -0.18286524622E+02  0.14149697278E+03  0.81250043688E+02 0.  0.
          5    1    5    5  501    0  0.31866522315E+02  0.24302439086E+02 -0.49548807784E+02  0.63900376703E+02  0.47000000000E+01 0. -1.
        -11    1    6    6    0    0 -0.36199424164E+01 -0.47223260380E+02 -0.48440824790E+02  0.67746983773E+02  0.00000000000E+00 0.  1.
         12    1    6    6    0    0 -0.14484644601E+02 -0.65726510109E+02  0.30154300168E+02  0.73749989010E+02  0.00000000000E+00 0. -1.
         -5    1    3    3    0  503 -0.31004906906E+02  0.43668671231E+02 -0.84101578055E+02  0.99816945108E+02  0.47000000000E+01 0.  1.
         11    1    4    4    0    0 -0.25307653065E+02 -0.67136451701E+01 -0.20748566969E+03  0.20913118721E+03  0.00000000000E+00 0. -1.
        -12    1    4    4    0    0  0.42550624672E+02  0.51692305342E+02 -0.58110376573E+03  0.58494806319E+03  0.00000000000E+00 0.  1.
</event>
<event>
12    1  0.1035051E+000  0.2892865E+03  0.7818608E-02  0.1090870E+00
         21   -1    0    0  503  502  0.00000000000E+00  0.00000000000E+00  0.18788999466E+04  0.18788999466E+04  0.00000000000E+00 0. -1.
         21   -1    0    0  501  503 -0.00000000000E+00 -0.00000000000E+00 -0.47364279649E+02  0.47364279649E+02  0.00000000000E+00 0. -1.
          6    2    1    2  501    0 -0.20273043859E+03 -0.11022609480E+03  0.67181055955E+03  0.73100317244E+03  0.17258849173E+03 0.  0.
         24    2    3    3    0    0 -0.20812962034E+03 -0.13443526777E+03  0.63231148023E+03  0.68412564598E+03  0.82579121868E+02 0.  0.
         -6    2    1    2    0  502  0.20273043859E+03  0.11022609480E+03  0.11597251074E+04  0.11952610538E+04  0.17446271616E+03 0.  0.
        -24    2    5    5    0    0  0.18888433796E+03  0.30585029302E+02  0.82069943813E+03  0.84669985655E+03  0.82099587022E+02 0.  0.
          5    1    3    3  501    0  0.53991817507E+01  0.24209172972E+02  0.39499079324E+02  0.46877526460E+02  0.47000000000E+01 0. -1.
        -13    1    4    4    0    0 -0.15620023514E+03 -0.78294365452E+02  0.51728749159E+03  0.54599896527E+03  0.00000000000E+00 0.  1.
         14    1    4    4    0    0 -0.51929385199E+02 -0.56140902320E+02  0.11502398864E+03  0.13812668070E+03  0.00000000000E+00 0. -1.
         -5    1    5    5    0  502  0.13846100629E+02  0.79641065499E+02  0.33902566927E+03  0.34856119727E+03  0.47000000000E+01 0.  1.
         11    1    6    6    0    0  0.15152417296E+02 -0.47751710021E+01  0.21499046619E+03  0.21557666516E+03  0.00000000000E+00 0. -1.
        -12    1    6    6    0    0  0.17373192066E+03  0.35360200304E+02  0.60570897194E+03  0.63112319139E+03  0.00000000000E+00 0.  1.
</event>
<event>
12    1  0.1035051E+000  0.2009611E+03  0.7818608E-02  0.1149508E+00
         21   -1    0    0  501  502  0.00000000000E+00  0.00000000000E+00  0.12136401497E+04  0.12136401497E+04  0.00000000000E+00 0.  1.
         21   -1    0    0  502  503 -0.00000000000E+00 -0.00000000000E+00 -0.34858549277E+02  0.34858549277E+02  0.00000000000E+00 0.  1.
         -6    2    1    2    0  503  0.83292570085E+02  0.47598801822E+02  0.73637154005E+03  0.76258508689E+03  0.17346374716E+03 0.  0.
        -24    2    3    3    0    0  0.45649684539E+02  0.55816736982E+02  0.70344222135E+03  0.71168369869E+03  0.80394815583E+02 0.  0.
          6    2    1    2  501    0 -0.83292570085E+02 -0.47598801822E+02  0.44241006040E+03  0.48591361212E+03  0.17658448044E+03 0.  0.
         24    2    5    5    0    0 -0.39357198966E+02 -0.35258026957E+01  0.80159920666E+02  0.11832688790E+03  0.77551396654E+02 0.  0.
          5    1    5    5  501    0 -0.43935371119E+02 -0.44072999126E+02  0.36225013974E+03  0.36758672423E+03  0.47000000000E+01 0. -1.
        -11    1    6    6    0    0 -0.10204984443E+02  0.30595803625E+02  0.78051960944E+01  0.33183821254E+02  0.00000000000E+00 0.  1.
         12    1    6    6    0    0 -0.29152214523E+02 -0.34121606321E+02  0.72354724571E+02  0.85143066642E+02  0.00000000000E+00 0. -1.
         -5    1    3    3    0  503  0.37642885546E+02 -0.82179351598E+01  0.32929318698E+02  0.50901388197E+02  0.47000000000E+01 0.  1.
         13    1    4    4    0    0  0.10679716238E+02  0.69132300400E+02  0.49344462985E+03  0.49837830413E+03  0.00000000000E+00 0. -1.
        -14    1    4    4    0    0  0.34969968302E+02 -0.13315563418E+02  0.20999759150E+03  0.21330539456E+03  0.00000000000E+00 0.  1.
</event>
<event>
12    1  0.1035051E+000  0.3931676E+03  0.7818608E-02  0.1046203E+00
         21   -1    0    0  503  502  0.00000000000E+00  0.00000000000E+00  0.37619268606E+03  0.37619268606E+03  0.00000000000E+00 0.  1.
         21   -1    0    0  501  503 -0.00000000000E+00 -0.00000000000E+00 -0.41300890305E+03  0.41300890305E+03  0.00000000000E+00 0.  1.
          6    2    1    2  501    0 -0.27796233868E+03 -0.21948333735E+03 -0.48914616904E+02  0.39619867235E+03  0.17071833857E+03 0.  0.
         24    2    3    3    0    0 -0.24161552669E+03 -0.21082603133E+03  0.47502738716E+01  0.33063915594E+03  0.80461221194E+02 0.  0.
         -6    2    1    2    0  502  0.27796233868E+03  0.21948333735E+03  0.12098399914E+02  0.39300291676E+03  0.16990857602E+03 0.  0.
        -24    2    5    5    0    0  0.15242003011E+03  0.47517596812E+02  0.30763446527E+02  0.17921900454E+03  0.75387494724E+02 0.  0.
          5    1    3    3  501    0 -0.36346811994E+02 -0.86573060204E+01 -0.53664890775E+02  0.65559516407E+02  0.47000000000E+01 0. -1.
        -11    1    4    4    0    0 -0.45419738184E+02 -0.33760154953E+02 -0.30049600548E+02  0.64075573912E+02  0.00000000000E+00 0.  1.
         12    1    4    4    0    0 -0.19619578851E+03 -0.17706587638E+03  0.34799874419E+02  0.26656358203E+03  0.00000000000E+00 0. -1.
         -5    1    5    5    0  502  0.12554230858E+03  0.17196574054E+03 -0.18665046613E+02  0.21378391223E+03  0.47000000000E+01 0.  1.
         13    1    6    6    0    0  0.58663791155E+02  0.56917878563E+02  0.69669790063E+01  0.82034286059E+02  0.00000000000E+00 0. -1.
        -14    1    6    6    0    0  0.93756238952E+02 -0.94002817501E+01  0.23796467521E+02  0.97184718479E+02  0.00000000000E+00 0.  1.
</event>
<event>
12    1  0.1035051E+000  0.2265452E+03  0.7818608E-02  0.1129201E+00
         21   -1    0    0  503  502  0.00000000000E+00  0.00000000000E+00  0.19038560594E+03  0.19038560594E+03  0.00000000000E+00 0. -1.
         21   -1    0    0  501  503 -0.00000000000E+00 -0.00000000000E+00 -0.27205584982E+03  0.27205584982E+03  0.00000000000E+00 0. -1.
          6    2    1    2  501    0 -0.67648766250E+02 -0.13009518304E+03 -0.15875342402E+02  0.22710079826E+03  0.17268941440E+03 0.  0.
         24    2    3    3    0    0 -0.11190197678E+03 -0.11734300739E+03 -0.14662787924E+01  0.17861703045E+03  0.74903002623E+02 0.  0.
         -6    2    1    2    0  502  0.67648766250E+02  0.13009518304E+03 -0.65794901478E+02  0.23534065751E+03  0.17191609520E+03 0.  0.
        -24    2    5    5    0    0  0.27054353956E+01  0.52711458295E+02  0.23628467414E+02  0.10034248722E+03  0.82003006359E+02 0.  0.
          5    1    3    3  501    0  0.44253210534E+02 -0.12752175647E+02 -0.14409063609E+02  0.48483767804E+02  0.47000000000E+01 0. -1.
        -13    1    4    4    0    0 -0.10466650417E+03 -0.69211425706E+02  0.16861917359E+02  0.12660814666E+03  0.00000000000E+00 0.  1.
         14    1    4    4    0    0 -0.72354726183E+01 -0.48131581685E+02 -0.18328196151E+02  0.52008883796E+02  0.00000000000E+00 0. -1.
         -5    1    5    5    0  502  0.64943330855E+02  0.77383724744E+02 -0.89423368891E+02  0.13499817029E+03  0.47000000000E+01 0.  1.
         11    1    6    6    0    0  0.28607223505E+02  0.10314857507E+02  0.37955482156E+02  0.48635256221E+02  0.00000000000E+00 0. -1.
        -12    1    6    6    0    0 -0.25901788109E+02  0.42396600788E+02 -0.14327014742E+02  0.51707230994E+02  0.00000000000E+00 0.  1.
</event>
<event>
12    1  0.1035051E+000  0.2649426E+03  0.7818608E-02  0.1104311E+00
         21   -1    0    0  503  502  0.00000000000E+00  0.00000000000E+00  0.23156275864E+03  0.23156275864E+03  0.00000000000E+00 0.  1.
         21   -1    0    0  501  503 -0.00000000000E+00 -0.00000000000E+00 -0.31312707685E+03  0.31312707685E+03  0.00000000000E+00 0.  1.
          6    2    1    2  501    0  0.14348650287E+03  0.14189936866E+03  0.98185562572E+01  0.26443029909E+03  0.17059651725E+03 0.  0.
         24    2    3    3    0    0  0.12564986314E+03  0.11229424438E+03 -0.51709847758E+02  0.19370234421E+03  0.80304448012E+02 0.  0.
         -6    2    1    2    0  502 -0.14348650287E+03 -0.14189936866E+03 -0.91382874470E+02  0.28025953639E+03  0.17167052939E+03 0.  0.
        -24    2    5    5    0    0 -0.84473629515E+02 -0.16124192810E+03 -0.53250789508E+02  0.20723351548E+03  0.83518440444E+02 0.  0.
          5    1    3    3  501    0  0.17836639728E+02  0.29605124278E+02  0.61528404015E+02  0.70727954876E+02  0.47000000000E+01 0. -1.
        -11    1    4    4    0    0  0.96568032261E+02  0.10651642429E+03 -0.12181763651E+02  0.14428973929E+03  0.00000000000E+00 0.  1.
         12    1    4    4    0    0  0.29081830878E+02  0.57778200916E+01 -0.39528084107E+02  0.49412604925E+02  0.00000000000E+00 0. -1.
         -5    1    5    5    0  502 -0.59012873353E+02  0.19342559440E+02 -0.38132084962E+02  0.73026020914E+02  0.47000000000E+01 0.  1.
         11    1    6    6    0    0 -0.97169481096E+02 -0.15171387802E+03 -0.60130344449E+02  0.18993332294E+03  0.00000000000E+00 0. -1.
        -12    1    6    6    0    0  0.12695851581E+02 -0.95280500823E+01  0.68795549403E+01  0.17300192540E+02  0.00000000000E+00 0.  1.
</event>
<event>
12    1  0.1035051E+000  0.2909133E+03  0.7818608E-02  0.1089912E+00
         21   -1    0    0  503  502  0.00000000000E+00  0.00000000000E+00  0.28287075578E+03  0.28287075578E+03  0.00000000000E+00 0.  1.
         21   -1    0    0  501  503 -0.00000000000E+00 -0.00000000000E+00 -0.35957174424E+03  0.35957174424E+03  0.00000000000E+00 0.  1.
          6    2    1    2  501    0  0.13885337883E+03 -0.18870561517E+03  0.93639974256E+02  0.30532738547E+03  0.17194853162E+03 0.  0.
         24    2    3    3    0    0  0.24841740792E+02 -0.57238279514E+02  0.83795238540E+02  0.13096763445E+03  0.78978139663E+02 0.  0.
         -6    2    1    2    0  502 -0.13885337883E+03  0.18870561517E+03 -0.17034096272E+03  0.33711511455E+03  0.17245430371E+03 0.  0.
        -24    2    5    5    0    0  0.12110676764E+02  0.62594120660E+02 -0.64445223271E+02  0.11366433079E+03  0.68568949671E+02 0.  0.
          5    1    3    3  501    0  0.11401163803E+03 -0.13146733566E+03  0.98447357159E+01  0.17435975102E+03  0.47000000000E+01 0. -1.
        -11    1    4    4    0    0  0.45298273743E+02 -0.53886463495E+02  0.36428635108E+02  0.79263673949E+02  0.00000000000E+00 0.  1.
         12    1    4    4    0    0 -0.20456532951E+02 -0.33518160191E+01  0.47366603432E+02  0.51703960503E+02  0.00000000000E+00 0. -1.
         -5    1    5    5    0  502 -0.15096405559E+03  0.12611149451E+03 -0.10589573945E+03  0.22345078376E+03  0.47000000000E+01 0.  1.
         13    1    6    6    0    0 -0.25807537550E+01 -0.13918020639E+02 -0.30724288103E+01  0.14484868216E+02  0.00000000000E+00 0. -1.
        -14    1    6    6    0    0  0.14691430519E+02  0.76512141299E+02 -0.61372794461E+02  0.99179462576E+02  0.00000000000E+00 0.  1.
</event>
<event>
12    1  0.1035051E+000  0.2028364E+03  0.7818608E-02  0.1147734E+00
         21   -1    0    0  501  502  0.00000000000E+00  0.00000000000E+00  0.14490644390E+04  0.14490644390E+04  0.00000000000E+00 0.  1.
         21   -1    0    0  502  503 -0.00000000000E+00 -0.00000000000E+00 -0.58390033682E+02  0.58390033682E+02  0.00000000000E+00 0.  1.
         -6    2    1    2    0  503 -0.10249437808E+03 -0.21138669963E+02  0.12363249886E+04  0.12525694751E+04  0.17169412206E+03 0.  0.
        -24    2    3    3    0    0 -0.62236863903E+02 -0.55589369401E+02  0.45718189329E+03  0.47161264457E+03  0.80247104317E+02 0.  0.
          6    2    1    2  501    0  0.10249437808E+03  0.21138669963E+02  0.15434941673E+03  0.25488499762E+03  0.17375465076E+03 0.  0.
         24    2    5    5    0    0  0.12281080351E+03  0.52415471393E+02  0.15069081565E+03  0.21711634909E+03  0.81252150859E+02 0.  0.
          5    1    5    5  501    0 -0.20316425429E+02 -0.31276801430E+02  0.36586010807E+01  0.37768648530E+02  0.47000000000E+01 0. -1.
        -13    1    6    6    0    0 -0.44729780195E+01  0.19302084565E+02  0.42112142711E+01  0.20256167618E+02  0.00000000000E+00 0.  1.
         14    1    6    6    0    0  0.12728378153E+03  0.33113386828E+02  0.14647960138E+03  0.19686018147E+03  0.00000000000E+00 0. -1.
         -5    1    3    3    0  503 -0.40257514181E+02  0.34450699438E+02  0.77914309532E+03  0.78095683051E+03  0.47000000000E+01 0.  1.
         13    1    4    4    0    0  0.94012535465E+01 -0.26346140109E+01  0.54525184311E+01  0.11182786615E+02  0.00000000000E+00 0. -1.
        -14    1    4    4    0    0 -0.71638117449E+02 -0.52954755390E+02  0.45172937486E+03  0.46042985796E+03  0.00000000000E+00 0.  1.
</event>
<event>
12    1  0.1035051E+000  0.1765944E+03  0.7818608E-02  0.1171395E+00
         21   -1    0    0  501  502  0.00000000000E+00  0.00000000000E+00  0.26098028203E+03  0.26098028203E+03  0.00000000000E+00 0. -1.
         21   -1    0    0  502  503 -0.00000000000E+00 -0.00000000000E+00 -0.12994328563E+03  0.12994328563E+03  0.00000000000E+00 0. -1.
         -6    2    1    2    0  503 -0.71975900120E+01 -0.38388525989E+02  0.12292462977E+03  0.21516515416E+03  0.17222106355E+03 0.  0.
        -24    2    3    3    0    0 -0.48152310710E+02 -0.76728540736E+02  0.81189985299E+02  0.14508579609E+03  0.79070604681E+02 0.  0.
          6    2    1    2  501    0  0.71975900120E+01  0.38388525989E+02  0.81123666274E+01  0.17575841349E+03  0.17117162496E+03 0.  0.
         24    2    5    5    0    0  0.40714424608E+02 -0.35993257666E+02  0.24552229161E+02  0.92401428057E+02  0.70583517776E+02 0.  0.
          5    1    5    5  501    0 -0.33516834596E+02  0.74381783655E+02 -0.16439862533E+02  0.83356985437E+02  0.47000000000E+01 0. -1.
        -11    1    6    6    0    0  0.20696558452E+02 -0.43365594489E+01  0.45005646718E+02  0.49725863653E+02  0.00000000000E+00 0.  1.
         12    1    6    6    0    0  0.20017866156E+02 -0.31656698217E+02 -0.20453417557E+02  0.42675564404E+02  0.00000000000E+00 0. -1.
         -5    1    3    3    0  503  0.40954720698E+02  0.38340014747E+02  0.41734644471E+02  0.70079358068E+02  0.47000000000E+01 0.  1.
         13    1    4    4    0    0 -0.23893444671E+02  0.40068282067E+01  0.49342624479E+02  0.54969500279E+02  0.00000000000E+00 0. -1.
        -14    1    4    4    0    0 -0.24258866039E+02 -0.80735368942E+02  0.31847360821E+02  0.90116295813E+02  0.00000000000E+00 0.  1.
</event>
<event>
12    1  0.1035051E+000  0.1999301E+03  0.7818608E-02  0.1150135E+00
         21   -1    0    0  503  502  0.00000000000E+00  0.00000000000E+00  0.11507702354E+03  0.11507702354E+03  0.00000000000E+00 0. -1.
         21   -1    0    0  501  503 -0.00000000000E+00 -0.00000000000E+00 -0.36451043658E+03  0.36451043658E+03  0.00000000000E+00 0. -1.
          6    2    1    2  501    0 -0.56454067994E+01 -0.99613573747E+02 -0.18124161216E+03  0.26985283366E+03  0.17325500040E+03 0.  0.
         24    2    3    3    0    0 -0.26624343316E+02 -0.87032831628E+02 -0.42244331124E+02  0.12864120176E+03  0.80500967937E+02 0.  0.
         -6    2    1    2    0  502  0.56454067994E+01  0.99613573747E+02 -0.68191800876E+02  0.20973462646E+03  0.17141691030E+03 0.  0.
        -24    2    5    5    0    0 -0.14832247763E+02  0.76205574780E+02  0.22907714417E+02  0.11335786350E+03  0.79359666308E+02 0.  0.
          5    1    3    3  501    0  0.20978936517E+02 -0.12580742119E+02 -0.13899728103E+03  0.14121163190E+03  0.47000000000E+01 0. -1.
        -11    1    4    4    0    0 -0.62947540400E+01 -0.97597036405E+02 -0.39845973042E+02  0.10560543078E+03  0.00000000000E+00 0.  1.
         12    1    4    4    0    0 -0.20329589276E+02  0.10564204778E+02 -0.23983580812E+01  0.23035770971E+02  0.00000000000E+00 0. -1.
         -5    1    5    5    0  502  0.20477654563E+02  0.23407998967E+02 -0.91099515293E+02  0.96376762960E+02  0.47000000000E+01 0.  1.
         13    1    6    6    0    0  0.27815264273E+02  0.58256427636E+02  0.16625083973E+02  0.66662535990E+02  0.00000000000E+00 0. -1.
        -14    1    6    6    0    0 -0.42647512036E+02  0.17949147143E+02  0.62826304449E+01  0.46695327511E+02  0.00000000000E+00 0.  1.
</event>
<event>
12    1  0.1035051E+000  0.2335798E+03  0.7818608E-02  0.1124660E+00
         21   -1    0    0  503  502  0.00000000000E+00  0.00000000000E+00  0.69129842968E+02  0.69129842968E+02  0.00000000000E+00 0.  1.
         21   -1    0    0  501  503 -0.00000000000E+00 -0.00000000000E+00 -0.77972673200E+03  0.77972673200E+03  0.00000000000E+00 0.  1.
          6    2    1    2  501    0  0.11159306106E+03 -0.10595902601E+03 -0.36808193308E+03  0.43594017949E+03  0.17572479667E+03 0.  0.
         24    2    3    3    0    0  0.10172807254E+03 -0.91016809449E+02 -0.38175863868E+03  0.41292431301E+03  0.78320940497E+02 0.  0.
         -6    2    1    2    0  502 -0.11159306106E+03  0.10595902601E+03 -0.34251495595E+03  0.41291639547E+03  0.17176474648E+03 0.  0.
        -24    2    5    5    0    0 -0.82115847589E+02  0.59022699830E+02 -0.33245380931E+03  0.35638992822E+03  0.79129982247E+02 0.  0.
          5    1    3    3  501    0  0.98649885271E+01 -0.14942216556E+02  0.13676705596E+02  0.23015866489E+02  0.47000000000E+01 0. -1.
        -11    1    4    4    0    0  0.44828366104E+02 -0.85922960750E+02 -0.27901051481E+03  0.29536283613E+03  0.00000000000E+00 0.  1.
         12    1    4    4    0    0  0.56899706433E+02 -0.50938486993E+01 -0.10274812387E+03  0.11756147688E+03  0.00000000000E+00 0. -1.
         -5    1    5    5    0  502 -0.29477213474E+02  0.46936326176E+02 -0.10061146642E+02  0.56526467260E+02  0.47000000000E+01 0.  1.
         13    1    6    6    0    0 -0.53059104201E+02  0.28587295550E+02 -0.78473112364E+02  0.98947114003E+02  0.00000000000E+00 0. -1.
        -14    1    6    6    0    0 -0.29056743388E+02  0.30435404279E+02 -0.25398069694E+03  0.25744281421E+03  0.00000000000E+00 0.  1.
</event>
<event>
12    1  0.1035051E+000  0.3703136E+03  0.7818608E-02  0.1054737E+00
         21   -1    0    0  501  502  0.00000000000E+00  0.00000000000E+00  0.68021722153E+03  0.68021722153E+03  0.00000000000E+00 0. -1.
         21   -1    0    0  502  503 -0.00000000000E+00 -0.00000000000E+00 -0.30424295413E+03  0.30424295413E+03  0.00000000000E+00 0. -1.
         -6    2    1    2    0  503 -0.21879110486E+03 -0.23741202552E+03 -0.98923286364E+02  0.38329882234E+03  0.18137848051E+03 0.  0.
        -24    2    3    3    0    0 -0.11475376689E+03 -0.43301729357E+02 -0.12676670072E+02  0.14673351720E+03  0.79539677691E+02 0.  0.
          6    2    1    2  501    0  0.21879110486E+03  0.23741202552E+03  0.47489755376E+03  0.60116135333E+03  0.17785743937E+03 0.  0.
         24    2    5    5    0    0  0.85206330326E+02  0.18688412137E+03  0.33624872568E+03  0.40205447597E+03  0.79992515741E+02 0.  0.
          5    1    5    5  501    0  0.13358477453E+03  0.50527904151E+02  0.13864882808E+03  0.19910687736E+03  0.47000000000E+01 0. -1.
        -13    1    6    6    0    0  0.33687744038E+02  0.85994887161E+01  0.56880410273E+02  0.66664806138E+02  0.00000000000E+00 0.  1.
         14    1    6    6    0    0  0.51518586288E+02  0.17828463266E+03  0.27936831541E+03  0.33538966983E+03  0.00000000000E+00 0. -1.
         -5    1    3    3    0  503 -0.10403733797E+03 -0.19411029617E+03 -0.86246616292E+02  0.23656530513E+03  0.47000000000E+01 0.  1.
         13    1    4    4    0    0 -0.64594613098E+02 -0.64829912543E+02 -0.10343251273E+02  0.92099752706E+02  0.00000000000E+00 0. -1.
        -14    1    4    4    0    0 -0.50159153788E+02  0.21528183186E+02 -0.23334187986E+01  0.54633764498E+02  0.00000000000E+00 0.  1.
</event>
<event>
12    1  0.1035051E+000  0.1818455E+03  0.7818608E-02  0.1166454E+00
         21   -1    0    0  503  502  0.00000000000E+00  0.00000000000E+00  0.54095299242E+02  0.54095299242E+02  0.00000000000E+00 0. -1.
         21   -1    0    0  501  503 -0.00000000000E+00 -0.00000000000E+00 -0.98531647453E+03  0.98531647453E+03  0.00000000000E+00 0.  1.
          6    2    1    2  501    0 -0.93548187748E+01 -0.56040134409E+02 -0.14148299718E+03  0.22900805332E+03  0.17087785314E+03 0.  0.
         24    2    3    3    0    0  0.10792868232E+02  0.25847834459E+02 -0.35175385561E+02  0.93232624669E+02  0.81672627008E+02 0.  0.
         -6    2    1    2    0  502  0.93548187748E+01  0.56040134409E+02 -0.78973817811E+03  0.81040372045E+03  0.17274197771E+03 0.  0.
        -24    2    5    5    0    0  0.15203405872E+02 -0.12068520570E+02 -0.19272375983E+03  0.20947002986E+03  0.79739908883E+02 0.  0.
          5    1    3    3  501    0 -0.20147687007E+02 -0.81887968869E+02 -0.10630761161E+03  0.13577542865E+03  0.47000000000E+01 0. -1.
        -13    1    4    4    0    0  0.31576793017E+02  0.89800429865E+01 -0.52087725310E+02  0.61570010210E+02  0.00000000000E+00 0.  1.
         14    1    4    4    0    0 -0.20783924785E+02  0.16867791473E+02  0.16912339749E+02  0.31662614459E+02  0.00000000000E+00 0. -1.
         -5    1    5    5    0  502 -0.58485870970E+01  0.68108654979E+02 -0.59701441828E+03  0.60093369059E+03  0.47000000000E+01 0.  1.
         11    1    6    6    0    0 -0.10231560060E+02  0.98279504077E+01 -0.35083830695E+00  0.14191424100E+02  0.00000000000E+00 0. -1.
        -12    1    6    6    0    0  0.25434965932E+02 -0.21896470977E+02 -0.19237292152E+03  0.19527860576E+03  0.00000000000E+00 0.  1.
</event>
<event>
12    1  0.1035051E+000  0.3844395E+03  0.7818608E-02  0.1049732E+00
         21   -1    0    0  503  502  0.00000000000E+00  0.00000000000E+00  0.14830525797E+03  0.14830525797E+03  0.00000000000E+00 0. -1.
         21   -1    0    0  501  503 -0.00000000000E+00 -0.00000000000E+00 -0.10105396463E+04  0.10105396463E+04  0.00000000000E+00 0. -1.
          6    2    1    2  501    0 -0.34414733345E+03 -0.32234072920E+02 -0.33554632747E+03  0.50677587324E+03  0.15733411978E+03 0.  0.
         24    2    3    3    0    0 -0.33233080432E+03  0.46508770723E+00 -0.32167242201E+03  0.46904735990E+03  0.78027552458E+02 0.  0.
         -6    2    1    2    0  502  0.34414733345E+03  0.32234072920E+02 -0.52668806084E+03  0.65206903101E+03  0.16827740549E+03 0.  0.
        -24    2    5    5    0    0  0.10110620862E+03 -0.96989752347E+01 -0.10808313762E+03  0.16618885995E+03  0.74968239890E+02 0.  0.
          5    1    3    3  501    0 -0.11816529133E+02 -0.32699160627E+02 -0.13873905456E+02  0.37728513343E+02  0.47000000000E+01 0. -1.
        -11    1    4    4    0    0 -0.75530911688E+02  0.51694893648E+01 -0.32809262300E+02  0.82511150358E+02  0.00000000000E+00 0.  1.
         12    1    4    4    0    0 -0.25679989263E+03 -0.47044016576E+01 -0.28886315971E+03  0.38653620954E+03  0.00000000000E+00 0. -1.
         -5    1    5    5    0  502  0.24304112483E+03  0.41933048154E+02 -0.41860492322E+03  0.48588017106E+03  0.47000000000E+01 0.  1.
         11    1    6    6    0    0  0.39504376233E+02  0.24594292812E+02 -0.75105966850E+02  0.88353727918E+02  0.00000000000E+00 0. -1.
        -12    1    6    6    0    0  0.61601832389E+02 -0.34293268046E+02 -0.32977170770E+02  0.77835132036E+02  0.00000000000E+00 0.  1.
</event>
<event>
12    1  0.1035051E+000  0.1884836E+03  0.7818608E-02  0.1159909E+00
         21   -1    0    0  501  502  0.00000000000E+00  0.00000000000E+00  0.33792577605E+03  0.33792577605E+03  0.00000000000E+00 0.  1.
         21   -1    0    0  502  503 -0.00000000000E+00 -0.00000000000E+00 -0.10513300041E+03  0.10513300041E+03  0.00000000000E+00 0.  1.
         -6    2    1    2    0  503 -0.96201647330E+00  0.75745321494E+02  0.10707935083E+03  0.21649766916E+03  0.17224103510E+03 0.  0.
        -24    2    3    3    0    0 -0.30559043796E+02 -0.20101809504E+02  0.45424071079E+02  0.98658286657E+02  0.79574954538E+02 0.  0.
          6    2    1    2  501    0  0.96201647330E+00 -0.75745321494E+02  0.12571342480E+03  0.22656110731E+03  0.17259139887E+03 0.  0.
         24    2    5    5    0    0  0.49006175549E+02 -0.93420014085E+02  0.68959808546E+02  0.14998631421E+03  0.81311345958E+02 0.  0.
          5    1    5    5  501    0 -0.48044159076E+02  0.17674692592E+02  0.56753616258E+02  0.76574793097E+02  0.47000000000E+01 0. -1.
        -11    1    6    6    0    0 -0.26808594425E+01 -0.18757371114E+02  0.54923542132E+02  0.58100098613E+02  0.00000000000E+00 0.  1.
         12    1    6    6    0    0  0.51687034991E+02 -0.74662642971E+02  0.14036266414E+02  0.91886215596E+02  0.00000000000E+00 0. -1.
         -5    1    3    3    0  503  0.29597027323E+02  0.95847130997E+02  0.61655279747E+02  0.11783938250E+03  0.47000000000E+01 0.  1.
         13    1    4    4    0    0  0.63370294016E+01  0.25858022983E+02  0.24311749487E+02  0.36053522121E+02  0.00000000000E+00 0. -1.
        -14    1    4    4    0    0 -0.36896073198E+02 -0.45959832487E+02  0.21112321592E+02  0.62604764536E+02  0.00000000000E+00 0.  1.
</event>
<event>
12    1  0.1035051E+000  0.1744908E+03  0.7818608E-02  0.1176507E+00
         21   -1    0    0  503  502  0.00000000000E+00  0.00000000000E+00  0.80995794099E+02  0.80995794099E+02  0.00000000000E+00 0. -1.
         21   -1    0    0  501  503 -0.00000000000E+00 -0.00000000000E+00 -0.46438038607E+03  0.46438038607E+03  0.00000000000E+00 0. -1.
          6    2    1    2  501    0  0.17119809760E+02  0.20303525430E+02 -0.32187088998E+03  0.36036000246E+03  0.15985349707E+03 0.  0.
         24    2    3    3    0    0  0.33173523128E+02  0.65123192220E+02 -0.26365677568E+03  0.28501083294E+03  0.79842136301E+02 0.  0.
         -6    2    1    2    0  502 -0.17119809760E+02 -0.20303525430E+02 -0.61513701992E+02  0.18501617771E+03  0.17245790631E+03 0.  0.
        -24    2    5    5    0    0  0.38025530890E+02  0.86430826814E+01 -0.78616960052E+02  0.12025873680E+03  0.82224652579E+02 0.  0.
          5    1    3    3  501    0 -0.16053713368E+02 -0.44819666790E+02 -0.58214114302E+02  0.75349169525E+02  0.47000000000E+01 0. -1.
        -13    1    4    4    0    0  0.30269194072E+02  0.54676579555E+02 -0.82345791397E+02  0.10337592477E+03  0.00000000000E+00 0.  1.
         14    1    4    4    0    0  0.29043290563E+01  0.10446612665E+02 -0.18131098428E+03  0.18163490817E+03  0.00000000000E+00 0. -1.
         -5    1    5    5    0  502 -0.55145340650E+02 -0.28946608111E+02  0.17103258061E+02  0.64757440907E+02  0.47000000000E+01 0.  1.
         11    1    6    6    0    0 -0.20652439117E+02  0.21746733730E+02 -0.34330909528E+02  0.45585688746E+02  0.00000000000E+00 0. -1.
        -12    1    6    6    0    0  0.58677970007E+02 -0.13103651049E+02 -0.44286050524E+02  0.74673048056E+02  0.00000000000E+00 0.  1.
</event>
<event>
12    1  0.1035051E+000  0.2145986E+03  0.7818608E-02  0.1139135E+00
         21   -1    0    0  503  502  0.00000000000E+00  0.00000000000E+00  0.97889307958E+02  0.97889307958E+02  0.00000000000E+00 0. -1.
         21   -1    0    0  501  503 -0.00000000000E+00 -0.00000000000E+00 -0.89498898039E+03  0.89498898039E+03  0.00000000000E+00 0. -1.
          6    2    1    2  501    0 -0.36619637216E+02 -0.11335207464E+03 -0.54349392008E+02  0.22137391985E+03  0.17850172359E+03 0.  0.
         24    2    3    3    0    0  0.22170765610E+02 -0.72606212525E+02  0.26691644002E+02  0.11317837345E+03  0.79584517410E+02 0.  0.
         -6    2    1    2    0  502  0.36619637216E+02  0.11335207464E+03 -0.74275028042E+03  0.77150436850E+03  0.17132227200E+03 0.  0.
        -24    2    5    5    0    0  0.59010732840E+02  0.19159990216E+02 -0.49752848900E+03  0.50782022615E+03  0.80606531456E+02 0.  0.
          5    1    3    3  501    0 -0.58790402826E+02 -0.40745862117E+02 -0.81041036010E+02  0.10819554640E+03  0.47000000000E+01 0. -1.
        -13    1    4    4    0    0 -0.14661560752E+02 -0.11148572843E+02 -0.20364354320E+02  0.27458313258E+02  0.00000000000E+00 0.  1.
         14    1    4    4    0    0  0.36832326362E+02 -0.61457639682E+02  0.47055998322E+02  0.85720060188E+02  0.00000000000E+00 0. -1.
         -5    1    5    5    0  502 -0.22391095625E+02  0.94192084426E+02 -0.24522179143E+03  0.26368414234E+03  0.47000000000E+01 0.  1.
         13    1    6    6    0    0  0.12681986202E+02  0.86601063578E+01 -0.10788314261E+02  0.18767470281E+02  0.00000000000E+00 0. -1.
        -14    1    6    6    0    0  0.46328746638E+02  0.10499883859E+02 -0.48674017474E+03  0.48905275587E+03  0.00000000000E+00 0.  1.
</event>
<event>
12    1  0.1035051E+000  0.2230790E+03  0.7818608E-02  0.1131755E+00
         21   -1    0    0  503  502  0.00000000000E+00  0.00000000000E+00  0.28944145958E+03  0.28944145958E+03  0.00000000000E+00 0.  1.
         21   -1    0    0  501  503 -0.00000000000E+00 -0.00000000000E+00 -0.37126749847E+03  0.37126749847E+03  0.00000000000E+00 0. -1.
          6    2    1    2  501    0  0.18848471767E+01  0.14173594413E+03  0.20155848287E+03  0.30005532656E+03  0.17121549718E+03 0.  0.
         24    2    3    3    0    0 -0.10141439361E+02  0.16968232113E+03  0.18938985847E+03  0.26695250228E+03  0.80623700522E+02 0.  0.
         -6    2    1    2    0  502 -0.18848471767E+01 -0.14173594413E+03 -0.28338452175E+03  0.36065363149E+03  0.17225453327E+03 0.  0.
        -24    2    5    5    0    0 -0.10379332425E+02 -0.77887177306E+02 -0.27338092555E+03  0.29530087148E+03  0.79317912924E+02 0.  0.
          5    1    3    3  501    0  0.12026286538E+02 -0.27946377003E+02  0.12168624402E+02  0.33102824280E+02  0.47000000000E+01 0. -1.
        -11    1    4    4    0    0  0.81202665253E+01  0.34905532592E+01 -0.53154764456E+01  0.10313921676E+02  0.00000000000E+00 0.  1.
         12    1    4    4    0    0 -0.18261705887E+02  0.16619176787E+03  0.19470533491E+03  0.25663858060E+03  0.00000000000E+00 0. -1.
         -5    1    5    5    0  502  0.84944852481E+01 -0.63848766824E+02 -0.10003596205E+02  0.65352760015E+02  0.47000000000E+01 0.  1.
         13    1    6    6    0    0 -0.89530882706E+01 -0.92962091258E+02 -0.20511656049E+03  0.22537726502E+03  0.00000000000E+00 0. -1.
        -14    1    6    6    0    0 -0.14262441541E+01  0.15074913952E+02 -0.68264365057E+02  0.69923606455E+02  0.00000000000E+00 0.  1.
</event>
<event>
12    1  0.1035051E+000  0.1762620E+03  0.7818608E-02  0.1171563E+00
         21   -1    0    0  503  502  0.00000000000E+00  0.00000000000E+00  0.15217538071E+04  0.15217538071E+04  0.00000000000E+00 0. -1.
         21   -1    0    0  501  503 -0.00000000000E+00 -0.00000000000E+00 -0.28617208778E+02  0.28617208778E+02  0.00000000000E+00 0. -1.
          6    2    1    2  501    0  0.20045945157E+02  0.32385147283E+02  0.11620735947E+04  0.11753096962E+04  0.17171838773E+03 0.  0.
         24    2    3    3    0    0 -0.10086830678E+02  0.17251828741E+02  0.26383627770E+03  0.27642740733E+03  0.80019749704E+02 0.  0.
         -6    2    1    2    0  502 -0.20045945157E+02 -0.32385147283E+02  0.33106300363E+03  0.37506131973E+03  0.17209777310E+03 0.  0.
        -24    2    5    5    0    0 -0.20308408523E+02  0.18801596755E+02  0.35822246146E+02  0.75379243976E+02  0.60273257802E+02 0.  0.
          5    1    3    3  501    0  0.30132775835E+02  0.15133318542E+02  0.89823731702E+03  0.89888228884E+03  0.47000000000E+01 0. -1.
        -13    1    4    4    0    0  0.24927479231E+01  0.45970012100E+02  0.10693014764E+03  0.11641955282E+03  0.00000000000E+00 0.  1.
         14    1    4    4    0    0 -0.12579578601E+02 -0.28718183359E+02  0.15690613006E+03  0.16000785451E+03  0.00000000000E+00 0. -1.
         -5    1    5    5    0  502  0.26246336583E+00 -0.51186744039E+02  0.29524075748E+03  0.29968207576E+03  0.47000000000E+01 0.  1.
         13    1    6    6    0    0 -0.31527873379E+02 -0.22217714389E+01 -0.88139959148E+00  0.31618348049E+02  0.00000000000E+00 0. -1.
        -14    1    6    6    0    0  0.11219464855E+02  0.21023368194E+02  0.36703645738E+02  0.43760895927E+02  0.00000000000E+00 0.  1.
</event>
<event>
12    1  0.1035051E+000  0.1771356E+03  0.7818608E-02  0.1170996E+00
         21   -1    0    0  501  502  0.00000000000E+00  0.00000000000E+00  0.85299221525E+02  0.85299221525E+02  0.00000000000E+00 0. -1.
         21   -1    0    0  502  503 -0.00000000000E+00 -0.00000000000E+00 -0.43608438106E+03  0.43608438106E+03  0.00000000000E+00 0. -1.
         -6    2    1    2    0  503  0.34546720273E+02 -0.48683519115E+01 -0.69175132196E+02  0.18869569965E+03  0.17205723297E+03 0.  0.
        -24    2    3    3    0    0 -0.24473848478E+02 -0.48350042044E+02 -0.61079190679E+02  0.11479225466E+03  0.80683941215E+02 0.  0.
          6    2    1    2  501    0 -0.34546720273E+02  0.48683519115E+01 -0.28161002734E+03  0.33268790294E+03  0.17366593371E+03 0.  0.
         24    2    5    5    0    0 -0.26311943444E+01  0.53182870119E+02 -0.90159373709E+02  0.13261707488E+03  0.81383260098E+02 0.  0.
          5    1    5    5  501    0 -0.31915525928E+02 -0.48314518207E+02 -0.19145065364E+03  0.20007082806E+03  0.47000000000E+01 0. -1.
        -11    1    6    6    0    0  0.32702552836E+02 -0.73043911853E+00 -0.27767045346E+02  0.42906867872E+02  0.00000000000E+00 0.  1.
         12    1    6    6    0    0 -0.35333747181E+02  0.53913309237E+02 -0.62392328363E+02  0.89710207007E+02  0.00000000000E+00 0. -1.
         -5    1    3    3    0  503  0.59020568751E+02  0.43481690132E+02 -0.80959415173E+01  0.73903444991E+02  0.47000000000E+01 0.  1.
         13    1    4    4    0    0  0.22215851689E+02 -0.36358069516E+02 -0.84775212315E+01  0.43443315383E+02  0.00000000000E+00 0. -1.
        -14    1    4    4    0    0 -0.46689700167E+02 -0.11991972527E+02 -0.52601669447E+02  0.71348939273E+02  0.00000000000E+00 0.  1.
</event>
<event>
12    1  0.1035051E+000  0.2077519E+03  0.7818608E-02  0.1144777E+00
         21   -1    0    0  501  502  0.00000000000E+00  0.00000000000E+00  0.21806240889E+02  0.21806240889E+02  0.00000000000E+00 0.  1.
         21   -1    0    0  502  503 -0.00000000000E+00 -0.00000000000E+00 -0.19213880975E+04  0.19213880975E+04  0.00000000000E+00 0. -1.
         -6    2    1    2    0  503  0.62489671863E+02  0.98612660875E+02 -0.90466105636E+03  0.92820929107E+03  0.17184715641E+03 0.  0.
        -24    2    3    3    0    0  0.31016263486E+01  0.15624361097E+02 -0.62798623019E+03  0.63327701531E+03  0.80120734322E+02 0.  0.
          6    2    1    2  501    0 -0.62489671863E+02 -0.98612660875E+02 -0.99492080026E+03  0.10149850473E+04  0.16339471083E+03 0.  0.
         24    2    5    5    0    0 -0.81768333738E+02 -0.12347740262E+03 -0.88086507095E+03  0.89657591941E+03  0.77410442948E+02 0.  0.
          5    1    5    5  501    0  0.19278661875E+02  0.24864741748E+02 -0.11405572931E+03  0.11840912792E+03  0.47000000000E+01 0. -1.
        -11    1    6    6    0    0  0.12337341842E+01  0.53429178174E+01 -0.50488539874E+01  0.74538444730E+01  0.00000000000E+00 0.  1.
         12    1    6    6    0    0 -0.83002067922E+02 -0.12882032044E+03 -0.87581621696E+03  0.88912207493E+03  0.00000000000E+00 0. -1.
         -5    1    3    3    0  503  0.59388045515E+02  0.82988299778E+02 -0.27667482617E+03  0.29493227577E+03  0.47000000000E+01 0.  1.
         13    1    4    4    0    0 -0.65862844096E+01 -0.32212448440E+02 -0.25496444125E+03  0.25707564506E+03  0.00000000000E+00 0. -1.
        -14    1    4    4    0    0  0.96879107582E+01  0.47836809537E+02 -0.37302178893E+03  0.37620137025E+03  0.00000000000E+00 0.  1.
</event>
<event>
12    1  0.1035051E+000  0.2036149E+03  0.7818608E-02  0.1146795E+00
         21   -1    0    0  501  502  0.00000000000E+00  0.00000000000E+00  0.61272586751E+02  0.61272586751E+02  0.00000000000E+00 0.  1.
         21   -1    0    0  502  503 -0.00000000000E+00 -0.00000000000E+00 -0.67795494234E+03  0.67795494234E+03  0.00000000000E+00 0.  1.
         -6    2    1    2    0  503  0.45808795948E+02 -0.97785048064E+02 -0.28637366224E+03  0.35138139520E+03  0.17262285208E+03 0.  0.
        -24    2    3    3    0    0 -0.33086317580E+01 -0.12584941868E+03 -0.24433206272E+03  0.28074346847E+03  0.57181421748E+02 0.  0.
          6    2    1    2  501    0 -0.45808795948E+02  0.97785048064E+02 -0.33030869335E+03  0.38784613389E+03  0.17222203476E+03 0.  0.
         24    2    5    5    0    0 -0.25840361341E+01  0.12223925709E+03 -0.19287864724E+03  0.24164252321E+03  0.78992551844E+02 0.  0.
          5    1    5    5  501    0 -0.43224759814E+02 -0.24454209027E+02 -0.13743004611E+03  0.14620361068E+03  0.47000000000E+01 0. -1.
        -11    1    6    6    0    0  0.23189650144E+02  0.44522265025E+02 -0.27824259038E+02  0.57394959254E+02  0.00000000000E+00 0.  1.
         12    1    6    6    0    0 -0.25773686278E+02  0.77716992066E+02 -0.16505438820E+03  0.18424756396E+03  0.00000000000E+00 0. -1.
         -5    1    3    3    0  503  0.49117427706E+02  0.28064370613E+02 -0.42041599520E+02  0.70637926729E+02  0.47000000000E+01 0.  1.
         13    1    4    4    0    0  0.21644633511E+02 -0.31258325387E+02 -0.93839420583E+02  0.10124924652E+03  0.00000000000E+00 0. -1.
        -14    1    4    4    0    0 -0.24953265269E+02 -0.94591093291E+02 -0.15049264213E+03  0.17949422195E+03  0.00000000000E+00 0.  1.
</event>
<event>
12    1  0.1035051E+000  0.1873840E+03  0.7818608E-02  0.1161378E+00
         21   -1    0    0  503  502  0.00000000000E+00  0.00000000000E+00  0.62337429764E+03  0.62337429764E+03  0.00000000000E+00 0. -1.
         21   -1    0    0  501  503 -0.00000000000E+00 -0.00000000000E+00 -0.57092506790E+02  0.57092506790E+02  0.00000000000E+00 0. -1.
          6    2    1    2  501    0  0.29715080758E+02 -0.68809008700E+02  0.22700549724E+03  0.29288304016E+03  0.16920790092E+03 0.  0.
         24    2    3    3    0    0 -0.33167918382E+02 -0.49187771302E+02  0.66070424424E+02  0.11892484921E+03  0.79109235363E+02 0.  0.
         -6    2    1    2    0  502 -0.29715080758E+02  0.68809008700E+02  0.33927629361E+03  0.38758376427E+03  0.17174139052E+03 0.  0.
        -24    2    5    5    0    0 -0.54600987176E+02  0.10608945706E+03  0.26462242204E+03  0.30038037725E+03  0.77247032863E+02 0.  0.
          5    1    3    3  501    0  0.62882999140E+02 -0.19621237397E+02  0.16093507282E+03  0.17395819095E+03  0.47000000000E+01 0. -1.
        -11    1    4    4    0    0 -0.41765932078E+02 -0.21582075892E+02  0.75128565190E+02  0.88625506429E+02  0.00000000000E+00 0.  1.
         12    1    4    4    0    0  0.85980136964E+01 -0.27605695410E+02 -0.90581407664E+01  0.30299342777E+02  0.00000000000E+00 0. -1.
         -5    1    5    5    0  502  0.24885906418E+02 -0.37280448363E+02  0.74653871568E+02  0.87203387024E+02  0.47000000000E+01 0.  1.
         13    1    6    6    0    0 -0.29173441618E+01 -0.10665367998E+02  0.45006552941E+02  0.46344911038E+02  0.00000000000E+00 0. -1.
        -14    1    6    6    0    0 -0.51683643014E+02  0.11675482506E+03  0.21961586910E+03  0.25403546621E+03  0.00000000000E+00 0.  1.
</event>
<event>
12    1  0.1035051E+000  0.3034480E+03  0.7818608E-02  0.1083646E+00
         21   -1    0    0  501  502  0.00000000000E+00  0.00000000000E+00  0.27494735981E+03  0.27494735981E+03  0.00000000000E+00 0.  1.
         21   -1    0    0  502  503 -0.00000000000E+00 -0.00000000000E+00 -0.36590669311E+03  0.36590669311E+03  0.00000000000E+00 0. -1.
         -6    2    1    2    0  503  0.21762086188E+03 -0.12289708718E+03  0.49409659755E+02  0.30651272314E+03  0.17042946167E+03 0.  0.
        -24    2    3    3    0    0  0.17641813009E+03 -0.24023808430E+02  0.39311222730E+02  0.19882029635E+03  0.79269401478E+02 0.  0.
          6    2    1    2  501    0 -0.21762086188E+03  0.12289708718E+03 -0.14036899305E+03  0.33434132978E+03  0.17209920692E+03 0.  0.
         24    2    5    5    0    0 -0.20517105141E+03  0.11134531731E+03 -0.63350215945E+02  0.25533232273E+03  0.81782670214E+02 0.  0.
          5    1    5    5  501    0 -0.12449810478E+02  0.11551769877E+02 -0.77018777106E+02  0.79009007051E+02  0.47000000000E+01 0. -1.
        -13    1    6    6    0    0 -0.96178461433E+02  0.24403250268E+02  0.64089483283E+01  0.99432840078E+02  0.00000000000E+00 0.  1.
         14    1    6    6    0    0 -0.10899258997E+03  0.86942067039E+02 -0.69759164273E+02  0.15589948265E+03  0.00000000000E+00 0. -1.
         -5    1    3    3    0  503  0.41202731792E+02 -0.98873278755E+02  0.10098437026E+02  0.10769242680E+03  0.47000000000E+01 0.  1.
         11    1    4    4    0    0  0.27060077929E+02  0.25476153418E+02  0.26575014636E+01  0.37260495495E+02  0.00000000000E+00 0. -1.
        -12    1    4    4    0    0  0.14935805216E+03 -0.49499961848E+02  0.36653721266E+02  0.16155980085E+03  0.00000000000E+00 0.  1.
</event>
<event>
12    1  0.1035051E+000  0.1800861E+03  0.7818608E-02  0.1170446E+00
         21   -1    0    0  503  502  0.00000000000E+00  0.00000000000E+00  0.24128375839E+03  0.24128375839E+03  0.00000000000E+00 0.  1.
         21   -1    0    0  501  503 -0.00000000000E+00 -0.00000000000E+00 -0.16431785856E+03  0.16431785856E+03  0.00000000000E+00 0.  1.
          6    2    1    2  501    0 -0.39849765837E+02 -0.28101044708E+02 -0.57981461306E+02  0.18918996047E+03  0.17335893036E+03 0.  0.
         24    2    3    3    0    0 -0.73282230591E+02  0.28216414735E+02 -0.48144290921E+02  0.12279533826E+03  0.81205732363E+02 0.  0.
         -6    2    1    2    0  502  0.39849765837E+02  0.28101044708E+02  0.13494736113E+03  0.21641165648E+03  0.16200475991E+03 0.  0.
        -24    2    5    5    0    0  0.23201794587E+02 -0.46108111042E+02  0.53789815128E+02  0.10508874322E+03  0.74067662066E+02 0.  0.
          5    1    3    3  501    0  0.33432464753E+02 -0.56317459443E+02 -0.98371703845E+01  0.66394622213E+02  0.47000000000E+01 0. -1.
        -13    1    4    4    0    0 -0.11920880168E+02  0.34007951659E+02  0.10689450422E+02  0.37588728502E+02  0.00000000000E+00 0.  1.
         14    1    4    4    0    0 -0.61361350423E+02 -0.57915369248E+01 -0.58833741343E+02  0.85206609756E+02  0.00000000000E+00 0. -1.
         -5    1    5    5    0  502  0.16647971251E+02  0.74209155751E+02  0.81157546004E+02  0.11132291326E+03  0.47000000000E+01 0.  1.
         13    1    6    6    0    0  0.96471720201E+01 -0.22772771579E+02  0.69564444083E+02  0.73830067953E+02  0.00000000000E+00 0. -1.
        -14    1    6    6    0    0  0.13554622566E+02 -0.23335339463E+02 -0.15774628954E+02  0.31258675266E+02  0.00000000000E+00 0.  1.
</event>
<event>
12    1  0.1035051E+000  0.1883194E+03  0.7818608E-02  0.1160353E+00
         21   -1    0    0  503  502  0.00000000000E+00  0.00000000000E+00  0.20971301572E+03  0.20971301572E+03  0.00000000000E+00 0. -1.
         21   -1    0    0  501  503 -0.00000000000E+00 -0.00000000000E+00 -0.32080158077E+03  0.32080158077E+03  0.00000000000E+00 0. -1.
          6    2    1    2  501    0 -0.35429976473E+02  0.65500150109E+02  0.12759465878E+03  0.22747441287E+03  0.17297010917E+03 0.  0.
         24    2    3    3    0    0 -0.37869462841E+02  0.10028804266E+03  0.51024747414E+02  0.14320585475E+03  0.80078737932E+02 0.  0.
         -6    2    1    2    0  502  0.35429976473E+02 -0.65500150109E+02 -0.23868322383E+03  0.30304018362E+03  0.17122534466E+03 0.  0.
        -24    2    5    5    0    0  0.29486564647E+02 -0.83322892054E+02 -0.79860737978E+02  0.14304128898E+03  0.79189084141E+02 0.  0.
          5    1    3    3  501    0  0.24394863678E+01 -0.34787892553E+02  0.76569911361E+02  0.84268558121E+02  0.47000000000E+01 0. -1.
        -11    1    4    4    0    0  0.69246815344E+01  0.79054139670E+02  0.49661459978E+02  0.93615003181E+02  0.00000000000E+00 0.  1.
         12    1    4    4    0    0 -0.44794144376E+02  0.21233902991E+02  0.13632874358E+01  0.49590851568E+02  0.00000000000E+00 0. -1.
         -5    1    5    5    0  502  0.59434118262E+01  0.17822741946E+02 -0.15882248585E+03  0.15999889464E+03  0.47000000000E+01 0.  1.
         13    1    6    6    0    0 -0.16251818096E+02 -0.52615354925E+02 -0.13322492206E+02  0.56656738027E+02  0.00000000000E+00 0. -1.
        -14    1    6    6    0    0  0.45738382743E+02 -0.30707537129E+02 -0.66538245772E+02  0.86384550950E+02  0.00000000000E+00 0.  1.
</event>
<event>
12    1  0.1035051E+000  0.3353838E+03  0.7818608E-02  0.1068810E+00
         21   -1    0    0  503  502  0.00000000000E+00  0.00000000000E+00  0.64855146101E+02  0.64855146101E+02  0.00000000000E+00 0. -1.
         21   -1    0    0  501  503 -0.00000000000E+00 -0.00000000000E+00 -0.17338830713E+04  0.17338830713E+04  0.00000000000E+00 0. -1.
          6    2    1    2  501    0  0.14492928923E+03  0.24866056382E+03 -0.85551615239E+03  0.91880430851E+03  0.17163011236E+03 0.  0.
         24    2    3    3    0    0  0.24104017616E+02  0.17087614058E+03 -0.52622697292E+03  0.55949578304E+03  0.79630679594E+02 0.  0.
         -6    2    1    2    0  502 -0.14492928923E+03 -0.24866056382E+03 -0.81351177281E+03  0.87993390889E+03  0.17217928051E+03 0.  0.
        -24    2    5    5    0    0  0.55799949007E+01 -0.66769547249E+02 -0.21089006428E+03  0.23269948450E+03  0.72007791891E+02 0.  0.
          5    1    3    3  501    0  0.12082527161E+03  0.77784423243E+02 -0.32928917947E+03  0.35930852547E+03  0.47000000000E+01 0. -1.
        -13    1    4    4    0    0  0.41218485403E+02  0.16712070520E+03 -0.46609398289E+03  0.49686204779E+03  0.00000000000E+00 0.  1.
         14    1    4    4    0    0 -0.17114467787E+02  0.37554353827E+01 -0.60132990025E+02  0.62633735254E+02  0.00000000000E+00 0. -1.
         -5    1    5    5    0  502 -0.15050928413E+03 -0.18189101657E+03 -0.60262170853E+03  0.64723442438E+03  0.47000000000E+01 0.  1.
         13    1    6    6    0    0 -0.14246855727E+01 -0.13384470891E+02  0.15439097740E+01  0.13548337441E+02  0.00000000000E+00 0. -1.
        -14    1    6    6    0    0  0.70046804733E+01 -0.53385076358E+02 -0.21243397405E+03  0.21915114706E+03  0.00000000000E+00 0.  1.
</event>
<event>
12    1  0.1035051E+000  0.1761839E+03  0.7818608E-02  0.1171675E+00
         21   -1    0    0  501  502  0.00000000000E+00  0.00000000000E+00  0.52638448755E+02  0.52638448755E+02  0.00000000000E+00 0. -1.
         21   -1    0    0  502  503 -0.00000000000E+00 -0.00000000000E+00 -0.67072485792E+03  0.67072485792E+03  0.00000000000E+00 0. -1.
         -6    2    1    2    0  503 -0.37792642879E+02  0.28098601045E+00 -0.43567494034E+03  0.46975986242E+03  0.17156139394E+03 0.  0.
        -24    2    3    3    0    0  0.11021905822E+02  0.55336383535E+02 -0.22416589063E+03  0.24576851198E+03  0.83475848060E+02 0.  0.
          6    2    1    2  501    0  0.37792642879E+02 -0.28098601045E+00 -0.18241146883E+03  0.25360344426E+03  0.17208253883E+03 0.  0.
         24    2    5    5    0    0  0.68418092801E+02  0.69538569224E+01 -0.19268897767E+03  0.22016726141E+03  0.81333814209E+02 0.  0.
          5    1    5    5  501    0 -0.30625449923E+02 -0.72348429329E+01  0.10277508843E+02  0.33436182845E+02  0.47000000000E+01 0. -1.
        -11    1    6    6    0    0  0.83371596495E+02  0.20030078638E+02 -0.14419383281E+03  0.16776140370E+03  0.00000000000E+00 0.  1.
         12    1    6    6    0    0 -0.14953503694E+02 -0.13076221716E+02 -0.48495144863E+02  0.52405857710E+02  0.00000000000E+00 0. -1.
         -5    1    3    3    0  503 -0.48814548700E+02 -0.55055397524E+02 -0.21150904971E+03  0.22399135043E+03  0.47000000000E+01 0.  1.
         11    1    4    4    0    0  0.68493349068E+01 -0.13404956560E+02 -0.47291704335E+01  0.15778824482E+02  0.00000000000E+00 0. -1.
        -12    1    4    4    0    0  0.41725709150E+01  0.68741340094E+02 -0.21943672020E+03  0.22998968750E+03  0.00000000000E+00 0.  1.
</event>
<event>
12    1  0.1035051E+000  0.3680883E+03  0.7818608E-02  0.1055475E+00
         21   -1    0    0  503  502  0.00000000000E+00  0.00000000000E+00  0.26600985020E+03  0.26600985020E+03  0.00000000000E+00 0. -1.
         21   -1    0    0  501  503 -0.00000000000E+00 -0.00000000000E+00 -0.71793043347E+03  0.71793043347E+03  0.00000000000E+00 0. -1.
          6    2    1    2  501    0  0.62424447759E+02  0.31909126521E+03 -0.49147947533E+03  0.61373234709E+03  0.17146215906E+03 0.  0.
         24    2    3    3    0    0  0.98496511713E+02  0.25773844464E+03 -0.33191276051E+03  0.43894965668E+03  0.79875226740E+02 0.  0.
         -6    2    1    2    0  502 -0.62424447759E+02 -0.31909126521E+03  0.39558892067E+02  0.37020793658E+03  0.17254843711E+03 0.  0.
        -24    2    5    5    0    0 -0.39173010538E+02 -0.65102269926E+02 -0.44552523686E+01  0.11134431617E+03  0.81270395384E+02 0.  0.
          5    1    3    3  501    0 -0.36072063955E+02  0.61352820575E+02 -0.15956671482E+03  0.17478269041E+03  0.47000000000E+01 0. -1.
        -13    1    4    4    0    0 -0.92908737369E+01  0.19296848585E+01 -0.13842691544E+02  0.16782852190E+02  0.00000000000E+00 0.  1.
         14    1    4    4    0    0  0.10778738545E+03  0.25580875978E+03 -0.31807006897E+03  0.42216680449E+03  0.00000000000E+00 0. -1.
         -5    1    5    5    0  502 -0.23251437221E+02 -0.25398899529E+03  0.44014144435E+02  0.25886362041E+03  0.47000000000E+01 0.  1.
         13    1    6    6    0    0 -0.18952864642E+01 -0.27195692639E+02 -0.39262091837E+02  0.47798636637E+02  0.00000000000E+00 0. -1.
        -14    1    6    6    0    0 -0.37277724074E+02 -0.37906577286E+02  0.34806839469E+02  0.63545679534E+02  0.00000000000E+00 0.  1.
</event>
<event>
12    1  0.1035051E+000  0.1808870E+03  0.7818608E-02  0.1168252E+00
         21   -1    0    0  503  502  0.00000000000E+00  0.00000000000E+00  0.28559241347E+02  0.28559241347E+02  0.00000000000E+00 0. -1.
         21   -1    0    0  501  503 -0.00000000000E+00 -0.00000000000E+00 -0.12333240446E+04  0.12333240446E+04  0.00000000000E+00 0. -1.
          6    2    1    2  501    0 -0.20280309488E+02  0.50061499992E+02 -0.41274857891E+03  0.45064563185E+03  0.17263444436E+03 0.  0.
         24    2    3    3    0    0 -0.72863717691E+02  0.17032048682E+02 -0.18911672311E+03  0.21850503566E+03  0.79875550769E+02 0.  0.
         -6    2    1    2    0  502  0.20280309488E+02 -0.50061499992E+02 -0.79201622434E+03  0.81123765409E+03  0.16703109610E+03 0.  0.
        -24    2    5    5    0    0  0.78290640251E+02 -0.11676647160E+02 -0.45187832201E+03  0.46402809489E+03  0.69730097526E+02 0.  0.
          5    1    3    3  501    0  0.52583408203E+02  0.33029451310E+02 -0.22363185580E+03  0.23214059619E+03  0.47000000000E+01 0. -1.
        -11    1    4    4    0    0 -0.23710514110E+02  0.44165904277E+02 -0.11560266906E+03  0.12600314549E+03  0.00000000000E+00 0.  1.
         12    1    4    4    0    0 -0.49153203581E+02 -0.27133855595E+02 -0.73514054046E+02  0.92501890164E+02  0.00000000000E+00 0. -1.
         -5    1    5    5    0  502 -0.58010330763E+02 -0.38384852832E+02 -0.34013790233E+03  0.34720955920E+03  0.47000000000E+01 0.  1.
         13    1    6    6    0    0  0.72834764609E+02 -0.13841720325E+02 -0.22156091722E+03  0.23363590519E+03  0.00000000000E+00 0. -1.
        -14    1    6    6    0    0  0.54558756418E+01  0.21650731656E+01 -0.23031740480E+03  0.23039218970E+03  0.00000000000E+00 0.  1.
</event>
<event>
12    1  0.1035051E+000  0.2331300E+03  0.7818608E-02  0.1125326E+00
         21   -1    0    0  501  502  0.00000000000E+00  0.00000000000E+00  0.72515380045E+02  0.72515380045E+02  0.00000000000E+00 0. -1.
         21   -1    0    0  502  503 -0.00000000000E+00 -0.00000000000E+00 -0.73454945692E+03  0.73454945692E+03  0.00000000000E+00 0. -1.
         -6    2    1    2    0  503 -0.14455618100E+03 -0.27782741401E+02 -0.34926300356E+03  0.41992173064E+03  0.18077954538E+03 0.  0.
        -24    2    3    3    0    0 -0.12436924034E+03 -0.16929310412E+02 -0.12440747648E+03  0.19385225550E+03  0.79669111098E+02 0.  0.
          6    2    1    2  501    0  0.14455618100E+03  0.27782741401E+02 -0.31277107332E+03  0.38714310632E+03  0.17431485962E+03 0.  0.
         24    2    5    5    0    0  0.92788788059E+02  0.38022678448E+02 -0.86623994649E+02  0.15487319765E+03  0.80165501536E+02 0.  0.
          5    1    5    5  501    0  0.51767392936E+02 -0.10239937047E+02 -0.22614707867E+03  0.23226990867E+03  0.47000000000E+01 0. -1.
        -11    1    6    6    0    0  0.24391049188E+02  0.41473403825E+02 -0.69067102985E+02  0.84173815525E+02  0.00000000000E+00 0.  1.
         12    1    6    6    0    0  0.68397738872E+02 -0.34507253774E+01 -0.17556891664E+02  0.70699382128E+02  0.00000000000E+00 0. -1.
         -5    1    3    3    0  503 -0.20186940660E+02 -0.10853430988E+02 -0.22485552708E+03  0.22606947515E+03  0.47000000000E+01 0.  1.
         13    1    4    4    0    0  0.42922980500E+01  0.15404569985E+02 -0.12627205695E+02  0.20375743487E+02  0.00000000000E+00 0. -1.
        -14    1    4    4    0    0 -0.12866153839E+03 -0.32333880397E+02 -0.11178027079E+03  0.17347651201E+03  0.00000000000E+00 0.  1.
</event>
<event>
12    1  0.1035051E+000  0.1913761E+03  0.7818608E-02  0.1157933E+00
         21   -1    0    0  501  502  0.00000000000E+00  0.00000000000E+00  0.70381276270E+03  0.70381276270E+03  0.00000000000E+00 0. -1.
         21   -1    0    0  502  503 -0.00000000000E+00 -0.00000000000E+00 -0.59410943927E+02  0.59410943927E+02  0.00000000000E+00 0. -1.
         -6    2    1    2    0  503  0.83137292236E+02 -0.13366428202E+00  0.46646471042E+03  0.50419653745E+03  0.17237457783E+03 0.  0.
        -24    2    3    3    0    0  0.44815648449E+02 -0.42862455816E+02  0.13953951820E+03  0.17223800191E+03  0.79680736056E+02 0.  0.
          6    2    1    2  501    0 -0.83137292236E+02  0.13366428202E+00  0.17793710835E+03  0.25902716918E+03  0.16888348829E+03 0.  0.
         24    2    5    5    0    0 -0.10207745640E+03 -0.31812728503E+02  0.17683478476E+03  0.22157577471E+03  0.79958902188E+02 0.  0.
          5    1    5    5  501    0  0.18940164160E+02  0.31946392785E+02  0.11023235981E+01  0.37451394469E+02  0.47000000000E+01 0. -1.
        -11    1    6    6    0    0 -0.58261970518E+01 -0.61357850913E+01  0.87073530520E+02  0.87483667893E+02  0.00000000000E+00 0.  1.
         12    1    6    6    0    0 -0.96251259344E+02 -0.25676943412E+02  0.89761254235E+02  0.13409210681E+03  0.00000000000E+00 0. -1.
         -5    1    3    3    0  503  0.38321643787E+02  0.42728791534E+02  0.32692519221E+03  0.33195853553E+03  0.47000000000E+01 0.  1.
         11    1    4    4    0    0 -0.15757768633E+02  0.88920158070E+01  0.45621774968E+02  0.49078728270E+02  0.00000000000E+00 0. -1.
        -12    1    4    4    0    0  0.60573417082E+02 -0.51754471623E+02  0.93917743237E+02  0.12315927364E+03  0.00000000000E+00 0.  1.
</event>
<event>
12    1  0.1035051E+000  0.2135609E+03  0.7818608E-02  0.1139292E+00
         21   -1    0    0  503  502  0.00000000000E+00  0.00000000000E+00  0.56136385523E+02  0.56136385523E+02  0.00000000000E+00 0. -1.
         21   -1    0    0  501  503 -0.00000000000E+00 -0.00000000000E+00 -0.84396258915E+03  0.84396258915E+03  0.00000000000E+00 0. -1.
          6    2    1    2  501    0  0.12619386953E+03 -0.85628055800E+01 -0.49606690638E+03  0.54008391841E+03  0.17207570711E+03 0.  0.
         24    2    3    3    0    0  0.44971010351E+02  0.20125101985E+02 -0.40019568826E+03  0.41111287764E+03  0.80186019713E+02 0.  0.
         -6    2    1    2    0  502 -0.12619386953E+03  0.85628055800E+01 -0.29175929725E+03  0.36001505626E+03  0.16878725917E+03 0.  0.
        -24    2    5    5    0    0 -0.76436914806E+02  0.69343746394E+02 -0.20515456611E+03  0.24299990012E+03  0.79431721346E+02 0.  0.
          5    1    3    3  501    0  0.81222859182E+02 -0.28687907565E+02 -0.95871218114E+02  0.12897104077E+03  0.47000000000E+01 0. -1.
        -11    1    4    4    0    0  0.41478337659E+02 -0.14655731179E+02 -0.10483516636E+03  0.11369105091E+03  0.00000000000E+00 0.  1.
         12    1    4    4    0    0  0.34926726926E+01  0.34780833164E+02 -0.29536052190E+03  0.29742182673E+03  0.00000000000E+00 0. -1.
         -5    1    5    5    0  502 -0.49756954727E+02 -0.60780940814E+02 -0.86604731139E+02  0.11701515614E+03  0.47000000000E+01 0.  1.
         13    1    6    6    0    0  0.85313618236E+01  0.69257255825E+01 -0.73576989430E+02  0.74393031817E+02  0.00000000000E+00 0. -1.
        -14    1    6    6    0    0 -0.84968276630E+02  0.62418020812E+02 -0.13157757668E+03  0.16860686831E+03  0.00000000000E+00 0.  1.
</event>
<event>
12    1  0.1035051E+000  0.2489022E+03  0.7818608E-02  0.1114176E+00
         21   -1    0    0  501  502  0.00000000000E+00  0.00000000000E+00  0.96335146546E+02  0.96335146546E+02  0.00000000000E+00 0. -1.
         21   -1    0    0  502  503 -0.00000000000E+00 -0.00000000000E+00 -0.67460824503E+03  0.67460824503E+03  0.00000000000E+00 0. -1.
         -6    2    1    2    0  503 -0.17108660903E+03 -0.56800071353E+02 -0.20154150604E+03  0.31941374914E+03  0.17002731719E+03 0.  0.
        -24    2    3    3    0    0 -0.94622833611E+02 -0.11152446698E+02 -0.32561313257E+02  0.12834619528E+03  0.79590508310E+02 0.  0.
          6    2    1    2  501    0  0.17108660903E+03  0.56800071353E+02 -0.37673159244E+03  0.45152964243E+03  0.17162589942E+03 0.  0.
         24    2    5    5    0    0  0.48901742230E+02  0.73421050177E+02 -0.13538478398E+03  0.18046549768E+03  0.80353749872E+02 0.  0.
          5    1    5    5  501    0  0.12218486680E+03 -0.16620978824E+02 -0.24134680847E+03  0.27106414475E+03  0.47000000000E+01 0. -1.
        -13    1    6    6    0    0  0.26982543140E+02  0.49948976131E+02 -0.13701313185E+03  0.14830898877E+03  0.00000000000E+00 0.  1.
         14    1    6    6    0    0  0.21919199091E+02  0.23472074046E+02  0.16283478678E+01  0.32156508915E+02  0.00000000000E+00 0. -1.
         -5    1    3    3    0  503 -0.76463775421E+02 -0.45647624655E+02 -0.16898019278E+03  0.19106755387E+03  0.47000000000E+01 0.  1.
         13    1    4    4    0    0  0.78856662502E+01  0.14671745026E+02 -0.12311821747E+02  0.20712913582E+02  0.00000000000E+00 0. -1.
        -14    1    4    4    0    0 -0.10250849986E+03 -0.25824191724E+02 -0.20249491510E+02  0.10763328169E+03  0.00000000000E+00 0.  1.
</event>
<event>
12    1  0.1035051E+000  0.2102287E+03  0.7818608E-02  0.1141507E+00
         21   -1    0    0  501  502  0.00000000000E+00  0.00000000000E+00  0.93857929548E+03  0.93857929548E+03  0.00000000000E+00 0.  1.
         21   -1    0    0  502  503 -0.00000000000E+00 -0.00000000000E+00 -0.49782040318E+02  0.49782040318E+02  0.00000000000E+00 0.  1.
         -6    2    1    2    0  503 -0.10294292659E+03  0.60258577138E+02  0.32591078531E+03  0.38749755214E+03  0.17236058332E+03 0.  0.
        -24    2    3    3    0    0 -0.76445354008E+02  0.10770197741E+03  0.22829765011E+03  0.27567889651E+03  0.80221124726E+02 0.  0.
          6    2    1    2  501    0  0.10294292659E+03 -0.60258577138E+02  0.56288646985E+03  0.60086378366E+03  0.17311200511E+03 0.  0.
         24    2    5    5    0    0  0.35418204315E+01 -0.61344297673E+02  0.19417808305E+03  0.21896101699E+03  0.80393604676E+02 0.  0.
          5    1    5    5  501    0  0.99401106154E+02  0.10857205348E+01  0.36870838680E+03  0.38190276667E+03  0.47000000000E+01 0. -1.
        -13    1    6    6    0    0 -0.16817737555E+02  0.76132077292E+01  0.93138208802E+02  0.94950108833E+02  0.00000000000E+00 0.  1.
         14    1    6    6    0    0  0.20359557986E+02 -0.68957505402E+02  0.10103987425E+03  0.12401090816E+03  0.00000000000E+00 0. -1.
         -5    1    3    3    0  503 -0.26497572578E+02 -0.47443400271E+02  0.97613135199E+02  0.11181865562E+03  0.47000000000E+01 0.  1.
         13    1    4    4    0    0 -0.33627951149E+02  0.33142951977E+02  0.15711908037E+03  0.16406004931E+03  0.00000000000E+00 0. -1.
        -14    1    4    4    0    0 -0.42817402858E+02  0.74559025432E+02  0.71178569735E+02  0.11161884720E+03  0.00000000000E+00 0.  1.
</event>
<event>
12    1  0.1035051E+000  0.1880255E+03  0.7818608E-02  0.1160674E+00
         21   -1    0    0  501  502  0.00000000000E+00  0.00000000000E+00  0.10256745682E+03  0.10256745682E+03  0.00000000000E+00 0.  1.
         21   -1    0    0  502  503 -0.00000000000E+00 -0.00000000000E+00 -0.43334681488E+03  0.43334681488E+03  0.00000000000E+00 0.  1.
         -6    2    1    2    0  503 -0.44523318833E+02  0.56242639765E+02 -0.28948966403E+03  0.34519247006E+03  0.17380453204E+03 0.  0.
        -24    2    3    3    0    0  0.29361873518E+02  0.22653946598E+02 -0.73001370695E+02  0.11394262009E+03  0.79236353003E+02 0.  0.
          6    2    1    2  501    0  0.44523318833E+02 -0.56242639765E+02 -0.41289694025E+02  0.19072180164E+03  0.17182667529E+03 0.  0.
         24    2    5    5    0    0  0.43182091849E+02  0.26813360851E+02  0.22033999713E+02  0.86165222143E+02  0.65994689082E+02 0.  0.
          5    1    5    5  501    0  0.13412269837E+01 -0.83056000615E+02 -0.63323693738E+02  0.10455657950E+03  0.47000000000E+01 0. -1.
        -13    1    6    6    0    0 -0.92129278261E+01 -0.12759624424E+02 -0.27628839574E+01  0.15978722800E+02  0.00000000000E+00 0.  1.
         14    1    6    6    0    0  0.52395019675E+02  0.39572985274E+02  0.24796883670E+02  0.70186499343E+02  0.00000000000E+00 0. -1.
         -5    1    3    3    0  503 -0.73885192351E+02  0.33588693167E+02 -0.21648829334E+03  0.23124984997E+03  0.47000000000E+01 0.  1.
         13    1    4    4    0    0  0.43252056338E+02  0.10817086075E+02 -0.82194957520E+02  0.93508078637E+02  0.00000000000E+00 0. -1.
        -14    1    4    4    0    0 -0.13890182819E+02  0.11836860523E+02  0.91935868248E+01  0.20434541456E+02  0.00000000000E+00 0.  1.
</event>
<event>
12    1  0.1035051E+000  0.3981735E+03  0.7818608E-02  0.1044417E+00
         21   -1    0    0  501  502  0.00000000000E+00  0.00000000000E+00  0.14739202081E+03  0.14739202081E+03  0.00000000000E+00 0.  1.
         21   -1    0    0  502  503 -0.00000000000E+00 -0.00000000000E+00 -0.11530589613E+04  0.11530589613E+04  0.00000000000E+00 0.  1.
         -6    2    1    2    0  503  0.18349196477E+03 -0.30870220507E+03 -0.67141737035E+03  0.78060451278E+03  0.17197606699E+03 0.  0.
        -24    2    3    3    0    0  0.46723226326E+02 -0.91634224549E+02 -0.32011340660E+03  0.34556341021E+03  0.79759553666E+02 0.  0.
          6    2    1    2  501    0 -0.18349196477E+03  0.30870220507E+03 -0.33424957015E+03  0.51984646933E+03  0.17190469448E+03 0.  0.
         24    2    5    5    0    0 -0.36960070260E+02  0.16492940910E+03 -0.11304973852E+03  0.21802919269E+03  0.78668473390E+02 0.  0.
          5    1    5    5  501    0 -0.14653189451E+03  0.14377279597E+03 -0.22119983163E+03  0.30181727665E+03  0.47000000000E+01 0. -1.
        -13    1    6    6    0    0 -0.37051175742E+02  0.96285921011E+02 -0.24587269542E+02  0.10605801258E+03  0.00000000000E+00 0.  1.
         14    1    6    6    0    0  0.91105482612E-01  0.68643488087E+02 -0.88462468979E+02  0.11197118011E+03  0.00000000000E+00 0. -1.
         -5    1    3    3    0  503  0.13676873844E+03 -0.21706798052E+03 -0.35130396374E+03  0.43504110257E+03  0.47000000000E+01 0.  1.
         11    1    4    4    0    0  0.58228512841E+02 -0.57439625684E+02 -0.27958326960E+03  0.29130169060E+03  0.00000000000E+00 0. -1.
        -12    1    4    4    0    0 -0.11505286515E+02 -0.34194598865E+02 -0.40530137001E+02  0.54261719606E+02  0.00000000000E+00 0.  1.
</event>
<event>
12    1  0.1035051E+000  0.3789026E+03  0.7818608E-02  0.1051365E+00
         21   -1    0    0  503  502  0.00000000000E+00  0.00000000000E+00  0.10215314108E+03  0.10215314108E+03  0.00000000000E+00 0.  1.
         21   -1    0    0  501  503 -0.00000000000E+00 -0.00000000000E+00 -0.18378759962E+04  0.18378759962E+04  0.00000000000E+00 0.  1.
          6    2    1    2  501    0 -0.30449437121E+03  0.14548691230E+03 -0.39655337413E+03  0.54828846836E+03  0.17170440372E+03 0.  0.
         24    2    3    3    0    0 -0.24788404022E+03  0.12686778355E+03 -0.39338557164E+03  0.48842590492E+03  0.79156330897E+02 0.  0.
         -6    2    1    2    0  502  0.30449437121E+03 -0.14548691230E+03 -0.13391694810E+04  0.13917406689E+04  0.17229024042E+03 0.  0.
        -24    2    5    5    0    0  0.19262142752E+03 -0.87762358421E+02 -0.57954590469E+03  0.62174213169E+03  0.76710995197E+02 0.  0.
          5    1    3    3  501    0 -0.56610330984E+02  0.18619128752E+02 -0.31678024947E+01  0.59862563446E+02  0.47000000000E+01 0. -1.
        -11    1    4    4    0    0 -0.20754325521E+03  0.13058497485E+03 -0.36175835628E+03  0.43703060165E+03  0.00000000000E+00 0.  1.
         12    1    4    4    0    0 -0.40340785014E+02 -0.37171912978E+01 -0.31627215353E+02  0.51395303265E+02  0.00000000000E+00 0. -1.
         -5    1    5    5    0  502  0.11187294369E+03 -0.57724553878E+02 -0.75962357627E+03  0.76999853719E+03  0.47000000000E+01 0.  1.
         11    1    6    6    0    0  0.54851664669E+02  0.84184858935E+01 -0.17831729140E+03  0.18675286460E+03  0.00000000000E+00 0. -1.
        -12    1    6    6    0    0  0.13776976285E+03 -0.96180844315E+02 -0.40122861328E+03  0.43498926710E+03  0.00000000000E+00 0.  1.
</event>
<event>
12    1  0.1035051E+000  0.2581203E+03  0.7818608E-02  0.1108325E+00
         21   -1    0    0  501  502  0.00000000000E+00  0.00000000000E+00  0.27738479896E+03  0.27738479896E+03  0.00000000000E+00 0.  1.
         21   -1    0    0  502  503 -0.00000000000E+00 -0.00000000000E+00 -0.29335795189E+03  0.29335795189E+03  0.00000000000E+00 0.  1.
         -6    2    1    2    0  503 -0.16102999427E+03 -0.95025311865E+02 -0.12980168273E+03  0.28891963535E+03  0.17794833492E+03 0.  0.
        -24    2    3    3    0    0 -0.15636060834E+03 -0.68163631198E+02 -0.45181916149E+02  0.19989184222E+03  0.93917104833E+02 0.  0.
          6    2    1    2  501    0  0.16102999427E+03  0.95025311865E+02  0.11382852980E+03  0.28182311551E+03  0.17750173321E+03 0.  0.
         24    2    5    5    0    0  0.12251189820E+03  0.64380083302E+02  0.15109961123E+03  0.21990383524E+03  0.79828841366E+02 0.  0.
          5    1    5    5  501    0  0.38518096067E+02  0.30645228563E+02 -0.37271081431E+02  0.61919280271E+02  0.47000000000E+01 0. -1.
        -13    1    6    6    0    0  0.33408505190E+02 -0.29944543612E+01  0.20038638042E+01  0.33602238707E+02  0.00000000000E+00 0.  1.
         14    1    6    6    0    0  0.89103393008E+02  0.67374537663E+02  0.14909574742E+03  0.18630159653E+03  0.00000000000E+00 0. -1.
         -5    1    3    3    0  503 -0.46693859262E+01 -0.26861680667E+02 -0.84619766579E+02  0.89027793127E+02  0.47000000000E+01 0.  1.
         11    1    4    4    0    0 -0.10706791656E+03 -0.37832472563E+02 -0.73694730117E+02  0.13537262642E+03  0.00000000000E+00 0. -1.
        -12    1    4    4    0    0 -0.49292691780E+02 -0.30331158634E+02  0.28512813968E+02  0.64519215799E+02  0.00000000000E+00 0.  1.
</event>
<event>
12    1  0.1035051E+000  0.4201861E+03  0.7818608E-02  0.1037084E+00
         21   -1    0    0  501  502  0.00000000000E+00  0.00000000000E+00  0.28978594904E+03  0.28978594904E+03  0.00000000000E+00 0.  1.
         21   -1    0    0  502  503 -0.00000000000E+00 -0.00000000000E+00 -0.11279796032E+04  0.11279796032E+04  0.00000000000E+00 0. -1.
         -6    2    1    2    0  503  0.64818326840E+02 -0.37771948647E+03  0.62524888251E+02  0.42385898731E+03  0.16992249269E+03 0.  0.
        -24    2    3    3    0    0  0.13236053791E+02 -0.73548607388E+02  0.13259465285E+01  0.10929888965E+03  0.79748971001E+02 0.  0.
          6    2    1    2  501    0 -0.64818326840E+02  0.37771948647E+03 -0.90071854239E+03  0.99390656491E+03  0.17228737971E+03 0.  0.
         24    2    5    5    0    0 -0.71915035990E+02  0.39024333324E+03 -0.87579519264E+03  0.96474368813E+03  0.79066635242E+02 0.  0.
          5    1    5    5  501    0  0.70967091499E+01 -0.12523846774E+02 -0.24923349758E+02  0.29162876777E+02  0.47000000000E+01 0. -1.
        -13    1    6    6    0    0 -0.44165337950E+02  0.28482440871E+03 -0.71052515950E+03  0.76676040793E+03  0.00000000000E+00 0.  1.
         14    1    6    6    0    0 -0.27749698040E+02  0.10541892453E+03 -0.16527003313E+03  0.19798328021E+03  0.00000000000E+00 0. -1.
         -5    1    3    3    0  503  0.51582273049E+02 -0.30417087908E+03  0.61198941722E+02  0.31456009766E+03  0.47000000000E+01 0.  1.
         13    1    4    4    0    0  0.46995909079E+02 -0.41229125303E+02  0.21647796967E+01  0.62555115814E+02  0.00000000000E+00 0. -1.
        -14    1    4    4    0    0 -0.33759855288E+02 -0.32319482085E+02 -0.83883316825E+00  0.46743773835E+02  0.00000000000E+00 0.  1.
</event>
<event>
12    1  0.1035051E+000  0.2074169E+03  0.7818608E-02  0.1143686E+00
         21   -1    0    0  503  502  0.00000000000E+00  0.00000000000E+00  0.33084860192E+02  0.33084860192E+02  0.00000000000E+00 0.  1.
         21   -1    0    0  501  503 -0.00000000000E+00 -0.00000000000E+00 -0.17754902278E+04  0.17754902278E+04  0.00000000000E+00 0.  1.
          6    2    1    2  501    0  0.89349303888E+02 -0.73011763664E+02 -0.40207421843E+03  0.45228994999E+03  0.17201309833E+03 0.  0.
         24    2    3    3    0    0  0.32560756138E+02 -0.48129140787E+02 -0.36868447448E+03  0.38171340234E+03  0.80001642307E+02 0.  0.
         -6    2    1    2    0  502 -0.89349303888E+02  0.73011763664E+02 -0.13403311492E+04  0.13562851380E+04  0.17235942203E+03 0.  0.
        -24    2    5    5    0    0  0.99291350467E+01 -0.14467535406E+02 -0.31773961416E+03  0.32515741861E+03  0.66790621850E+02 0.  0.
          5    1    3    3  501    0  0.56788547751E+02 -0.24882622877E+02 -0.33389743946E+02  0.70576547646E+02  0.47000000000E+01 0. -1.
        -11    1    4    4    0    0 -0.20399382538E+02  0.42235237750E+01 -0.45224868181E+02  0.49792184758E+02  0.00000000000E+00 0.  1.
         12    1    4    4    0    0  0.52960138676E+02 -0.52352664562E+02 -0.32345960630E+03  0.33192121759E+03  0.00000000000E+00 0. -1.
         -5    1    5    5    0  502 -0.99278438935E+02  0.87479299070E+02 -0.10225915350E+04  0.10311277194E+04  0.47000000000E+01 0.  1.
         13    1    6    6    0    0  0.34362456019E+02 -0.23199613365E+02 -0.22812684294E+03  0.23186387583E+03  0.00000000000E+00 0. -1.
        -14    1    6    6    0    0 -0.24433320972E+02  0.87320779589E+01 -0.89612771223E+02  0.93293542786E+02  0.00000000000E+00 0.  1.
</event>
<event>
12    1  0.1035051E+000  0.1779307E+03  0.7818608E-02  0.1170045E+00
         21   -1    0    0  503  502  0.00000000000E+00  0.00000000000E+00  0.56712033205E+03  0.56712033205E+03  0.00000000000E+00 0. -1.
         21   -1    0    0  501  503 -0.00000000000E+00 -0.00000000000E+00 -0.55842666418E+02  0.55842666418E+02  0.00000000000E+00 0. -1.
          6    2    1    2  501    0  0.26896555620E+02  0.31521721783E+02  0.23205562527E+03  0.29186743294E+03  0.17210386846E+03 0.  0.
         24    2    3    3    0    0  0.92275558094E+01  0.75227814481E+02  0.21625183422E+03  0.24192480681E+03  0.77578247507E+02 0.  0.
         -6    2    1    2    0  502 -0.26896555620E+02 -0.31521721783E+02  0.27922204036E+03  0.33109556553E+03  0.17303838315E+03 0.  0.
        -24    2    5    5    0    0  0.71393058946E+01  0.39464866283E+02  0.20195484483E+03  0.22068793419E+03  0.79428959367E+02 0.  0.
          5    1    3    3  501    0  0.17668999810E+02 -0.43706092698E+02  0.15803791053E+02  0.49942626131E+02  0.47000000000E+01 0. -1.
        -13    1    4    4    0    0 -0.26488435336E+02  0.47222296364E+01  0.80067247024E+02  0.84467157554E+02  0.00000000000E+00 0.  1.
         14    1    4    4    0    0  0.35715991146E+02  0.70505584845E+02  0.13618458720E+03  0.15745764925E+03  0.00000000000E+00 0. -1.
         -5    1    5    5    0  502 -0.34035861514E+02 -0.70986588065E+02  0.77267195530E+02  0.11040763135E+03  0.47000000000E+01 0.  1.
         11    1    6    6    0    0 -0.52849711071E+01  0.37550588157E+02  0.20439459494E+03  0.20788248611E+03  0.00000000000E+00 0. -1.
        -12    1    6    6    0    0  0.12424277002E+02  0.19142781258E+01 -0.24397501133E+01  0.12805448074E+02  0.00000000000E+00 0.  1.
</event>
<event>
12    1  0.1035051E+000  0.2148439E+03  0.7818608E-02  0.1138137E+00
         21   -1    0    0  501  502  0.00000000000E+00  0.00000000000E+00  0.45146824937E+03  0.45146824937E+03  0.00000000000E+00 0.  1.
         21   -1    0    0  502  503 -0.00000000000E+00 -0.00000000000E+00 -0.38275458164E+03  0.38275458164E+03  0.00000000000E+00 0.  1.
         -6    2    1    2    0  503  0.12504332906E+03  0.24149339395E+02  0.39202556747E+03  0.44703684585E+03  0.17302852731E+03 0.  0.
        -24    2    3    3    0    0  0.75164480400E+02  0.13707620826E+02  0.37856731012E+03  0.39412046161E+03  0.78613815487E+02 0.  0.
          6    2    1    2  501    0 -0.12504332906E+03 -0.24149339395E+02 -0.32331189974E+03  0.38718598516E+03  0.17077288384E+03 0.  0.
         24    2    5    5    0    0 -0.64794168804E+02 -0.57471733478E+02 -0.10322224881E+03  0.15653064118E+03  0.79660055987E+02 0.  0.
          5    1    5    5  501    0 -0.60249160252E+02  0.33322394083E+02 -0.22008965093E+03  0.23065534397E+03  0.47000000000E+01 0. -1.
        -11    1    6    6    0    0  0.77208988635E+01 -0.95151333220E+01 -0.56538550906E+02  0.57851169218E+02  0.00000000000E+00 0.  1.
         12    1    6    6    0    0 -0.72515067667E+02 -0.47956600156E+02 -0.46683697905E+02  0.98679471966E+02  0.00000000000E+00 0. -1.
         -5    1    3    3    0  503  0.49878848656E+02  0.10441718569E+02  0.13458257346E+02  0.52916384237E+02  0.47000000000E+01 0.  1.
         11    1    4    4    0    0  0.74212922311E+02 -0.19152744333E+02  0.27275625298E+03  0.28332024106E+03  0.00000000000E+00 0. -1.
        -12    1    4    4    0    0  0.95155808831E+00  0.32860365159E+02  0.10581105714E+03  0.11080022055E+03  0.00000000000E+00 0.  1.
</event>
<event>
12    1  0.1035051E+000  0.2358230E+03  0.7818608E-02  0.1122790E+00
         21   -1    0    0  501  502  0.00000000000E+00  0.00000000000E+00  0.27348584375E+03  0.27348584375E+03  0.00000000000E+00 0. -1.
         21   -1    0    0  502  503 -0.00000000000E+00 -0.00000000000E+00 -0.20745216542E+03  0.20745216542E+03  0.00000000000E+00 0.  1.
         -6    2    1    2    0  503 -0.14762889130E+03 -0.63894234185E+02 -0.44923193248E+01  0.23479494100E+03  0.17097286532E+03 0.  0.
        -24    2    3    3    0    0 -0.55324458232E+02  0.23828733763E+02 -0.29135641560E+02  0.10500738072E+03  0.80926263760E+02 0.  0.
          6    2    1    2  501    0  0.14762889130E+03  0.63894234185E+02  0.70525997653E+02  0.24614306818E+03  0.17244051426E+03 0.  0.
         24    2    5    5    0    0  0.14356951904E+03  0.37194162963E+02 -0.49411586536E+01  0.16585138749E+03  0.74071959116E+02 0.  0.
          5    1    5    5  501    0  0.40593722626E+01  0.26700071223E+02  0.75467156307E+02  0.80291680687E+02  0.47000000000E+01 0. -1.
        -11    1    6    6    0    0  0.12981397179E+03  0.56265809974E+01  0.49322988956E+01  0.13002943228E+03  0.00000000000E+00 0.  1.
         12    1    6    6    0    0  0.13755547250E+02  0.31567581965E+02 -0.98734575492E+01  0.35821955213E+02  0.00000000000E+00 0. -1.
         -5    1    3    3    0  503 -0.92304433072E+02 -0.87722967948E+02  0.24643322236E+02  0.12978756027E+03  0.47000000000E+01 0.  1.
         11    1    4    4    0    0 -0.75021303531E+01 -0.14598127100E+02  0.20381571317E+02  0.26168601874E+02  0.00000000000E+00 0. -1.
        -12    1    4    4    0    0 -0.47822327879E+02  0.38426860864E+02 -0.49517212878E+02  0.78838778851E+02  0.00000000000E+00 0.  1.
</event>
<event>
12    1  0.1035051E+000  0.2705686E+03  0.7818608E-02  0.1100997E+00
         21   -1    0    0  501  502  0.00000000000E+00  0.00000000000E+00  0.41850621672E+03  0.41850621672E+03  0.00000000000E+00 0. -1.
         21   -1    0    0  502  503 -0.00000000000E+00 -0.00000000000E+00 -0.22312287442E+03  0.22312287442E+03  0.00000000000E+00 0. -1.
         -6    2    1    2    0  503  0.18183016469E+01  0.20827287039E+03 -0.51754632961E+02  0.27518049846E+03  0.17223492660E+03 0.  0.
        -24    2    3    3    0    0 -0.61302694575E+02  0.14947610814E+03 -0.54716795257E+02  0.18873870405E+03  0.80791357572E+02 0.  0.
          6    2    1    2  501    0 -0.18183016469E+01 -0.20827287039E+03  0.24713797526E+03  0.36644859268E+03  0.17270349590E+03 0.  0.
         24    2    5    5    0    0  0.22380380139E+02 -0.22155377191E+03  0.24194514455E+03  0.33797028451E+03  0.78099327637E+02 0.  0.
          5    1    5    5  501    0 -0.24198681786E+02  0.13280901517E+02  0.51928307065E+01  0.28478308166E+02  0.47000000000E+01 0. -1.
        -13    1    6    6    0    0  0.89595086905E+01 -0.19582786228E+03  0.23853863667E+03  0.30875476616E+03  0.00000000000E+00 0.  1.
         14    1    6    6    0    0  0.13420871448E+02 -0.25725909624E+02  0.34065078816E+01  0.29215518348E+02  0.00000000000E+00 0. -1.
         -5    1    3    3    0  503  0.63120996222E+02  0.58796762251E+02  0.29621622966E+01  0.86441794410E+02  0.47000000000E+01 0.  1.
         13    1    4    4    0    0 -0.12221162593E+02  0.19990200383E+02 -0.43999042378E+02  0.49848577278E+02  0.00000000000E+00 0. -1.
        -14    1    4    4    0    0 -0.49081531982E+02  0.12948590776E+03 -0.10717752879E+02  0.13889012678E+03  0.00000000000E+00 0.  1.
</event>
<event>
12    1  0.1035051E+000  0.2483202E+03  0.7818608E-02  0.1114515E+00
         21   -1    0    0  501  502  0.00000000000E+00  0.00000000000E+00  0.20791410613E+03  0.20791410613E+03  0.00000000000E+00 0.  1.
         21   -1    0    0  502  503 -0.00000000000E+00 -0.00000000000E+00 -0.36475050651E+03  0.36475050651E+03  0.00000000000E+00 0.  1.
         -6    2    1    2    0  503  0.48989590267E+02  0.17250161434E+03 -0.20329188395E+03  0.32092132289E+03  0.17177345109E+03 0.  0.
        -24    2    3    3    0    0  0.14180697865E+02  0.52421021434E+02 -0.16296195365E+03  0.18946942651E+03  0.79956297840E+02 0.  0.
          6    2    1    2  501    0 -0.48989590267E+02 -0.17250161434E+03  0.46455483574E+02  0.25174328975E+03  0.17046930830E+03 0.  0.
         24    2    5    5    0    0 -0.81014356877E+02 -0.12318554234E+03  0.77097576035E+02  0.18527007360E+03  0.81504356208E+02 0.  0.
          5    1    5    5  501    0  0.32024766610E+02 -0.49316072007E+02 -0.30642092461E+02  0.66473216147E+02  0.47000000000E+01 0. -1.
        -13    1    6    6    0    0 -0.14596256982E+01  0.10619781766E+02 -0.16013910315E+01  0.10838575791E+02  0.00000000000E+00 0.  1.
         14    1    6    6    0    0 -0.79554731179E+02 -0.13380532410E+03  0.78698967066E+02  0.17443149781E+03  0.00000000000E+00 0. -1.
         -5    1    3    3    0  503  0.34808892402E+02  0.12008059291E+03 -0.40329930304E+02  0.13145189638E+03  0.47000000000E+01 0.  1.
         11    1    4    4    0    0  0.35419412465E+02 -0.20658624952E+01 -0.41055980749E+02  0.54262290059E+02  0.00000000000E+00 0. -1.
        -12    1    4    4    0    0 -0.21238714600E+02  0.54486883929E+02 -0.12190597290E+03  0.13520713645E+03  0.00000000000E+00 0.  1.
</event>
<event>
12    1  0.1035051E+000  0.1813240E+03  0.7818608E-02  0.1166824E+00
         21   -1    0    0  501  502  0.00000000000E+00  0.00000000000E+00  0.15005925278E+03  0.15005925278E+03  0.00000000000E+00 0. -1.
         21   -1    0    0  502  503 -0.00000000000E+00 -0.00000000000E+00 -0.31649610771E+03  0.31649610771E+03  0.00000000000E+00 0. -1.
         -6    2    1    2    0  503 -0.72978208058E+01  0.57871605290E+02  0.47363650891E+02  0.18621797205E+03  0.17038614028E+03 0.  0.
        -24    2    3    3    0    0 -0.13957601656E+02  0.85241139434E+02  0.80955520680E+02  0.14212774868E+03  0.78648802417E+02 0.  0.
          6    2    1    2  501    0  0.72978208058E+01 -0.57871605290E+02 -0.21380050582E+03  0.28033738844E+03  0.17168580075E+03 0.  0.
         24    2    5    5    0    0  0.33894477262E+02 -0.57246529352E+02 -0.62414405077E+02  0.12655958005E+03  0.87725530088E+02 0.  0.
          5    1    5    5  501    0 -0.26596656456E+02 -0.62507593779E+00 -0.15138610074E+03  0.15377780839E+03  0.47000000000E+01 0. -1.
        -11    1    6    6    0    0  0.13377395006E+02  0.21927504652E+02 -0.38682524950E+01  0.25975633482E+02  0.00000000000E+00 0.  1.
         12    1    6    6    0    0  0.20517082256E+02 -0.79174034004E+02 -0.58546152582E+02  0.10058394657E+03  0.00000000000E+00 0. -1.
         -5    1    3    3    0  503  0.66597808499E+01 -0.27369534144E+02 -0.33591869790E+02  0.44090223363E+02  0.47000000000E+01 0.  1.
         13    1    4    4    0    0 -0.32775105166E+02  0.90333830119E+02  0.74500152822E+02  0.12159227423E+03  0.00000000000E+00 0. -1.
        -14    1    4    4    0    0  0.18817503511E+02 -0.50926906846E+01  0.64553678581E+01  0.20535474452E+02  0.00000000000E+00 0.  1.
</event>
<event>
12    1  0.1035051E+000  0.2031096E+03  0.7818608E-02  0.1147239E+00
         21   -1    0    0  501  502  0.00000000000E+00  0.00000000000E+00  0.27183387875E+03  0.27183387875E+03  0.00000000000E+00 0. -1.
         21   -1    0    0  502  503 -0.00000000000E+00 -0.00000000000E+00 -0.15461625248E+03  0.15461625248E+03  0.00000000000E+00 0. -1.
         -6    2    1    2    0  503 -0.10782107460E+03 -0.13634472589E+01  0.27831475125E+02  0.20454164972E+03  0.17156763199E+03 0.  0.
        -24    2    3    3    0    0  0.17989501809E+02 -0.45568903176E+02  0.11670233299E+02  0.70132947598E+02  0.48808696781E+02 0.  0.
          6    2    1    2  501    0  0.10782107460E+03  0.13634472589E+01  0.89386151149E+02  0.22190848151E+03  0.17212276733E+03 0.  0.
         24    2    5    5    0    0  0.11363525797E+03 -0.28170173385E+02  0.11852374662E+03  0.17975247427E+03  0.67502170124E+02 0.  0.
          5    1    5    5  501    0 -0.58141833673E+01  0.29533620644E+02 -0.29137595469E+02  0.42156007239E+02  0.47000000000E+01 0. -1.
        -13    1    6    6    0    0  0.82647678285E+02 -0.35665371931E+01  0.40141153093E+02  0.91949285397E+02  0.00000000000E+00 0.  1.
         14    1    6    6    0    0  0.30987579686E+02 -0.24603636192E+02  0.78382593525E+02  0.87803188874E+02  0.00000000000E+00 0. -1.
         -5    1    3    3    0  503 -0.12581057641E+03  0.44205455917E+02  0.16161241826E+02  0.13440870213E+03  0.47000000000E+01 0.  1.
         13    1    4    4    0    0  0.30951566230E+02 -0.38303124090E+02 -0.28881649516E+01  0.49330216541E+02  0.00000000000E+00 0. -1.
        -14    1    4    4    0    0 -0.12962064421E+02 -0.72657790857E+01  0.14558398251E+02  0.20802731057E+02  0.00000000000E+00 0.  1.
</event>
<event>
12    1  0.1035051E+000  0.2112468E+03  0.7818608E-02  0.1141124E+00
         21   -1    0    0  501  502  0.00000000000E+00  0.00000000000E+00  0.32178210510E+03  0.32178210510E+03  0.00000000000E+00 0.  1.
         21   -1    0    0  502  503 -0.00000000000E+00 -0.00000000000E+00 -0.43282178910E+03  0.43282178910E+03  0.00000000000E+00 0.  1.
         -6    2    1    2    0  503 -0.87529462159E+02  0.86872927550E+02 -0.36761493461E+03  0.42398817331E+03  0.17151361077E+03 0.  0.
        -24    2    3    3    0    0 -0.22326434472E+02 -0.12458467489E+02 -0.21497352651E+03  0.23049489093E+03  0.79123919012E+02 0.  0.
          6    2    1    2  501    0  0.87529462159E+02 -0.86872927550E+02  0.25657525060E+03  0.33061572089E+03  0.16812966244E+03 0.  0.
         24    2    5    5    0    0  0.65862120908E+02  0.38439905548E+01  0.81988531324E+02  0.13262166680E+03  0.80708066522E+02 0.  0.
          5    1    5    5  501    0  0.21667341251E+02 -0.90716918105E+02  0.17458671928E+03  0.19799405409E+03  0.47000000000E+01 0. -1.
        -13    1    6    6    0    0  0.71031097856E+02  0.28770733298E+02  0.72374036119E+02  0.10540954919E+03  0.00000000000E+00 0.  1.
         14    1    6    6    0    0 -0.51689769475E+01 -0.24926742743E+02  0.96144952049E+01  0.27212117604E+02  0.00000000000E+00 0. -1.
         -5    1    3    3    0  503 -0.65203027687E+02  0.99331395039E+02 -0.15264140810E+03  0.19349328238E+03  0.47000000000E+01 0.  1.
         11    1    4    4    0    0 -0.34041882396E+01  0.31691848345E+02 -0.11867902758E+03  0.12288479701E+03  0.00000000000E+00 0. -1.
        -12    1    4    4    0    0 -0.18922246232E+02 -0.44150315834E+02 -0.96294498929E+02  0.10761009393E+03  0.00000000000E+00 0.  1.
</event>
<event>
12    1  0.1035051E+000  0.2362279E+03  0.7818608E-02  0.1122695E+00
         21   -1    0    0  503  502  0.00000000000E+00  0.00000000000E+00  0.32955361278E+02  0.32955361278E+02  0.00000000000E+00 0. -1.
         21   -1    0    0  501  503 -0.00000000000E+00 -0.00000000000E+00 -0.16903014984E+04  0.16903014984E+04  0.00000000000E+00 0. -1.
          6    2    1    2  501    0 -0.12256315309E+03 -0.10556434933E+03 -0.75916025968E+03  0.79506471898E+03  0.17215704793E+03 0.  0.
         24    2    3    3    0    0  0.21231974598E+01 -0.52568506071E+02 -0.23724987951E+03  0.25583584333E+03  0.79978232063E+02 0.  0.
         -6    2    1    2    0  502  0.12256315309E+03  0.10556434933E+03 -0.89818587742E+03  0.92819214068E+03  0.16922535644E+03 0.  0.
        -24    2    5    5    0    0  0.32439580355E+02  0.11170301247E+03 -0.47295367545E+03  0.49344571211E+03  0.79206075005E+02 0.  0.
          5    1    3    3  501    0 -0.12468635055E+03 -0.52995843259E+02 -0.52191038016E+03  0.53922887565E+03  0.47000000000E+01 0. -1.
        -13    1    4    4    0    0 -0.18474578593E+02 -0.67286402504E+02 -0.16028359904E+03  0.17481304911E+03  0.00000000000E+00 0.  1.
         14    1    4    4    0    0  0.20597776053E+02  0.14717896433E+02 -0.76966280471E+02  0.81022794220E+02  0.00000000000E+00 0. -1.
         -5    1    5    5    0  502  0.90123572740E+02 -0.61386631367E+01 -0.42523220198E+03  0.43474642856E+03  0.47000000000E+01 0.  1.
         13    1    6    6    0    0  0.25742143675E+02  0.58916192701E+02 -0.11669022870E+03  0.13323057156E+03  0.00000000000E+00 0. -1.
        -14    1    6    6    0    0  0.66974366797E+01  0.52786819766E+02 -0.35626344674E+03  0.36021514055E+03  0.00000000000E+00 0.  1.
</event>
<event>
12    1  0.1035051E+000  0.1939548E+03  0.7818608E-02  0.1155602E+00
         21   -1    0    0  503  502  0.00000000000E+00  0.00000000000E+00  0.15418419363E+03  0.15418419363E+03  0.00000000000E+00 0. -1.
         21   -1    0    0  501  503 -0.00000000000E+00 -0.00000000000E+00 -0.25668786255E+03  0.25668786255E+03  0.00000000000E+00 0. -1.
          6    2    1    2  501    0  0.66186814837E+02 -0.50579969224E+02  0.36551936731E+00  0.19395510088E+03  0.17515541616E+03 0.  0.
         24    2    3    3    0    0  0.83008625206E+00 -0.35837852374E+02  0.58411699205E+02  0.10518415420E+03  0.79791847863E+02 0.  0.
         -6    2    1    2    0  502 -0.66186814837E+02  0.50579969224E+02 -0.10286918828E+03  0.21691695530E+03  0.17184838624E+03 0.  0.
        -24    2    5    5    0    0 -0.29005048451E+02 -0.26068456703E+02 -0.25859513158E+01  0.85249637545E+02  0.75762499212E+02 0.  0.
          5    1    3    3  501    0  0.65356728585E+02 -0.14742116850E+02 -0.58046179838E+02  0.88770946679E+02  0.47000000000E+01 0. -1.
        -13    1    4    4    0    0  0.11839911068E+02 -0.47735527960E+02  0.69790410843E+02  0.85378952731E+02  0.00000000000E+00 0.  1.
         14    1    4    4    0    0 -0.11009824816E+02  0.11897675586E+02 -0.11378711638E+02  0.19805201472E+02  0.00000000000E+00 0. -1.
         -5    1    5    5    0  502 -0.37181766385E+02  0.76648425927E+02 -0.10028323696E+03  0.13166731775E+03  0.47000000000E+01 0.  1.
         11    1    6    6    0    0 -0.20224228240E+02 -0.24448488368E+02  0.34635625191E+02  0.46972061098E+02  0.00000000000E+00 0. -1.
        -12    1    6    6    0    0 -0.87808202110E+01 -0.16199683350E+01 -0.37221576507E+02  0.38277576447E+02  0.00000000000E+00 0.  1.
</event>
<event>
12    1  0.1035051E+000  0.1742289E+03  0.7818608E-02  0.1173998E+00
         21   -1    0    0  503  502  0.00000000000E+00  0.00000000000E+00  0.88023102596E+02  0.88023102596E+02  0.00000000000E+00 0.  1.
         21   -1    0    0  501  503 -0.00000000000E+00 -0.00000000000E+00 -0.39274317465E+03  0.39274317465E+03  0.00000000000E+00 0.  1.
          6    2    1    2  501    0  0.11219026242E+02  0.47723152518E+01 -0.23882837035E+03  0.29449385236E+03  0.17186912768E+03 0.  0.
         24    2    3    3    0    0  0.29448828141E+02 -0.52783958683E+02 -0.19628051464E+03  0.22048398564E+03  0.80210770611E+02 0.  0.
         -6    2    1    2    0  502 -0.11219026242E+02 -0.47723152518E+01 -0.65891701703E+02  0.18627242489E+03  0.17380177898E+03 0.  0.
        -24    2    5    5    0    0 -0.44578828973E+02  0.51729844220E+02 -0.58802647807E+02  0.12010812070E+03  0.79403781356E+02 0.  0.
          5    1    3    3  501    0 -0.18229801898E+02  0.57556273935E+02 -0.42547855709E+02  0.74009866720E+02  0.47000000000E+01 0. -1.
        -13    1    4    4    0    0 -0.14611464723E+02 -0.84009056875E+01 -0.12298096742E+03  0.12413052995E+03  0.00000000000E+00 0.  1.
         14    1    4    4    0    0  0.44060292864E+02 -0.44383052996E+02 -0.73299547219E+02  0.96353455688E+02  0.00000000000E+00 0. -1.
         -5    1    5    5    0  502  0.33359802731E+02 -0.56502159472E+02 -0.70890538957E+01  0.66164304186E+02  0.47000000000E+01 0.  1.
         13    1    6    6    0    0  0.16684496551E+02  0.14488474623E+02 -0.40465258268E+02  0.46105590212E+02  0.00000000000E+00 0. -1.
        -14    1    6    6    0    0 -0.61263325524E+02  0.37241369597E+02 -0.18337389539E+02  0.74002530490E+02  0.00000000000E+00 0.  1.
</event>
<event>
12    1  0.1035051E+000  0.1855117E+03  0.7818608E-02  0.1162756E+00
         21   -1    0    0  503  502  0.00000000000E+00  0.00000000000E+00  0.45246703160E+03  0.45246703160E+03  0.00000000000E+00 0.  1.
         21   -1    0    0  501  503 -0.00000000000E+00 -0.00000000000E+00 -0.86684715515E+02  0.86684715515E+02  0.00000000000E+00 0.  1.
          6    2    1    2  501    0 -0.91382350096E+01 -0.69862273061E+02  0.27834622351E+03  0.33406726657E+03  0.17076321008E+03 0.  0.
         24    2    3    3    0    0 -0.41589290062E+00  0.25329835983E+02  0.16631114383E+03  0.18671881577E+03  0.81010777316E+02 0.  0.
         -6    2    1    2    0  502  0.91382350096E+01  0.69862273061E+02  0.87436092578E+02  0.20508448054E+03  0.17161098257E+03 0.  0.
        -24    2    5    5    0    0  0.15258254282E+02  0.87587389853E+02  0.14004251003E+02  0.12915056350E+03  0.92624963268E+02 0.  0.
          5    1    3    3  501    0 -0.87223421090E+01 -0.95192109044E+02  0.11203507968E+03  0.14734845081E+03  0.47000000000E+01 0. -1.
        -13    1    4    4    0    0  0.31760873905E+02  0.31561875806E+02  0.56330548617E+02  0.71958570185E+02  0.00000000000E+00 0.  1.
         14    1    4    4    0    0 -0.32176766806E+02 -0.62320398236E+01  0.10998059521E+03  0.11476024558E+03  0.00000000000E+00 0. -1.
         -5    1    5    5    0  502 -0.61200192728E+01 -0.17725116792E+02  0.73431841574E+02  0.75933917048E+02  0.47000000000E+01 0.  1.
         11    1    6    6    0    0 -0.21898083633E+02  0.56809508573E+02  0.41438921456E+02  0.73648017913E+02  0.00000000000E+00 0. -1.
        -12    1    6    6    0    0  0.37156337915E+02  0.30777881280E+02 -0.27434670453E+02  0.55502545584E+02  0.00000000000E+00 0.  1.
</event>
<event>
12    1  0.1035051E+000  0.3777287E+03  0.7818608E-02  0.1052010E+00
         21   -1    0    0  501  502  0.00000000000E+00  0.00000000000E+00  0.81907456022E+03  0.81907456022E+03  0.00000000000E+00 0. -1.
         21   -1    0    0  502  503 -0.00000000000E+00 -0.00000000000E+00 -0.19133648364E+03  0.19133648364E+03  0.00000000000E+00 0. -1.
         -6    2    1    2    0  503  0.23705060513E+03 -0.23531185240E+03  0.46913030788E+03  0.60073381406E+03  0.17097722747E+03 0.  0.
        -24    2    3    3    0    0  0.69310578675E+02 -0.39658096490E+02  0.12751106213E+03  0.17278182173E+03  0.84957436523E+02 0.  0.
          6    2    1    2  501    0 -0.23705060513E+03  0.23531185240E+03  0.15860776871E+03  0.40967722980E+03  0.17639260486E+03 0.  0.
         24    2    5    5    0    0 -0.11447586653E+03  0.13512329309E+03  0.16397290347E+03  0.25120581714E+03  0.69672240820E+02 0.  0.
          5    1    5    5  501    0 -0.12257473860E+03  0.10018855931E+03 -0.53651347593E+01  0.15847141266E+03  0.47000000000E+01 0. -1.
        -13    1    6    6    0    0 -0.60368082675E+02  0.44600236969E+02  0.30304925162E+02  0.80943653443E+02  0.00000000000E+00 0.  1.
         14    1    6    6    0    0 -0.54107783857E+02  0.90523056122E+02  0.13366797831E+03  0.17026216370E+03  0.00000000000E+00 0. -1.
         -5    1    3    3    0  503  0.16774002645E+03 -0.19565375591E+03  0.34161924575E+03  0.42795199233E+03  0.47000000000E+01 0.  1.
         11    1    4    4    0    0 -0.19860315118E+02 -0.10510567055E+02  0.19856562681E+02  0.29986450572E+02  0.00000000000E+00 0. -1.
        -12    1    4    4    0    0  0.89170893793E+02 -0.29147529435E+02  0.10765449945E+03  0.14279537115E+03  0.00000000000E+00 0.  1.
</event>
<event>
12    1  0.1035051E+000  0.3650016E+03  0.7818608E-02  0.1056659E+00
         21   -1    0    0  501  502  0.00000000000E+00  0.00000000000E+00  0.54100296018E+03  0.54100296018E+03  0.00000000000E+00 0. -1.
         21   -1    0    0  502  503 -0.00000000000E+00 -0.00000000000E+00 -0.47878435894E+03  0.47878435894E+03  0.00000000000E+00 0. -1.
         -6    2    1    2    0  503  0.21692319820E+02 -0.32130667229E+03  0.38665889927E+03  0.53172481568E+03  0.17180698716E+03 0.  0.
        -24    2    3    3    0    0 -0.28972669349E+01 -0.55084527454E+02  0.10840486872E+03  0.14581514530E+03  0.80422271279E+02 0.  0.
          6    2    1    2  501    0 -0.21692319820E+02  0.32130667229E+03 -0.32444029803E+03  0.48806250344E+03  0.17098235548E+03 0.  0.
         24    2    5    5    0    0 -0.47505339424E+02  0.31572572376E+03 -0.32341439569E+03  0.46121848282E+03  0.78651939816E+02 0.  0.
          5    1    5    5  501    0  0.25813019604E+02  0.55809485227E+01 -0.10259023407E+01  0.26844020621E+02  0.47000000000E+01 0. -1.
        -13    1    6    6    0    0 -0.13227649583E+02  0.80658817733E+02 -0.13585235880E+03  0.15854551077E+03  0.00000000000E+00 0.  1.
         14    1    6    6    0    0 -0.34277689841E+02  0.23506690603E+03 -0.18756203688E+03  0.30267297205E+03  0.00000000000E+00 0. -1.
         -5    1    3    3    0  503  0.24589586755E+02 -0.26622214483E+03  0.27825403055E+03  0.38590967038E+03  0.47000000000E+01 0.  1.
         11    1    4    4    0    0 -0.40423368727E+02 -0.17945558698E+02  0.42142050645E+02  0.61090459556E+02  0.00000000000E+00 0. -1.
        -12    1    4    4    0    0  0.37526101792E+02 -0.37138968756E+02  0.66262818074E+02  0.84724685748E+02  0.00000000000E+00 0.  1.
</event>
<event>
12    1  0.1035051E+000  0.1727482E+03  0.7818608E-02  0.1175198E+00
         21   -1    0    0  501  502  0.00000000000E+00  0.00000000000E+00  0.32603425354E+03  0.32603425354E+03  0.00000000000E+00 0.  1.
         21   -1    0    0  502  503 -0.00000000000E+00 -0.00000000000E+00 -0.91202758777E+02  0.91202758777E+02  0.00000000000E+00 0.  1.
         -6    2    1    2    0  503  0.44618818470E+01  0.10739239996E+02  0.11239978741E+03  0.20609619198E+03  0.17235628354E+03 0.  0.
        -24    2    3    3    0    0  0.22627559889E+02  0.67189446404E+02  0.77983802496E+02  0.13737088602E+03  0.88107086542E+02 0.  0.
          6    2    1    2  501    0 -0.44618818470E+01 -0.10739239996E+02  0.12243170736E+03  0.21114082034E+03  0.17162658122E+03 0.  0.
         24    2    5    5    0    0  0.18636387615E+02 -0.50334931519E+02  0.18865716163E+02  0.97785832044E+02  0.79531336137E+02 0.  0.
          5    1    5    5  501    0 -0.23098269462E+02  0.39595691523E+02  0.10356599119E+03  0.11335498830E+03  0.47000000000E+01 0. -1.
        -13    1    6    6    0    0  0.40081410203E+02 -0.35263295185E+02  0.37832536503E+02  0.65431798457E+02  0.00000000000E+00 0.  1.
         14    1    6    6    0    0 -0.21445022587E+02 -0.15071636334E+02 -0.18966820339E+02  0.32354033587E+02  0.00000000000E+00 0. -1.
         -5    1    3    3    0  503 -0.18165678042E+02 -0.56450206408E+02  0.34415984911E+02  0.68725305963E+02  0.47000000000E+01 0.  1.
         13    1    4    4    0    0  0.31691035635E+02  0.84767659084E+01 -0.71333818714E+01  0.33571750577E+02  0.00000000000E+00 0. -1.
        -14    1    4    4    0    0 -0.90634757457E+01  0.58712680495E+02  0.85117184368E+02  0.10379913544E+03  0.00000000000E+00 0.  1.
</event>
<event>
12    1  0.1035051E+000  0.1839219E+03  0.7818608E-02  0.1164618E+00
         21   -1    0    0  503  502  0.00000000000E+00  0.00000000000E+00  0.91995552171E+02  0.91995552171E+02  0.00000000000E+00 0. -1.
         21   -1    0    0  501  503 -0.00000000000E+00 -0.00000000000E+00 -0.44341781618E+03  0.44341781618E+03  0.00000000000E+00 0. -1.
          6    2    1    2  501    0  0.55175415485E+02 -0.19685029879E+02 -0.29063043485E+03  0.34393795636E+03  0.17434288424E+03 0.  0.
         24    2    3    3    0    0  0.88556103411E+02 -0.18790381473E+02 -0.28526400970E+03  0.30979181102E+03  0.80000931636E+02 0.  0.
         -6    2    1    2    0  502 -0.55175415485E+02  0.19685029879E+02 -0.60791829154E+02  0.19147541199E+03  0.17185854657E+03 0.  0.
        -24    2    5    5    0    0 -0.34083000067E+02 -0.38821940787E+02 -0.81291065689E+02  0.12582280882E+03  0.80958927107E+02 0.  0.
          5    1    3    3  501    0 -0.33380687926E+02 -0.89464840613E+00 -0.53664251582E+01  0.34146145334E+02  0.47000000000E+01 0. -1.
        -11    1    4    4    0    0  0.50953774615E+02  0.29473830033E+02 -0.15730298677E+03  0.16795601642E+03  0.00000000000E+00 0.  1.
         12    1    4    4    0    0  0.37602328796E+02 -0.48264211507E+02 -0.12796102293E+03  0.14183579461E+03  0.00000000000E+00 0. -1.
         -5    1    5    5    0  502 -0.21092415418E+02  0.58506970667E+02  0.20499236535E+02  0.65652603172E+02  0.47000000000E+01 0.  1.
         11    1    6    6    0    0 -0.32436128987E+02 -0.37364184461E+02 -0.52577610798E+01  0.49757700868E+02  0.00000000000E+00 0. -1.
        -12    1    6    6    0    0 -0.16468710794E+01 -0.14577563265E+01 -0.76033304609E+02  0.76065107951E+02  0.00000000000E+00 0.  1.
</event>
<event>
12    1  0.1035051E+000  0.1807843E+03  0.7818608E-02  0.1167477E+00
         21   -1    0    0  503  502  0.00000000000E+00  0.00000000000E+00  0.56419440344E+02  0.56419440344E+02  0.00000000000E+00 0. -1.
         21   -1    0    0  501  503 -0.00000000000E+00 -0.00000000000E+00 -0.59375569852E+03  0.59375569852E+03  0.00000000000E+00 0. -1.
          6    2    1    2  501    0  0.53057322488E+02 -0.19415616787E+02 -0.32987190155E+03  0.37616280041E+03  0.17172925009E+03 0.  0.
         24    2    3    3    0    0  0.54125980891E+02 -0.46413738364E+02 -0.10735804290E+03  0.15196523599E+03  0.80522212205E+02 0.  0.
         -6    2    1    2    0  502 -0.53057322488E+02  0.19415616787E+02 -0.20746435662E+03  0.27401233845E+03  0.16985068946E+03 0.  0.
        -24    2    5    5    0    0 -0.71409139858E+02  0.67495822311E+02 -0.15049809084E+03  0.19709848533E+03  0.80889964084E+02 0.  0.
          5    1    3    3  501    0 -0.10686584024E+01  0.26998121577E+02 -0.22251385865E+03  0.22419756442E+03  0.47000000000E+01 0. -1.
        -11    1    4    4    0    0  0.71222689449E+02 -0.53446122496E+02 -0.87759927563E+02  0.12502385528E+03  0.00000000000E+00 0.  1.
         12    1    4    4    0    0 -0.17096708558E+02  0.70323841324E+01 -0.19598115336E+02  0.26941380715E+02  0.00000000000E+00 0. -1.
         -5    1    5    5    0  502  0.18351817370E+02 -0.48080205524E+02 -0.56966265778E+02  0.76913853113E+02  0.47000000000E+01 0.  1.
         11    1    6    6    0    0  0.42863141549E+01 -0.14826579893E+02 -0.18793679134E+02  0.24318765095E+02  0.00000000000E+00 0. -1.
        -12    1    6    6    0    0 -0.75695454013E+02  0.82322402204E+02 -0.13170441171E+03  0.17277972024E+03  0.00000000000E+00 0.  1.
</event>
<event>
12    1  0.1035051E+000  0.2285144E+03  0.7818608E-02  0.1127844E+00
         21   -1    0    0  501  502  0.00000000000E+00  0.00000000000E+00  0.26810868367E+03  0.26810868367E+03  0.00000000000E+00 0.  1.
         21   -1    0    0  502  503 -0.00000000000E+00 -0.00000000000E+00 -0.19414694213E+03  0.19414694213E+03  0.00000000000E+00 0.  1.
         -6    2    1    2    0  503  0.78146136233E+02 -0.12768238624E+03  0.42589212407E+02  0.23159773211E+03  0.17150527146E+03 0.  0.
        -24    2    3    3    0    0  0.48622842259E+02 -0.92906148987E+02 -0.39861838344E+02  0.13725115117E+03  0.79077044914E+02 0.  0.
          6    2    1    2  501    0 -0.78146136233E+02  0.12768238624E+03  0.31372529141E+02  0.23065789369E+03  0.17265346210E+03 0.  0.
         24    2    5    5    0    0  0.22338356699E+02  0.52799356756E+02 -0.12243720621E+02  0.97883390617E+02  0.78386703018E+02 0.  0.
          5    1    5    5  501    0 -0.10048449293E+03  0.74883029480E+02  0.43616249763E+02  0.13277450308E+03  0.47000000000E+01 0. -1.
        -13    1    6    6    0    0  0.21181113252E+02 -0.14219726848E+02  0.97903259594E+01  0.27325641303E+02  0.00000000000E+00 0.  1.
         14    1    6    6    0    0  0.11572434479E+01  0.67019083604E+02 -0.22034046581E+02  0.70557749314E+02  0.00000000000E+00 0. -1.
         -5    1    3    3    0  503  0.29523293975E+02 -0.34776237249E+02  0.82451050751E+02  0.94346580935E+02  0.47000000000E+01 0.  1.
         13    1    4    4    0    0  0.16604791385E+01 -0.18259517202E+02 -0.45323502808E+02  0.48891584820E+02  0.00000000000E+00 0. -1.
        -14    1    4    4    0    0  0.46962363120E+02 -0.74646631786E+02  0.54616644648E+01  0.88359566350E+02  0.00000000000E+00 0.  1.
</event>
<event>
12    1  0.1035051E+000  0.3537554E+03  0.7818608E-02  0.1061682E+00
         21   -1    0    0  503  502  0.00000000000E+00  0.00000000000E+00  0.34639508677E+03  0.34639508677E+03  0.00000000000E+00 0.  1.
         21   -1    0    0  501  503 -0.00000000000E+00 -0.00000000000E+00 -0.35731190833E+03  0.35731190833E+03  0.00000000000E+00 0.  1.
          6    2    1    2  501    0  0.20398583526E+03 -0.23148170652E+03  0.20839834673E+02  0.34852904125E+03  0.16076129026E+03 0.  0.
         24    2    3    3    0    0  0.50325527631E+02 -0.45421223106E+02 -0.13838808474E+02  0.10469571310E+03  0.78574381837E+02 0.  0.
         -6    2    1    2    0  502 -0.20398583526E+03  0.23148170652E+03 -0.31756656229E+02  0.35517795385E+03  0.17305748249E+03 0.  0.
        -24    2    5    5    0    0 -0.21173882602E+03  0.24497027440E+03 -0.42201511915E+02  0.33585865418E+03  0.78589453444E+02 0.  0.
          5    1    3    3  501    0  0.15366030763E+03 -0.18606048341E+03  0.34678643147E+02  0.24383332815E+03  0.47000000000E+01 0. -1.
        -13    1    4    4    0    0  0.13508589165E+02 -0.52572354456E+02 -0.32015187751E+02  0.63018304333E+02  0.00000000000E+00 0.  1.
         14    1    4    4    0    0  0.36816938466E+02  0.71511313492E+01  0.18176379278E+02  0.41677408764E+02  0.00000000000E+00 0. -1.
         -5    1    5    5    0  502  0.77529907641E+01 -0.13488567884E+02  0.10444855686E+02  0.19319299667E+02  0.47000000000E+01 0.  1.
         11    1    6    6    0    0 -0.14118371282E+03  0.12491419342E+03 -0.54037718570E+02  0.19610321647E+03  0.00000000000E+00 0. -1.
        -12    1    6    6    0    0 -0.70555113207E+02  0.12005608099E+03  0.11836206655E+02  0.13975543771E+03  0.00000000000E+00 0.  1.
</event>
<event>
12    1  0.1035051E+000  0.1864969E+03  0.7818608E-02  0.1162702E+00
         21   -1    0    0  503  502  0.00000000000E+00  0.00000000000E+00  0.14586500064E+04  0.14586500064E+04  0.00000000000E+00 0.  1.
         21   -1    0    0  501  503 -0.00000000000E+00 -0.00000000000E+00 -0.33580212360E+02  0.33580212360E+02  0.00000000000E+00 0.  1.
          6    2    1    2  501    0 -0.61046571551E+02 -0.35387666822E+02  0.11317400414E+04  0.11470033242E+04  0.17263294490E+03 0.  0.
         24    2    3    3    0    0  0.13922778891E+02 -0.34693928477E+02  0.32847257122E+03  0.34023098745E+03  0.80407601193E+02 0.  0.
         -6    2    1    2    0  502  0.61046571551E+02  0.35387666822E+02  0.29332975264E+03  0.34522689451E+03  0.16781029185E+03 0.  0.
        -24    2    5    5    0    0 -0.18835553179E+02  0.13789366782E+02  0.98319950018E+02  0.13333410668E+03  0.86984175189E+02 0.  0.
          5    1    3    3  501    0 -0.74969350442E+02 -0.69373834435E+00  0.80326747017E+03  0.80677233679E+03  0.47000000000E+01 0. -1.
        -13    1    4    4    0    0 -0.18773049388E+02  0.17611451429E+02  0.72597390843E+02  0.77025786345E+02  0.00000000000E+00 0.  1.
         14    1    4    4    0    0  0.32695828279E+02 -0.52305379907E+02  0.25587518038E+03  0.26320520111E+03  0.00000000000E+00 0. -1.
         -5    1    5    5    0  502  0.79882124730E+02  0.21598300040E+02  0.19500980262E+03  0.21189278783E+03  0.47000000000E+01 0.  1.
         13    1    6    6    0    0  0.19051404098E+02  0.25296518081E+02  0.51299943354E+01  0.32080939310E+02  0.00000000000E+00 0. -1.
        -14    1    6    6    0    0 -0.37886957277E+02 -0.11507151299E+02  0.93189955683E+02  0.10125316737E+03  0.00000000000E+00 0.  1.
</event>
<event>
12    1  0.1035051E+000  0.1950246E+03  0.7818608E-02  0.1154014E+00
         21   -1    0    0  503  502  0.00000000000E+00  0.00000000000E+00  0.13602672800E+03  0.13602672800E+03  0.00000000000E+00 0. -1.
         21   -1    0    0  501  503 -0.00000000000E+00 -0.00000000000E+00 -0.32615967242E+03  0.32615967242E+03  0.00000000000E+00 0. -1.
          6    2    1    2  501    0 -0.89388079304E+02  0.16897840086E+02 -0.18242476005E+03  0.26704563858E+03  0.17250743254E+03 0.  0.
         24    2    3    3    0    0 -0.17027422845E+02  0.63207647877E+02 -0.68343640509E+02  0.12415667911E+03  0.80367206568E+02 0.  0.
         -6    2    1    2    0  502  0.89388079304E+02 -0.16897840086E+02 -0.77081843674E+01  0.19514076184E+03  0.17246662026E+03 0.  0.
        -24    2    5    5    0    0  0.93281432401E+01 -0.27092225649E+02 -0.52716463534E+02  0.10261317648E+03  0.83243231035E+02 0.  0.
          5    1    3    3  501    0 -0.72360656459E+02 -0.46309807791E+02 -0.11408111954E+03  0.14288895947E+03  0.47000000000E+01 0. -1.
        -11    1    4    4    0    0 -0.22760444588E+02  0.57123971419E+02 -0.85357451000E+02  0.10520019197E+03  0.00000000000E+00 0.  1.
         12    1    4    4    0    0  0.57330217426E+01  0.60836764583E+01  0.17013810491E+02  0.18956487147E+02  0.00000000000E+00 0. -1.
         -5    1    5    5    0  502  0.80059936064E+02  0.10194385563E+02  0.45008279166E+02  0.92527585363E+02  0.47000000000E+01 0.  1.
         13    1    6    6    0    0  0.35846805746E+02  0.14466606707E+02 -0.25370511847E+02  0.46237853142E+02  0.00000000000E+00 0. -1.
        -14    1    6    6    0    0 -0.26518662506E+02 -0.41558832357E+02 -0.27345951687E+02  0.56375323339E+02  0.00000000000E+00 0.  1.
</event>
<event>
12    1  0.1035051E+000  0.3001264E+03  0.7818608E-02  0.1086095E+00
         21   -1    0    0  503  502  0.00000000000E+00  0.00000000000E+00  0.93585895744E+02  0.93585895744E+02  0.00000000000E+00 0. -1.
         21   -1    0    0  501  503 -0.00000000000E+00 -0.00000000000E+00 -0.94211060476E+03  0.94211060476E+03  0.00000000000E+00 0.  1.
          6    2    1    2  501    0 -0.87307621906E+02 -0.21989802249E+03 -0.40157494669E+03  0.50133647984E+03  0.18465661934E+03 0.  0.
         24    2    3    3    0    0  0.50863291379E+01 -0.11233053936E+03 -0.15022350062E+03  0.21270688146E+03  0.10016534563E+03 0.  0.
         -6    2    1    2    0  502  0.87307621906E+02  0.21989802249E+03 -0.44694976233E+03  0.53436002067E+03  0.17262323281E+03 0.  0.
        -24    2    5    5    0    0  0.27066950981E+02  0.52708021398E+02 -0.25163065541E+03  0.27025193971E+03  0.78786856907E+02 0.  0.
          5    1    3    3  501    0 -0.92393951044E+02 -0.10756748314E+03 -0.25135144607E+03  0.28862959837E+03  0.47000000000E+01 0. -1.
        -13    1    4    4    0    0 -0.82349765490E+01 -0.64325229819E+02 -0.14941438991E+03  0.16288096863E+03  0.00000000000E+00 0.  1.
         14    1    4    4    0    0  0.13321305687E+02 -0.48005309536E+02 -0.80911070902E+00  0.49825912827E+02  0.00000000000E+00 0. -1.
         -5    1    5    5    0  502  0.60240670926E+02  0.16719000110E+03 -0.19531910692E+03  0.26410808096E+03  0.47000000000E+01 0.  1.
         13    1    6    6    0    0  0.43189963636E+01  0.37460181666E+02 -0.33594115460E+02  0.50502312161E+02  0.00000000000E+00 0. -1.
        -14    1    6    6    0    0  0.22747954617E+02  0.15247839732E+02 -0.21803653995E+03  0.21974962755E+03  0.00000000000E+00 0.  1.
</event>
<event>
12    1  0.1035051E+000  0.2567098E+03  0.7818608E-02  0.1109157E+00
         21   -1    0    0  503  502  0.00000000000E+00  0.00000000000E+00  0.11548408597E+03  0.11548408597E+03  0.00000000000E+00 0. -1.
         21   -1    0    0  501  503 -0.00000000000E+00 -0.00000000000E+00 -0.58008176993E+03  0.58008176993E+03  0.00000000000E+00 0. -1.
          6    2    1    2  501    0  0.47589496515E+02  0.18429827965E+03 -0.18716146046E+03  0.31758336878E+03  0.17204408674E+03 0.  0.
         24    2    3    3    0    0  0.31104818118E+02  0.19989075704E+03 -0.12396566781E+03  0.25027313047E+03  0.79657570756E+02 0.  0.
         -6    2    1    2    0  502 -0.47589496515E+02 -0.18429827965E+03 -0.27743622350E+03  0.37798248712E+03  0.17224774714E+03 0.  0.
        -24    2    5    5    0    0 -0.72715485810E+02 -0.52132121858E+02 -0.72729701494E+02  0.13298032640E+03  0.66248454499E+02 0.  0.
          5    1    3    3  501    0  0.16484678397E+02 -0.15592477385E+02 -0.63195792654E+02  0.67310238315E+02  0.47000000000E+01 0. -1.
        -11    1    4    4    0    0 -0.11898622771E+02  0.13521210970E+03 -0.55176870682E+02  0.14652091623E+03  0.00000000000E+00 0.  1.
         12    1    4    4    0    0  0.43003440889E+02  0.64678647339E+02 -0.68788797125E+02  0.10375221424E+03  0.00000000000E+00 0. -1.
         -5    1    5    5    0  502  0.25125989295E+02 -0.13216615780E+03 -0.20470652201E+03  0.24500216072E+03  0.47000000000E+01 0.  1.
         13    1    6    6    0    0 -0.28116897149E+02  0.96543670311E+00  0.52605051486E+01  0.28621056719E+02  0.00000000000E+00 0. -1.
        -14    1    6    6    0    0 -0.44598588661E+02 -0.53097558561E+02 -0.77990206643E+02  0.10435926968E+03  0.00000000000E+00 0.  1.
</event>
<event>
12    1  0.1035051E+000  0.2019289E+03  0.7818608E-02  0.1148297E+00
         21   -1    0    0  501  502  0.00000000000E+00  0.00000000000E+00  0.51168763947E+03  0.51168763947E+03  0.00000000000E+00 0.  1.
         21   -1    0    0  502  503 -0.00000000000E+00 -0.00000000000E+00 -0.27299115771E+03  0.27299115771E+03  0.00000000000E+00 0.  1.
         -6    2    1    2    0  503 -0.10174607692E+03 -0.26628150091E+02  0.44984931798E+03  0.49309197292E+03  0.17237738344E+03 0.  0.
        -24    2    3    3    0    0 -0.13158942401E+03 -0.11680465017E+02  0.42221918201E+03  0.44950788099E+03  0.79599545507E+02 0.  0.
          6    2    1    2  501    0  0.10174607692E+03  0.26628150091E+02 -0.21115283623E+03  0.29158682426E+03  0.17139437940E+03 0.  0.
         24    2    5    5    0    0  0.92347623991E+02 -0.29148869983E+02 -0.80517091028E+02  0.14915370027E+03  0.79912978158E+02 0.  0.
          5    1    5    5  501    0  0.93984529256E+01  0.55777020074E+02 -0.13063574520E+03  0.14243312399E+03  0.47000000000E+01 0. -1.
        -13    1    6    6    0    0  0.15744071173E+02  0.58186098978E+01  0.14508634580E+02  0.22186312799E+02  0.00000000000E+00 0.  1.
         14    1    6    6    0    0  0.76603552817E+02 -0.34967479881E+02 -0.95025725607E+02  0.12696738747E+03  0.00000000000E+00 0. -1.
         -5    1    3    3    0  503  0.29843347095E+02 -0.14947685073E+02  0.27630135975E+02  0.43584091924E+02  0.47000000000E+01 0.  1.
         13    1    4    4    0    0 -0.11977335389E+03 -0.33546626900E+02  0.29957334973E+03  0.32436896329E+03  0.00000000000E+00 0. -1.
        -14    1    4    4    0    0 -0.11816070124E+02  0.21866161882E+02  0.12264583228E+03  0.12513891770E+03  0.00000000000E+00 0.  1.
</event>
<event>
12    1  0.1035051E+000  0.2751018E+03  0.7818608E-02  0.1098459E+00
         21   -1    0    0  501  502  0.00000000000E+00  0.00000000000E+00  0.99348427438E+02  0.99348427438E+02  0.00000000000E+00 0.  1.
         21   -1    0    0  502  503 -0.00000000000E+00 -0.00000000000E+00 -0.95696278712E+03  0.95696278712E+03  0.00000000000E+00 0.  1.
         -6    2    1    2    0  503  0.26453799539E+02  0.21002588940E+03 -0.18922307166E+03  0.33351945350E+03  0.17498336288E+03 0.  0.
        -24    2    3    3    0    0 -0.28098781517E+02  0.13029494541E+03 -0.17812172433E+03  0.23616270005E+03  0.79241137646E+02 0.  0.
          6    2    1    2  501    0 -0.26453799539E+02 -0.21002588940E+03 -0.66839128802E+03  0.72279176106E+03  0.17569956808E+03 0.  0.
         24    2    5    5    0    0  0.38539794087E+02 -0.62842697809E+02 -0.19728076273E+03  0.22494210892E+03  0.79023620673E+02 0.  0.
          5    1    5    5  501    0 -0.64993593626E+02 -0.14718319159E+03 -0.47111052529E+03  0.49784965214E+03  0.47000000000E+01 0. -1.
        -11    1    6    6    0    0  0.27879402023E+02 -0.26308203327E+02 -0.17837425542E+03  0.18244658839E+03  0.00000000000E+00 0.  1.
         12    1    6    6    0    0  0.10660392065E+02 -0.36534494482E+02 -0.18906507313E+02  0.42495520526E+02  0.00000000000E+00 0. -1.
         -5    1    3    3    0  503  0.54552581055E+02  0.79730943990E+02 -0.11101347333E+02  0.97356753448E+02  0.47000000000E+01 0.  1.
         11    1    4    4    0    0 -0.17265748214E+02  0.44519584563E+02 -0.12541643848E+02  0.49369953428E+02  0.00000000000E+00 0. -1.
        -12    1    4    4    0    0 -0.10833033302E+02  0.85775360848E+02 -0.16558008048E+03  0.18679274662E+03  0.00000000000E+00 0.  1.
</event>
<event>
12    1  0.1035051E+000  0.3132733E+03  0.7818608E-02  0.1078790E+00
         21   -1    0    0  501  502  0.00000000000E+00  0.00000000000E+00  0.32281488198E+03  0.32281488198E+03  0.00000000000E+00 0.  1.
         21   -1    0    0  502  503 -0.00000000000E+00 -0.00000000000E+00 -0.40298884661E+03  0.40298884661E+03  0.00000000000E+00 0. -1.
         -6    2    1    2    0  503 -0.18264876926E+03 -0.18590277675E+03 -0.21995806097E+03  0.38278156027E+03  0.17383831275E+03 0.  0.
        -24    2    3    3    0    0 -0.16396772849E+03 -0.69577100468E+02 -0.12623624822E+03  0.23216113525E+03  0.78973498487E+02 0.  0.
          6    2    1    2  501    0  0.18264876926E+03  0.18590277675E+03  0.13978409633E+03  0.34302216832E+03  0.17379355298E+03 0.  0.
         24    2    5    5    0    0  0.65700806499E+02  0.10070677582E+03  0.13588681572E+03  0.19820344244E+03  0.79755421373E+02 0.  0.
          5    1    5    5  501    0  0.11694796276E+03  0.85196000930E+02  0.38972806109E+01  0.14481872588E+03  0.47000000000E+01 0. -1.
        -13    1    6    6    0    0  0.72999918911E+02  0.97842532449E+02  0.90033316663E+02  0.15168436777E+03  0.00000000000E+00 0.  1.
         14    1    6    6    0    0 -0.72991124127E+01  0.28642433680E+01  0.45853499060E+02  0.46519074670E+02  0.00000000000E+00 0. -1.
         -5    1    3    3    0  503 -0.18681040776E+02 -0.11632567628E+03 -0.93721812749E+02  0.15062042501E+03  0.47000000000E+01 0.  1.
         11    1    4    4    0    0 -0.70916498972E+02 -0.87873156093E+01 -0.90704774151E+02  0.11547174025E+03  0.00000000000E+00 0. -1.
        -12    1    4    4    0    0 -0.93051229514E+02 -0.60789784859E+02 -0.35531474067E+02  0.11668939501E+03  0.00000000000E+00 0.  1.
</event>
<event>
12    1  0.1035051E+000  0.2207546E+03  0.7818608E-02  0.1133604E+00
         21   -1    0    0  501  502  0.00000000000E+00  0.00000000000E+00  0.14857832305E+04  0.14857832305E+04  0.00000000000E+00 0.  1.
         21   -1    0    0  502  503 -0.00000000000E+00 -0.00000000000E+00 -0.35367665975E+02  0.35367665975E+02  0.00000000000E+00 0. -1.
         -6    2    1    2    0  503 -0.13126341603E+03  0.36329695584E+02  0.50917754285E+03  0.55437191057E+03  0.17180370755E+03 0.  0.
        -24    2    3    3    0    0 -0.14292234640E+03  0.70236933956E+02  0.46024825004E+03  0.49352951445E+03  0.79893090925E+02 0.  0.
          6    2    1    2  501    0  0.13126341603E+03 -0.36329695584E+02  0.94123802171E+03  0.96677898593E+03  0.17373158308E+03 0.  0.
         24    2    5    5    0    0  0.45835462285E+02 -0.70636772799E+02  0.35866257103E+03  0.37695599844E+03  0.79790611192E+02 0.  0.
          5    1    5    5  501    0  0.85427953745E+02  0.34307077214E+02  0.58257545069E+03  0.58982298749E+03  0.47000000000E+01 0. -1.
        -11    1    6    6    0    0  0.64350834132E+01 -0.45567160696E+02  0.29175754457E+03  0.29536459037E+03  0.00000000000E+00 0.  1.
         12    1    6    6    0    0  0.39400378871E+02 -0.25069612103E+02  0.66905026457E+02  0.81591408073E+02  0.00000000000E+00 0. -1.
         -5    1    3    3    0  503  0.11658930374E+02 -0.33907238372E+02  0.48929292808E+02  0.60842396124E+02  0.47000000000E+01 0.  1.
         13    1    4    4    0    0 -0.27494195171E+02 -0.76894392456E+01  0.30496494510E+02  0.41774327301E+02  0.00000000000E+00 0. -1.
        -14    1    4    4    0    0 -0.11542815123E+03  0.77926373202E+02  0.42975175553E+03  0.45175518715E+03  0.00000000000E+00 0.  1.
</event>
<event>
12    1  0.1035051E+000  0.2966028E+03  0.7818608E-02  0.1086972E+00
         21   -1    0    0  503  502  0.00000000000E+00  0.00000000000E+00  0.40837367899E+03  0.40837367899E+03  0.00000000000E+00 0.  1.
         21   -1    0    0  501  503 -0.00000000000E+00 -0.00000000000E+00 -0.21543854923E+03  0.21543854923E+03  0.00000000000E+00 0.  1.
          6    2    1    2  501    0  0.24094136832E+03 -0.14811846469E+02  0.10422900442E+03  0.31438337957E+03  0.17234004242E+03 0.  0.
         24    2    3    3    0    0  0.22395519134E+03 -0.41280411536E+02  0.42570027150E+02  0.24500734175E+03  0.79726972812E+02 0.  0.
         -6    2    1    2    0  502 -0.24094136832E+03  0.14811846469E+02  0.88706125338E+02  0.30942884865E+03  0.17206191310E+03 0.  0.
        -24    2    5    5    0    0 -0.85038384181E+02  0.26849554322E+02  0.96025453212E+02  0.15282007037E+03  0.78617179363E+02 0.  0.
          5    1    3    3  501    0  0.16986176982E+02  0.26468565068E+02  0.61658977275E+02  0.69376037821E+02  0.47000000000E+01 0. -1.
        -13    1    4    4    0    0  0.52278874483E+02 -0.20999454889E+02  0.45024535266E+02  0.72119807257E+02  0.00000000000E+00 0.  1.
         14    1    4    4    0    0  0.17167631686E+03 -0.20280956647E+02 -0.24545081154E+01  0.17288753449E+03  0.00000000000E+00 0. -1.
         -5    1    5    5    0  502 -0.15590298414E+03 -0.12037707853E+02 -0.73193278742E+01  0.15660877828E+03  0.47000000000E+01 0.  1.
         11    1    6    6    0    0 -0.85085167761E+02  0.18342646653E+01  0.45649365550E+02  0.96574918456E+02  0.00000000000E+00 0. -1.
        -12    1    6    6    0    0  0.46783580099E-01  0.25015289657E+02  0.50376087662E+02  0.56245151911E+02  0.00000000000E+00 0.  1.
</event>
<event>
12    1  0.1035051E+000  0.2162890E+03  0.7818608E-02  0.1137011E+00
         21   -1    0    0  501  502  0.00000000000E+00  0.00000000000E+00  0.54933286240E+02  0.54933286240E+02  0.00000000000E+00 0.  1.
         21   -1    0    0  502  503 -0.00000000000E+00 -0.00000000000E+00 -0.12308370561E+04  0.12308370561E+04  0.00000000000E+00 0.  1.
         -6    2    1    2    0  503 -0.87953928421E+02 -0.93299472694E+02 -0.94636479605E+03  0.97038313941E+03  0.17203611517E+03 0.  0.
        -24    2    3    3    0    0 -0.10951770522E+03 -0.11502423816E+03 -0.87488703392E+03  0.89248498550E+03  0.76664359999E+02 0.  0.
          6    2    1    2  501    0  0.87953928421E+02  0.93299472694E+02 -0.22953897379E+03  0.31538720290E+03  0.17418456343E+03 0.  0.
         24    2    5    5    0    0  0.16548526936E+02  0.59764532845E+02 -0.21135443730E+03  0.23429410259E+03  0.79858469870E+02 0.  0.
          5    1    5    5  501    0  0.71405401485E+02  0.33534939849E+02 -0.18184536485E+02  0.81093100318E+02  0.47000000000E+01 0. -1.
        -13    1    6    6    0    0 -0.31610789898E+02  0.29223251911E+02 -0.74677694048E+02  0.86197438933E+02  0.00000000000E+00 0.  1.
         14    1    6    6    0    0  0.48159316834E+02  0.30541280934E+02 -0.13667674325E+03  0.14809666365E+03  0.00000000000E+00 0. -1.
         -5    1    3    3    0  503  0.21563776797E+02  0.21724765468E+02 -0.71477762126E+02  0.77898153912E+02  0.47000000000E+01 0.  1.
         11    1    4    4    0    0 -0.13834212400E+02  0.11284841602E+02 -0.82640907133E+02  0.84547339488E+02  0.00000000000E+00 0. -1.
        -12    1    4    4    0    0 -0.95683492818E+02 -0.12630907976E+03 -0.79224612679E+03  0.80793764601E+03  0.00000000000E+00 0.  1.
</event>
<event>
12    1  0.1035051E+000  0.2003485E+03  0.7818608E-02  0.1149586E+00
         21   -1    0    0  501  502  0.00000000000E+00  0.00000000000E+00  0.21852640564E+03  0.21852640564E+03  0.00000000000E+00 0.  1.
         21   -1    0    0  502  503 -0.00000000000E+00 -0.00000000000E+00 -0.20604329503E+03  0.20604329503E+03  0.00000000000E+00 0.  1.
         -6    2    1    2    0  503  0.31568412525E+02 -0.96132440878E+02  0.77117447744E+02  0.21405336471E+03  0.17214450714E+03 0.  0.
        -24    2    3    3    0    0  0.39089934391E+02 -0.13164287599E+03  0.77541489835E+02  0.17744962030E+03  0.81349955926E+02 0.  0.
          6    2    1    2  501    0 -0.31568412525E+02  0.96132440878E+02 -0.64634337128E+02  0.21051633597E+03  0.17292055781E+03 0.  0.
         24    2    5    5    0    0  0.31160887798E+02  0.93724213777E+02 -0.11506726158E+02  0.12814281034E+03  0.80826641143E+02 0.  0.
          5    1    5    5  501    0 -0.62729300324E+02  0.24082271012E+01 -0.53127610969E+02  0.82373525627E+02  0.47000000000E+01 0. -1.
        -11    1    6    6    0    0  0.11660732923E+02 -0.12961497980E+02  0.56789790249E+01  0.18336409817E+02  0.00000000000E+00 0.  1.
         12    1    6    6    0    0  0.19500154875E+02  0.10668571176E+03 -0.17185705183E+02  0.10980640052E+03  0.00000000000E+00 0. -1.
         -5    1    3    3    0  503 -0.75215218657E+01  0.35510435110E+02 -0.42404209184E+00  0.36603744407E+02  0.47000000000E+01 0.  1.
         13    1    4    4    0    0  0.59040480085E+02 -0.57089502910E+02  0.45464736927E+02  0.93872423720E+02  0.00000000000E+00 0. -1.
        -14    1    4    4    0    0 -0.19950545694E+02 -0.74553373078E+02  0.32076752909E+02  0.83577196579E+02  0.00000000000E+00 0.  1.
</event>
<event>
12    1  0.1035051E+000  0.2363017E+03  0.7818608E-02  0.1122319E+00
         21   -1    0    0  501  502  0.00000000000E+00  0.00000000000E+00  0.10872864809E+03  0.10872864809E+03  0.00000000000E+00 0.  1.
         21   -1    0    0  502  503 -0.00000000000E+00 -0.00000000000E+00 -0.53999286013E+03  0.53999286013E+03  0.00000000000E+00 0.  1.
         -6    2    1    2    0  503  0.12698874209E+03  0.10076394542E+03 -0.14331252921E+03  0.27636385267E+03  0.17192726578E+03 0.  0.
        -24    2    3    3    0    0 -0.46346657585E-01  0.41104772221E+02 -0.88460609347E+02  0.12560592143E+03  0.79132570058E+02 0.  0.
          6    2    1    2  501    0 -0.12698874209E+03 -0.10076394542E+03 -0.28795168284E+03  0.37235765555E+03  0.17162324634E+03 0.  0.
         24    2    5    5    0    0 -0.71826364877E+02 -0.64777841551E+02 -0.27804773698E+03  0.30558890781E+03  0.81968537200E+02 0.  0.
          5    1    5    5  501    0 -0.55162377213E+02 -0.35986103867E+02 -0.99039458622E+01  0.66768747741E+02  0.47000000000E+01 0. -1.
        -13    1    6    6    0    0 -0.52600484074E+01 -0.43916700549E+02 -0.48336843539E+02  0.65519425666E+02  0.00000000000E+00 0.  1.
         14    1    6    6    0    0 -0.66566316469E+02 -0.20861141002E+02 -0.22971089344E+03  0.24006948214E+03  0.00000000000E+00 0. -1.
         -5    1    3    3    0  503  0.12703508875E+03  0.59659173196E+02 -0.54851919861E+02  0.15075793124E+03  0.47000000000E+01 0.  1.
         13    1    4    4    0    0  0.17995473388E+02  0.47058691910E+02 -0.19414029842E+02  0.53993167174E+02  0.00000000000E+00 0. -1.
        -14    1    4    4    0    0 -0.18041820046E+02 -0.59539196891E+01 -0.69046579505E+02  0.71612754252E+02  0.00000000000E+00 0.  1.
</event>
<event>
12    1  0.1035051E+000  0.1723331E+03  0.7818608E-02  0.1176175E+00
         21   -1    0    0  503  502  0.00000000000E+00  0.00000000000E+00  0.32324931469E+03  0.32324931469E+03  0.00000000000E+00 0. -1.
         21   -1    0    0  501  503 -0.00000000000E+00 -0.00000000000E+00 -0.92003375485E+02  0.92003375485E+02  0.00000000000E+00 0. -1.
          6    2    1    2  501    0  0.42711274783E+01 -0.15831663546E+02  0.14244204019E+03  0.22138466085E+03  0.16867883431E+03 0.  0.
         24    2    3    3    0    0 -0.53111344129E+02  0.12402376716E+02  0.11985251429E+03  0.15339726674E+03  0.78685846497E+02 0.  0.
         -6    2    1    2    0  502 -0.42711274783E+01  0.15831663546E+02  0.88803899009E+02  0.19386802932E+03  0.17155114751E+03 0.  0.
        -24    2    5    5    0    0  0.45109153591E+02  0.42713704833E+02  0.17199344566E+02  0.10270686150E+03  0.79959900116E+02 0.  0.
          5    1    3    3  501    0  0.57382471607E+02 -0.28234040262E+02  0.22589525907E+02  0.67987394111E+02  0.47000000000E+01 0. -1.
        -11    1    4    4    0    0 -0.38526856556E+02  0.44963451312E+02  0.84409644072E+02  0.10310683121E+03  0.00000000000E+00 0.  1.
         12    1    4    4    0    0 -0.14584487573E+02 -0.32561074596E+02  0.35442870213E+02  0.50290435527E+02  0.00000000000E+00 0. -1.
         -5    1    5    5    0  502 -0.49380281070E+02 -0.26882041286E+02  0.71604554443E+02  0.91161167825E+02  0.47000000000E+01 0.  1.
         11    1    6    6    0    0  0.14595167412E+02 -0.52754159269E+01  0.38866419833E+02  0.41850298872E+02  0.00000000000E+00 0. -1.
        -12    1    6    6    0    0  0.30513986179E+02  0.47989120760E+02 -0.21667075267E+02  0.60856562624E+02  0.00000000000E+00 0.  1.
</event>
<event>
12    1  0.1035051E+000  0.1768961E+03  0.7818608E-02  0.1170956E+00
         21   -1    0    0  503  502  0.00000000000E+00  0.00000000000E+00  0.36788624679E+03  0.36788624679E+03  0.00000000000E+00 0.  1.
         21   -1    0    0  501  503 -0.00000000000E+00 -0.00000000000E+00 -0.85146224256E+02  0.85146224256E+02  0.00000000000E+00 0.  1.
          6    2    1    2  501    0 -0.30254967718E+02  0.24183625587E+02  0.15483193480E+03  0.23473749158E+03  0.17212946029E+03 0.  0.
         24    2    3    3    0    0 -0.17738434627E+02  0.79412652156E+02  0.13336455784E+03  0.17399337870E+03  0.76593532080E+02 0.  0.
         -6    2    1    2    0  502  0.30254967718E+02 -0.24183625587E+02  0.12790808773E+03  0.21829497947E+03  0.17260361623E+03 0.  0.
        -24    2    5    5    0    0  0.20295360250E+01  0.12465813923E+02  0.14730181776E+03  0.16791578560E+03  0.79613880729E+02 0.  0.
          5    1    3    3  501    0 -0.12516533091E+02 -0.55229026568E+02  0.21467376959E+02  0.60744112882E+02  0.47000000000E+01 0. -1.
        -13    1    4    4    0    0  0.18068286437E+02  0.17897532869E+02  0.82974447536E+02  0.86784466361E+02  0.00000000000E+00 0.  1.
         14    1    4    4    0    0 -0.35806721064E+02  0.61515119287E+02  0.50390110309E+02  0.87208912338E+02  0.00000000000E+00 0. -1.
         -5    1    5    5    0  502  0.28225431693E+02 -0.36649439510E+02 -0.19393730026E+02  0.50379193870E+02  0.47000000000E+01 0.  1.
         13    1    6    6    0    0 -0.31992232061E+02  0.13426536787E+02  0.11803171189E+03  0.12302544377E+03  0.00000000000E+00 0. -1.
        -14    1    6    6    0    0  0.34021768086E+02 -0.96072286450E+00  0.29270105868E+02  0.44890341831E+02  0.00000000000E+00 0.  1.
</event>
<event>
12    1  0.1035051E+000  0.1901173E+03  0.7818608E-02  0.1158777E+00
         21   -1    0    0  501  502  0.00000000000E+00  0.00000000000E+00  0.35304625941E+02  0.35304625941E+02  0.00000000000E+00 0.  1.
         21   -1    0    0  502  503 -0.00000000000E+00 -0.00000000000E+00 -0.10506271258E+04  0.10506271258E+04  0.00000000000E+00 0.  1.
         -6    2    1    2    0  503 -0.77797667262E+02 -0.23854569035E+02 -0.40359887152E+03  0.44534578932E+03  0.16976249728E+03 0.  0.
        -24    2    3    3    0    0 -0.46065992253E+02  0.45694961584E+02 -0.29629677966E+03  0.31351307212E+03  0.79300438821E+02 0.  0.
          6    2    1    2  501    0  0.77797667262E+02  0.23854569035E+02 -0.61172362830E+03  0.64058596238E+03  0.17182275832E+03 0.  0.
         24    2    5    5    0    0  0.98063185423E+02  0.65014332236E+02 -0.41868948073E+03  0.44211911511E+03  0.79530993610E+02 0.  0.
          5    1    5    5  501    0 -0.20265518161E+02 -0.41159763200E+02 -0.19303414758E+03  0.19846684726E+03  0.47000000000E+01 0. -1.
        -13    1    6    6    0    0  0.64170396121E+02 -0.46149287809E+01 -0.17728373383E+03  0.18859655242E+03  0.00000000000E+00 0.  1.
         14    1    6    6    0    0  0.33892789302E+02  0.69629261016E+02 -0.24140574690E+03  0.25352256269E+03  0.00000000000E+00 0. -1.
         -5    1    3    3    0  503 -0.31731675009E+02 -0.69549530619E+02 -0.10730209185E+03  0.13183271720E+03  0.47000000000E+01 0.  1.
         13    1    4    4    0    0 -0.57722471616E+02  0.19586914249E+02 -0.11675592609E+03  0.13170982202E+03  0.00000000000E+00 0. -1.
        -14    1    4    4    0    0  0.11656479363E+02  0.26108047335E+02 -0.17954085357E+03  0.18180325010E+03  0.00000000000E+00 0.  1.
</event>
<event>
12    1  0.1035051E+000  0.4506560E+03  0.7818608E-02  0.1027536E+00
         21   -1    0    0  503  502  0.00000000000E+00  0.00000000000E+00  0.42854789146E+03  0.42854789146E+03  0.00000000000E+00 0.  1.
         21   -1    0    0  501  503 -0.00000000000E+00 -0.00000000000E+00 -0.51865395695E+03  0.51865395695E+03  0.00000000000E+00 0.  1.
          6    2    1    2  501    0 -0.39048256960E+03  0.14455428876E+03  0.94264265371E+02  0.46040918171E+03  0.17238991651E+03 0.  0.
         24    2    3    3    0    0 -0.12758038958E+03  0.96526148512E+00  0.39938465260E+02  0.15592806970E+03  0.80254559850E+02 0.  0.
         -6    2    1    2    0  502  0.39048256960E+03 -0.14455428876E+03 -0.18437033086E+03  0.48679266670E+03  0.17205261372E+03 0.  0.
        -24    2    5    5    0    0  0.16223753112E+03 -0.93038584524E+02 -0.30480031574E+02  0.20669629116E+03  0.82565911497E+02 0.  0.
          5    1    3    3  501    0 -0.26290218002E+03  0.14358902728E+03  0.54325800111E+02  0.30448111201E+03  0.47000000000E+01 0. -1.
        -13    1    4    4    0    0 -0.43801482385E+02 -0.26801654283E+02 -0.13049985280E+02  0.52983022255E+02  0.00000000000E+00 0.  1.
         14    1    4    4    0    0 -0.83778907196E+02  0.27766915769E+02  0.52988450540E+02  0.10294504744E+03  0.00000000000E+00 0. -1.
         -5    1    5    5    0  502  0.22824503849E+03 -0.51515704238E+02 -0.15389029929E+03  0.28009637554E+03  0.47000000000E+01 0.  1.
         13    1    6    6    0    0  0.23835820783E+02 -0.32491975034E+02 -0.38074518668E+02  0.55439550556E+02  0.00000000000E+00 0. -1.
        -14    1    6    6    0    0  0.13840171033E+03 -0.60546609490E+02  0.75944870936E+01  0.15125674060E+03  0.00000000000E+00 0.  1.
</event>
<event>
12    1  0.1035051E+000  0.2433378E+03  0.7818608E-02  0.1118588E+00
         21   -1    0    0  503  502  0.00000000000E+00  0.00000000000E+00  0.60079224601E+03  0.60079224601E+03  0.00000000000E+00 0.  1.
         21   -1    0    0  501  503 -0.00000000000E+00 -0.00000000000E+00 -0.96408002158E+02  0.96408002158E+02  0.00000000000E+00 0.  1.
          6    2    1    2  501    0 -0.26652310796E+02 -0.17077469327E+03  0.26767662420E+03  0.35772446986E+03  0.16260897780E+03 0.  0.
         24    2    3    3    0    0 -0.50669074704E+02 -0.26064532613E+02  0.36713545528E+02  0.84075298009E+02  0.49739886594E+02 0.  0.
         -6    2    1    2    0  502  0.26652310796E+02  0.17077469327E+03  0.23670761965E+03  0.33947577830E+03  0.17128620879E+03 0.  0.
        -24    2    5    5    0    0 -0.11446090868E+02  0.67862225442E+02  0.36881941181E+02  0.11145197249E+03  0.79529679665E+02 0.  0.
          5    1    3    3  501    0  0.24016763909E+02 -0.14471016066E+03  0.23096307867E+03  0.27364917185E+03  0.47000000000E+01 0. -1.
        -11    1    4    4    0    0 -0.40423358579E+02  0.68752802012E+01  0.17427950004E+02  0.44553909346E+02  0.00000000000E+00 0.  1.
         12    1    4    4    0    0 -0.10245716125E+02 -0.32939812814E+02  0.19285595525E+02  0.39521388664E+02  0.00000000000E+00 0. -1.
         -5    1    5    5    0  502  0.38098401664E+02  0.10291246783E+03  0.19982567847E+03  0.22802380581E+03  0.47000000000E+01 0.  1.
         11    1    6    6    0    0 -0.25906530815E+02 -0.58748216042E+01  0.22789501956E+02  0.35000332387E+02  0.00000000000E+00 0. -1.
        -12    1    6    6    0    0  0.14460439947E+02  0.73737047046E+02  0.14092439225E+02  0.76451640099E+02  0.00000000000E+00 0.  1.
</event>
<event>
12    1  0.1035051E+000  0.2352845E+03  0.7818608E-02  0.1122996E+00
         21   -1    0    0  501  502  0.00000000000E+00  0.00000000000E+00  0.26341366490E+03  0.26341366490E+03  0.00000000000E+00 0. -1.
         21   -1    0    0  502  503 -0.00000000000E+00 -0.00000000000E+00 -0.21167910666E+03  0.21167910666E+03  0.00000000000E+00 0. -1.
         -6    2    1    2    0  503  0.18019839958E+02  0.15976712186E+03  0.50100694397E+01  0.23533780427E+03  0.17178048045E+03 0.  0.
        -24    2    3    3    0    0  0.55481817246E+02  0.10659601635E+03  0.52889602297E+02  0.15443597568E+03  0.81315544674E+02 0.  0.
          6    2    1    2  501    0 -0.18019839958E+02 -0.15976712186E+03  0.46724488801E+02  0.23975496729E+03  0.17160716368E+03 0.  0.
         24    2    5    5    0    0  0.30368384501E+02 -0.99483696100E+02 -0.24399489657E+02  0.13460639622E+03  0.81879803613E+02 0.  0.
          5    1    5    5  501    0 -0.48388224458E+02 -0.60283425760E+02  0.71123978459E+02  0.10514857108E+03  0.47000000000E+01 0. -1.
        -11    1    6    6    0    0  0.33154143991E+02 -0.96652282787E+02  0.75048329813E+01  0.10245576387E+03  0.00000000000E+00 0.  1.
         12    1    6    6    0    0 -0.27857594907E+01 -0.28314133129E+01 -0.31904322639E+02  0.32150632347E+02  0.00000000000E+00 0. -1.
         -5    1    3    3    0  503 -0.37461977289E+02  0.53171105508E+02 -0.47879532858E+02  0.80901828594E+02  0.47000000000E+01 0.  1.
         13    1    4    4    0    0  0.94350853747E+01  0.90724602412E+01  0.44360653617E+02  0.46251464412E+02  0.00000000000E+00 0. -1.
        -14    1    4    4    0    0  0.46046731871E+02  0.97523556112E+02  0.85289486800E+01  0.10818451127E+03  0.00000000000E+00 0.  1.
</event>
<event>
12    1  0.1035051E+000  0.5150975E+03  0.7818608E-02  0.1009919E+00
         21   -1    0    0  503  502  0.00000000000E+00  0.00000000000E+00  0.75263354099E+03  0.75263354099E+03  0.00000000000E+00 0.  1.
         21   -1    0    0  501  503 -0.00000000000E+00 -0.00000000000E+00 -0.47706504446E+03  0.47706504446E+03  0.00000000000E+00 0.  1.
          6    2    1    2  501    0 -0.39154336523E+03 -0.28688954721E+03 -0.17644548421E+03  0.54448000155E+03  0.17237646019E+03 0.  0.
         24    2    3    3    0    0 -0.23311331543E+03 -0.25319089789E+03 -0.10788039071E+03  0.36852846932E+03  0.75680944721E+02 0.  0.
         -6    2    1    2    0  502  0.39154336523E+03  0.28688954721E+03  0.45201398073E+03  0.68521858390E+03  0.17203502487E+03 0.  0.
        -24    2    5    5    0    0  0.35696271719E+03  0.27576482105E+03  0.45852121502E+03  0.64801623385E+03  0.78833474540E+02 0.  0.
          5    1    3    3  501    0 -0.15843004980E+03 -0.33698649323E+02 -0.68565093491E+02  0.17595153222E+03  0.47000000000E+01 0. -1.
        -13    1    4    4    0    0 -0.45391748729E+02 -0.63138445899E+02  0.63027573434E+01  0.78016658179E+02  0.00000000000E+00 0.  1.
         14    1    4    4    0    0 -0.18772156670E+03 -0.19005245199E+03 -0.11418314806E+03  0.29051181114E+03  0.00000000000E+00 0. -1.
         -5    1    5    5    0  502  0.34580648043E+02  0.11124726166E+02 -0.65072342907E+01  0.37202350053E+02  0.47000000000E+01 0.  1.
         13    1    6    6    0    0  0.11947640599E+03  0.13440220185E+03  0.15377608889E+03  0.23661286728E+03  0.00000000000E+00 0. -1.
        -14    1    6    6    0    0  0.23748631120E+03  0.14136261919E+03  0.30474512614E+03  0.41140336656E+03  0.00000000000E+00 0.  1.
</event>
<event>
12    1  0.1035051E+000  0.1883625E+03  0.7818608E-02  0.1160776E+00
         21   -1    0    0  501  502  0.00000000000E+00  0.00000000000E+00  0.21622510415E+03  0.21622510415E+03  0.00000000000E+00 0. -1.
         21   -1    0    0  502  503 -0.00000000000E+00 -0.00000000000E+00 -0.17988447572E+03  0.17988447572E+03  0.00000000000E+00 0. -1.
         -6    2    1    2    0  503 -0.10854143200E+02 -0.73578108135E+02  0.82548521273E+02  0.20565675434E+03  0.17305748126E+03 0.  0.
        -24    2    3    3    0    0 -0.49754328977E+02  0.11015520437E+01  0.48293780594E+02  0.11463064074E+03  0.91275341047E+02 0.  0.
          6    2    1    2  501    0  0.10854143200E+02  0.73578108135E+02 -0.46207892845E+02  0.19045282553E+03  0.16913177989E+03 0.  0.
         24    2    5    5    0    0 -0.49277032722E+02  0.79231907564E+02 -0.22768762580E+02  0.12549740549E+03  0.80779088285E+02 0.  0.
          5    1    5    5  501    0  0.60131175921E+02 -0.56537994290E+01 -0.23439130265E+02  0.64955420045E+02  0.47000000000E+01 0. -1.
        -11    1    6    6    0    0 -0.21790888792E+02  0.72568562791E+02 -0.46222421625E+02  0.88755571097E+02  0.00000000000E+00 0.  1.
         12    1    6    6    0    0 -0.27486143930E+02  0.66633447736E+01  0.23453659045E+02  0.36741834389E+02  0.00000000000E+00 0. -1.
         -5    1    3    3    0  503  0.38900185777E+02 -0.74679660179E+02  0.34254740679E+02  0.91026113599E+02  0.47000000000E+01 0.  1.
         11    1    4    4    0    0  0.49092198644E+01  0.34603889681E+02  0.34378625378E+02  0.49024682596E+02  0.00000000000E+00 0. -1.
        -12    1    4    4    0    0 -0.54663548841E+02 -0.33502337637E+02  0.13915155216E+02  0.65605958142E+02  0.00000000000E+00 0.  1.
</event>
<event>
12    1  0.1035051E+000  0.3370042E+03  0.7818608E-02  0.1068236E+00
         21   -1    0    0  503  502  0.00000000000E+00  0.00000000000E+00  0.27382317861E+03  0.27382317861E+03  0.00000000000E+00 0. -1.
         21   -1    0    0  501  503 -0.00000000000E+00 -0.00000000000E+00 -0.61626805495E+03  0.61626805495E+03  0.00000000000E+00 0. -1.
          6    2    1    2  501    0  0.23745505412E+03  0.16533370818E+03 -0.42658323567E+03  0.54274253308E+03  0.16992958093E+03 0.  0.
         24    2    3    3    0    0  0.18418745238E+03  0.64890450922E+02 -0.20662136206E+03  0.29509035529E+03  0.79057841414E+02 0.  0.
         -6    2    1    2    0  502 -0.23745505412E+03 -0.16533370818E+03  0.84138359329E+02  0.34734870047E+03  0.17277649846E+03 0.  0.
        -24    2    5    5    0    0 -0.33494899473E+02 -0.38150359599E+02  0.40617373267E+02  0.10303022989E+03  0.79925584337E+02 0.  0.
          5    1    3    3  501    0  0.53267601732E+02  0.10044325726E+03 -0.21996187361E+03  0.24765217779E+03  0.47000000000E+01 0. -1.
        -13    1    4    4    0    0  0.85001004510E+02  0.36464869186E+02 -0.15306382561E+03  0.17883901186E+03  0.00000000000E+00 0.  1.
         14    1    4    4    0    0  0.99186447875E+02  0.28425581736E+02 -0.53557536453E+02  0.11625134343E+03  0.00000000000E+00 0. -1.
         -5    1    5    5    0  502 -0.20396015464E+03 -0.12718334858E+03  0.43520986062E+02  0.24431847058E+03  0.47000000000E+01 0.  1.
         13    1    6    6    0    0  0.13269479998E+02 -0.20573794403E+02 -0.14649476959E+02  0.28530112000E+02  0.00000000000E+00 0. -1.
        -14    1    6    6    0    0 -0.46764379471E+02 -0.17576565196E+02  0.55266850227E+02  0.74500117889E+02  0.00000000000E+00 0.  1.
</event>
<event>
12    1  0.1035051E+000  0.1923954E+03  0.7818608E-02  0.1157006E+00
         21   -1    0    0  503  502  0.00000000000E+00  0.00000000000E+00  0.11176041568E+03  0.11176041568E+03  0.00000000000E+00 0.  1.
         21   -1    0    0  501  503 -0.00000000000E+00 -0.00000000000E+00 -0.54942155048E+03  0.54942155048E+03  0.00000000000E+00 0.  1.
          6    2    1    2  501    0 -0.40745398273E+02 -0.75633572266E+02 -0.42862390506E+03  0.46857440126E+03  0.16870949229E+03 0.  0.
         24    2    3    3    0    0  0.48300793866E+01 -0.86067094968E+02 -0.17845387637E+03  0.21402948221E+03  0.80820534265E+02 0.  0.
         -6    2    1    2    0  502  0.40745398273E+02  0.75633572266E+02 -0.90372297324E+01  0.19260756490E+03  0.17214928928E+03 0.  0.
        -24    2    5    5    0    0 -0.33403157053E+02  0.78959699742E+02  0.27259409204E+01  0.11731125978E+03  0.80025594860E+02 0.  0.
          5    1    3    3  501    0 -0.45575477660E+02  0.10433522702E+02 -0.25017002869E+03  0.25454491905E+03  0.47000000000E+01 0. -1.
        -11    1    4    4    0    0  0.38553939729E+02 -0.20373880818E+02 -0.55173126665E+02  0.70324783641E+02  0.00000000000E+00 0.  1.
         12    1    4    4    0    0 -0.33723860342E+02 -0.65693214150E+02 -0.12328074971E+03  0.14370469857E+03  0.00000000000E+00 0. -1.
         -5    1    5    5    0  502  0.74148555326E+02 -0.33261274761E+01 -0.11763170653E+02  0.75296305120E+02  0.47000000000E+01 0.  1.
         13    1    6    6    0    0  0.79995638294E+01 -0.13656088432E+02  0.32094044803E-01  0.15826648500E+02  0.00000000000E+00 0. -1.
        -14    1    6    6    0    0 -0.41402720882E+02  0.92615788174E+02  0.26938468756E+01  0.10148461128E+03  0.00000000000E+00 0.  1.
</event>
<event>
12    1  0.1035051E+000  0.2623125E+03  0.7818608E-02  0.1105805E+00
         21   -1    0    0  501  502  0.00000000000E+00  0.00000000000E+00  0.55157628867E+03  0.55157628867E+03  0.00000000000E+00 0. -1.
         21   -1    0    0  502  503 -0.00000000000E+00 -0.00000000000E+00 -0.12533677528E+03  0.12533677528E+03  0.00000000000E+00 0. -1.
         -6    2    1    2    0  503  0.98518117233E+02 -0.17105166622E+03  0.18721995162E+03  0.32203536610E+03  0.17231069263E+03 0.  0.
        -24    2    3    3    0    0  0.10815956205E+03 -0.13001918184E+03  0.20452875236E+03  0.27622808703E+03  0.76592865290E+02 0.  0.
          6    2    1    2  501    0 -0.98518117233E+02  0.17105166622E+03  0.23901956177E+03  0.35487769784E+03  0.17275224333E+03 0.  0.
         24    2    5    5    0    0 -0.57850960941E+02  0.18921373490E+03  0.17040831156E+03  0.27294313862E+03  0.79437982825E+02 0.  0.
          5    1    5    5  501    0 -0.40667156292E+02 -0.18162068675E+02  0.68611250212E+02  0.81934559223E+02  0.47000000000E+01 0. -1.
        -11    1    6    6    0    0 -0.45211537430E+02  0.10063395903E+03  0.14041890417E+03  0.17857420159E+03  0.00000000000E+00 0.  1.
         12    1    6    6    0    0 -0.12639423511E+02  0.88579775874E+02  0.29989407391E+02  0.94368937030E+02  0.00000000000E+00 0. -1.
         -5    1    3    3    0  503 -0.96414448141E+01 -0.41032484387E+02 -0.17308800738E+02  0.45807279073E+02  0.47000000000E+01 0.  1.
         11    1    4    4    0    0  0.81905156907E+02 -0.11923211213E+03  0.12292776946E+03  0.18983147209E+03  0.00000000000E+00 0. -1.
        -12    1    4    4    0    0  0.26254405141E+02 -0.10787069704E+02  0.81600982906E+02  0.86396614942E+02  0.00000000000E+00 0.  1.
</event>
<event>
12    1  0.1035051E+000  0.1848017E+03  0.7818608E-02  0.1163314E+00
         21   -1    0    0  503  502  0.00000000000E+00  0.00000000000E+00  0.30483676620E+02  0.30483676620E+02  0.00000000000E+00 0.  1.
         21   -1    0    0  501  503 -0.00000000000E+00 -0.00000000000E+00 -0.24220595893E+04  0.24220595893E+04  0.00000000000E+00 0.  1.
          6    2    1    2  501    0 -0.66983741832E+02 -0.14371145346E+02 -0.29659649431E+03  0.34945834494E+03  0.17163421255E+03 0.  0.
         24    2    3    3    0    0 -0.98118724305E+02 -0.47302603107E+02 -0.19079996419E+03  0.23426779050E+03  0.81313904179E+02 0.  0.
         -6    2    1    2    0  502  0.66983741832E+02  0.14371145346E+02 -0.20949794184E+04  0.21030849210E+04  0.17127191832E+03 0.  0.
        -24    2    5    5    0    0  0.10945207840E+02  0.52069605501E+02 -0.16233405501E+04  0.16266116235E+04  0.88316423153E+02 0.  0.
          5    1    3    3  501    0  0.31134982473E+02  0.32931457760E+02 -0.10579653013E+03  0.11519055443E+03  0.47000000000E+01 0. -1.
        -11    1    4    4    0    0 -0.27656356641E+02 -0.45014909975E+02 -0.13297940204E+03  0.14308996313E+03  0.00000000000E+00 0.  1.
         12    1    4    4    0    0 -0.70462367664E+02 -0.22876931314E+01 -0.57820562149E+02  0.91177827370E+02  0.00000000000E+00 0. -1.
         -5    1    5    5    0  502  0.56038533992E+02 -0.37698460155E+02 -0.47163886829E+03  0.47647329754E+03  0.47000000000E+01 0.  1.
         11    1    6    6    0    0  0.35505844619E+02 -0.40524446039E+01 -0.88983842543E+03  0.89055573138E+03  0.00000000000E+00 0. -1.
        -12    1    6    6    0    0 -0.24560636779E+02  0.56122050105E+02 -0.73350212466E+03  0.73605589208E+03  0.00000000000E+00 0.  1.
</event>
<event>
12    1  0.1035051E+000  0.2751251E+03  0.7818608E-02  0.1098509E+00
         21   -1    0    0  503  502  0.00000000000E+00  0.00000000000E+00  0.13079877821E+04  0.13079877821E+04  0.00000000000E+00 0. -1.
         21   -1    0    0  501  503 -0.00000000000E+00 -0.00000000000E+00 -0.57789233847E+02  0.57789233847E+02  0.00000000000E+00 0. -1.
          6    2    1    2  501    0  0.21349809889E+03 -0.17638092339E+02  0.65588407370E+03  0.71125083404E+03  0.17263050208E+03 0.  0.
         24    2    3    3    0    0  0.11970525474E+03  0.20593224849E+01  0.20526107856E+03  0.25052503758E+03  0.79354239098E+02 0.  0.
         -6    2    1    2    0  502 -0.21349809889E+03  0.17638092339E+02  0.59431447459E+03  0.65452618195E+03  0.17117910977E+03 0.  0.
        -24    2    5    5    0    0 -0.17861382737E+03  0.55903411758E+02  0.34780408710E+03  0.40259244421E+03  0.78005784144E+02 0.  0.
          5    1    3    3  501    0  0.93792844147E+02 -0.19697414824E+02  0.45062299514E+03  0.46072579645E+03  0.47000000000E+01 0. -1.
        -13    1    4    4    0    0  0.10313162367E+03 -0.23985181483E+02  0.18632545989E+03  0.21430958386E+03  0.00000000000E+00 0.  1.
         14    1    4    4    0    0  0.16573631074E+02  0.26044503968E+02  0.18935618667E+02  0.36215453721E+02  0.00000000000E+00 0. -1.
         -5    1    5    5    0  502 -0.34884271518E+02 -0.38265319419E+02  0.24651038749E+03  0.25193373774E+03  0.47000000000E+01 0.  1.
         13    1    6    6    0    0 -0.47749017534E+02 -0.55653926046E+01  0.15045651044E+03  0.15794968757E+03  0.00000000000E+00 0. -1.
        -14    1    6    6    0    0 -0.13086480984E+03  0.61468804363E+02  0.19734757666E+03  0.24464275664E+03  0.00000000000E+00 0.  1.
</event>
<event>
12    1  0.1035051E+000  0.2388900E+03  0.7818608E-02  0.1121781E+00
         21   -1    0    0  503  502  0.00000000000E+00  0.00000000000E+00  0.11877191493E+04  0.11877191493E+04  0.00000000000E+00 0.  1.
         21   -1    0    0  501  503 -0.00000000000E+00 -0.00000000000E+00 -0.47609229696E+02  0.47609229696E+02  0.00000000000E+00 0.  1.
          6    2    1    2  501    0  0.13845586127E+03 -0.70903521594E+02  0.47095873400E+03  0.52481323832E+03  0.17155019993E+03 0.  0.
         24    2    3    3    0    0  0.77718078308E+01  0.11719570247E+02  0.17166530034E+03  0.18791036425E+03  0.75123766727E+02 0.  0.
         -6    2    1    2    0  502 -0.13845586127E+03  0.70903521594E+02  0.66915118556E+03  0.71051514063E+03  0.18130394653E+03 0.  0.
        -24    2    5    5    0    0 -0.54162898088E+02 -0.32684307271E+02  0.35345515222E+03  0.36770058814E+03  0.79191504686E+02 0.  0.
          5    1    3    3  501    0  0.13068405344E+03 -0.82623091841E+02  0.29929343366E+03  0.33690287407E+03  0.47000000000E+01 0. -1.
        -13    1    4    4    0    0 -0.23695721858E+02 -0.20498633611E+02  0.66760840024E+02  0.73747481144E+02  0.00000000000E+00 0.  1.
         14    1    4    4    0    0  0.31467529689E+02  0.32218203858E+02  0.10490446032E+03  0.11416288310E+03  0.00000000000E+00 0. -1.
         -5    1    5    5    0  502 -0.84292963185E+02  0.10358782886E+03  0.31569603334E+03  0.34281455249E+03  0.47000000000E+01 0.  1.
         11    1    6    6    0    0 -0.74728200968E+02 -0.30068367531E+02  0.27524457415E+03  0.28678909733E+03  0.00000000000E+00 0. -1.
        -12    1    6    6    0    0  0.20565302880E+02 -0.26159397402E+01  0.78210578067E+02  0.80911490808E+02  0.00000000000E+00 0.  1.
</event>
<event>
12    1  0.1035051E+000  0.1841908E+03  0.7818608E-02  0.1164580E+00
         21   -1    0    0  501  502  0.00000000000E+00  0.00000000000E+00  0.21017059630E+03  0.21017059630E+03  0.00000000000E+00 0.  1.
         21   -1    0    0  502  503 -0.00000000000E+00 -0.00000000000E+00 -0.21130746655E+03  0.21130746655E+03  0.00000000000E+00 0.  1.
         -6    2    1    2    0  503 -0.13455481965E+02 -0.60727851398E+02  0.10470250763E+03  0.20904404888E+03  0.16990549531E+03 0.  0.
        -24    2    3    3    0    0 -0.62631290682E+02 -0.22068373820E+02  0.10054893797E+03  0.14617786154E+03  0.82753770801E+02 0.  0.
          6    2    1    2  501    0  0.13455481965E+02  0.60727851398E+02 -0.10583937788E+03  0.21243401396E+03  0.17337045437E+03 0.  0.
         24    2    5    5    0    0  0.27125157625E+01  0.10582390163E+03 -0.96158459735E+02  0.16484330852E+03  0.81980553100E+02 0.  0.
          5    1    5    5  501    0  0.10742966203E+02 -0.45096050228E+02 -0.96809181484E+01  0.47590705450E+02  0.47000000000E+01 0. -1.
        -11    1    6    6    0    0  0.95195540366E+01 -0.59232373463E+01 -0.36091571135E+02  0.37792964381E+02  0.00000000000E+00 0.  1.
         12    1    6    6    0    0 -0.68070382741E+01  0.11174713897E+03 -0.60066888599E+02  0.12705034413E+03  0.00000000000E+00 0. -1.
         -5    1    3    3    0  503  0.49175808716E+02 -0.38659477578E+02  0.41535696611E+01  0.62866187338E+02  0.47000000000E+01 0.  1.
         13    1    4    4    0    0  0.20359843903E+02 -0.91728556213E+00  0.21592100734E+02  0.29691471345E+02  0.00000000000E+00 0. -1.
        -14    1    4    4    0    0 -0.82991134584E+02 -0.21151088258E+02  0.78956837239E+02  0.11648639020E+03  0.00000000000E+00 0.  1.
</event>
<event>
12    1  0.1035051E+000  0.7518321E+03  0.7818608E-02  0.9632823E-01
         21   -1    0    0  503  502  0.00000000000E+00  0.00000000000E+00  0.18073333252E+04  0.18073333252E+04  0.00000000000E+00 0. -1.
         21   -1    0    0  501  503 -0.00000000000E+00 -0.00000000000E+00 -0.62625311234E+03  0.62625311234E+03  0.00000000000E+00 0. -1.
          6    2    1    2  501    0 -0.72553334339E+03 -0.90447132742E+02 -0.27070176935E+03  0.79908129064E+03  0.17513464800E+03 0.  0.
         24    2    3    3    0    0 -0.42750417724E+03 -0.10931487033E+03 -0.20517516890E+03  0.49331471176E+03  0.80950555700E+02 0.  0.
         -6    2    1    2    0  502  0.72553334339E+03  0.90447132742E+02  0.14517819822E+04  0.16345051469E+04  0.17133836461E+03 0.  0.
        -24    2    5    5    0    0  0.25037657373E+03  0.85720780970E+02  0.51162905923E+03  0.58107935324E+03  0.76501238915E+02 0.  0.
          5    1    3    3  501    0 -0.29802916614E+03  0.18867737585E+02 -0.65526600455E+02  0.30576657888E+03  0.47000000000E+01 0. -1.
        -13    1    4    4    0    0 -0.81626341501E+02  0.10658044323E+02 -0.31888480513E+02  0.88279831927E+02  0.00000000000E+00 0.  1.
         14    1    4    4    0    0 -0.34587783574E+03 -0.11997291465E+03 -0.17328668838E+03  0.40503487983E+03  0.00000000000E+00 0. -1.
         -5    1    5    5    0  502  0.47515676966E+03  0.47263517716E+01  0.94015292298E+03  0.10534257937E+04  0.47000000000E+01 0.  1.
         11    1    6    6    0    0  0.66197371536E+02  0.18682410546E+02  0.21337767208E+03  0.22418999845E+03  0.00000000000E+00 0. -1.
        -12    1    6    6    0    0  0.18417920219E+03  0.67038370425E+02  0.29825138715E+03  0.35688935479E+03  0.00000000000E+00 0.  1.
</event>
<event>
12    1  0.1035051E+000  0.2350342E+03  0.7818608E-02  0.1125913E+00
         21   -1    0    0  503  502  0.00000000000E+00  0.00000000000E+00  0.21144267802E+03  0.21144267802E+03  0.00000000000E+00 0. -1.
         21   -1    0    0  501  503 -0.00000000000E+00 -0.00000000000E+00 -0.38151242404E+03  0.38151242404E+03  0.00000000000E+00 0. -1.
          6    2    1    2  501    0 -0.13513600584E+03 -0.27894483802E+02  0.94621974672E+02  0.23897377653E+03  0.17063207635E+03 0.  0.
         24    2    3    3    0    0 -0.12980583215E+03 -0.28788997744E+02  0.13030318410E+03  0.20258078802E+03  0.79885514545E+02 0.  0.
         -6    2    1    2    0  502  0.13513600584E+03  0.27894483802E+02 -0.26469172069E+03  0.35398132553E+03  0.19026620699E+03 0.  0.
        -24    2    5    5    0    0  0.35785299740E+02 -0.22553402485E+02 -0.20637483149E+03  0.22813021668E+03  0.87541881686E+02 0.  0.
          5    1    3    3  501    0 -0.53301736903E+01  0.89451394272E+00 -0.35681209431E+02  0.36392988517E+02  0.47000000000E+01 0. -1.
        -13    1    4    4    0    0 -0.69667505725E+02  0.24142942864E+02  0.49589535317E+02  0.88856992167E+02  0.00000000000E+00 0.  1.
         14    1    4    4    0    0 -0.60138326426E+02 -0.52931940608E+02  0.80713648785E+02  0.11372379585E+03  0.00000000000E+00 0. -1.
         -5    1    5    5    0  502  0.99350706102E+02  0.50447886286E+02 -0.58316889199E+02  0.12585110885E+03  0.47000000000E+01 0.  1.
         11    1    6    6    0    0  0.48856577215E+02 -0.43338816375E+02 -0.10363186314E+03  0.12249400475E+03  0.00000000000E+00 0. -1.
        -12    1    6    6    0    0 -0.13071277476E+02  0.20785413891E+02 -0.10274296835E+03  0.10563621193E+03  0.00000000000E+00 0.  1.
</event>
<event>
12    1  0.1035051E+000  0.2325754E+03  0.7818608E-02  0.1124885E+00
         21   -1    0    0  501  502  0.00000000000E+00  0.00000000000E+00  0.99180111356E+03  0.99180111356E+03  0.00000000000E+00 0. -1.
         21   -1    0    0  502  503 -0.00000000000E+00 -0.00000000000E+00 -0.54992274687E+02  0.54992274687E+02  0.00000000000E+00 0. -1.
         -6    2    1    2    0  503  0.11868896028E+03 -0.10256625356E+03  0.41755043338E+03  0.47782889013E+03  0.17136270939E+03 0.  0.
        -24    2    3    3    0    0  0.54792055253E+02 -0.35875268965E+02  0.88269126097E+02  0.13580729546E+03  0.79768280890E+02 0.  0.
          6    2    1    2  501    0 -0.11868896028E+03  0.10256625356E+03  0.51925840550E+03  0.56896449811E+03  0.17171022909E+03 0.  0.
         24    2    5    5    0    0 -0.59912650203E+02 -0.13083709349E+02  0.18717676625E+03  0.21241173389E+03  0.79516625730E+02 0.  0.
          5    1    5    5  501    0 -0.58776310077E+02  0.11564996291E+03  0.33208163925E+03  0.35655276422E+03  0.47000000000E+01 0. -1.
        -13    1    6    6    0    0 -0.41522701567E+02  0.25316524873E+02  0.54366349593E+02  0.72943547659E+02  0.00000000000E+00 0.  1.
         14    1    6    6    0    0 -0.18389948636E+02 -0.38400234221E+02  0.13281041665E+03  0.13946818623E+03  0.00000000000E+00 0. -1.
         -5    1    3    3    0  503  0.63896905027E+02 -0.66690984599E+02  0.32928130728E+03  0.34202159467E+03  0.47000000000E+01 0.  1.
         11    1    4    4    0    0 -0.57281520435E+01  0.13046247687E+02  0.44059021785E+02  0.46305655218E+02  0.00000000000E+00 0. -1.
        -12    1    4    4    0    0  0.60520207296E+02 -0.48921516652E+02  0.44210104313E+02  0.89501640242E+02  0.00000000000E+00 0.  1.
</event>
<event>
12    1  0.1035051E+000  0.1857888E+03  0.7818608E-02  0.1162421E+00
         21   -1    0    0  503  502  0.00000000000E+00  0.00000000000E+00  0.16819311205E+03  0.16819311205E+03  0.00000000000E+00 0. -1.
         21   -1    0    0  501  503 -0.00000000000E+00 -0.00000000000E+00 -0.28393665058E+03  0.28393665058E+03  0.00000000000E+00 0. -1.
          6    2    1    2  501    0 -0.36530737783E+02 -0.59823983176E+02 -0.17722574015E+03  0.25643215206E+03  0.17156655232E+03 0.  0.
         24    2    3    3    0    0 -0.59298893408E+02 -0.81890612980E+01 -0.17346669507E+03  0.19968028436E+03  0.78728026639E+02 0.  0.
         -6    2    1    2    0  502  0.36530737783E+02  0.59823983176E+02  0.61482201619E+02  0.19569761057E+03  0.17205839097E+03 0.  0.
        -24    2    5    5    0    0 -0.46603228164E+02  0.27498869710E+02  0.31510475523E+02  0.10148209370E+03  0.79860231427E+02 0.  0.
          5    1    3    3  501    0  0.22768155625E+02 -0.51634921878E+02 -0.37590450765E+01  0.56751867704E+02  0.47000000000E+01 0. -1.
        -13    1    4    4    0    0 -0.17459269387E+02 -0.32824990928E+02 -0.12753248455E+03  0.13284141196E+03  0.00000000000E+00 0.  1.
         14    1    4    4    0    0 -0.41839624021E+02  0.24635929630E+02 -0.45934210522E+02  0.66838872397E+02  0.00000000000E+00 0. -1.
         -5    1    5    5    0  502  0.83133965947E+02  0.32325113467E+02  0.29971726096E+02  0.94215516874E+02  0.47000000000E+01 0.  1.
         13    1    6    6    0    0  0.21417083475E+02  0.15898694546E+02  0.14723682452E+02  0.30467142593E+02  0.00000000000E+00 0. -1.
        -14    1    6    6    0    0 -0.68020311639E+02  0.11600175163E+02  0.16786793072E+02  0.71014951108E+02  0.00000000000E+00 0.  1.
</event>
<event>
12    1  0.1035051E+000  0.3274884E+03  0.7818608E-02  0.1073213E+00
         21   -1    0    0  503  502  0.00000000000E+00  0.00000000000E+00  0.19494240976E+03  0.19494240976E+03  0.00000000000E+00 0. -1.
         21   -1    0    0  501  503 -0.00000000000E+00 -0.00000000000E+00 -0.53817566005E+03  0.53817566005E+03  0.00000000000E+00 0. -1.
          6    2    1    2  501    0 -0.26782121146E+03 -0.36183169479E+01 -0.15068479918E+03  0.36049210488E+03  0.18843395513E+03 0.  0.
         24    2    3    3    0    0 -0.19637514551E+03 -0.29378623326E+02 -0.17943345025E+03  0.27914895112E+03  0.79381815045E+02 0.  0.
         -6    2    1    2    0  502  0.26782121146E+03  0.36183169479E+01 -0.19254845111E+03  0.37262596493E+03  0.17330294340E+03 0.  0.
        -24    2    5    5    0    0  0.77756844111E+02 -0.47873742367E+02 -0.88083835343E+02  0.14966668197E+03  0.79393523857E+02 0.  0.
          5    1    3    3  501    0 -0.71446065954E+02  0.25760306379E+02  0.28748651069E+02  0.81343153759E+02  0.47000000000E+01 0. -1.
        -11    1    4    4    0    0 -0.71714629677E+02  0.26335281656E+02 -0.76858704612E+02  0.10836879461E+03  0.00000000000E+00 0.  1.
         12    1    4    4    0    0 -0.12466051583E+03 -0.55713904983E+02 -0.10257474564E+03  0.17078015651E+03  0.00000000000E+00 0. -1.
         -5    1    5    5    0  502  0.19006436735E+03  0.51492059315E+02 -0.10446461576E+03  0.22295928296E+03  0.47000000000E+01 0.  1.
         13    1    6    6    0    0 -0.66366428631E+01  0.34479282943E+01 -0.38362385783E+02  0.39084599026E+02  0.00000000000E+00 0. -1.
        -14    1    6    6    0    0  0.84393486974E+02 -0.51321670661E+02 -0.49721449559E+02  0.11058208295E+03  0.00000000000E+00 0.  1.
</event>
<event>
12    1  0.1035051E+000  0.1795715E+03  0.7818608E-02  0.1168460E+00
         21   -1    0    0  503  502  0.00000000000E+00  0.00000000000E+00  0.64449671141E+03  0.64449671141E+03  0.00000000000E+00 0.  1.
         21   -1    0    0  501  503 -0.00000000000E+00 -0.00000000000E+00 -0.66608257332E+02  0.66608257332E+02  0.00000000000E+00 0.  1.
          6    2    1    2  501    0  0.17303289338E+02 -0.45820922677E+02  0.46837928238E+03  0.50162244369E+03  0.17276273636E+03 0.  0.
         24    2    3    3    0    0  0.20106074045E+02  0.90415158932E+00  0.43677192834E+03  0.44494614356E+03  0.82475945430E+02 0.  0.
         -6    2    1    2    0  502 -0.17303289338E+02  0.45820922677E+02  0.10950917170E+03  0.20948252506E+03  0.17173150218E+03 0.  0.
        -24    2    5    5    0    0  0.53356192658E+02  0.22949409359E+02  0.34634265279E+02  0.10391638404E+03  0.78901988920E+02 0.  0.
          5    1    3    3  501    0 -0.28027847065E+01 -0.46725074267E+02  0.31607354035E+02  0.56676300130E+02  0.47000000000E+01 0. -1.
        -11    1    4    4    0    0 -0.61566489306E+01  0.90496053775E+01  0.45547323691E+01  0.11855179058E+02  0.00000000000E+00 0.  1.
         12    1    4    4    0    0  0.26262722976E+02 -0.81454537881E+01  0.43221719597E+03  0.43309096450E+03  0.00000000000E+00 0. -1.
         -5    1    5    5    0  502 -0.70659481996E+02  0.22871513318E+02  0.74874906425E+02  0.10556614102E+03  0.47000000000E+01 0.  1.
         13    1    6    6    0    0 -0.48124028528E+01 -0.21094833673E+02 -0.29599659236E+01  0.21838329313E+02  0.00000000000E+00 0. -1.
        -14    1    6    6    0    0  0.58168595511E+02  0.44044243032E+02  0.37594231202E+02  0.82078054726E+02  0.00000000000E+00 0.  1.
</event>
<event>
12    1  0.1035051E+000  0.1885138E+03  0.7818608E-02  0.1162098E+00
         21   -1    0    0  503  502  0.00000000000E+00  0.00000000000E+00  0.68461644003E+02  0.68461644003E+02  0.00000000000E+00 0.  1.
         21   -1    0    0  501  503 -0.00000000000E+00 -0.00000000000E+00 -0.17451631540E+04  0.17451631540E+04  0.00000000000E+00 0.  1.
          6    2    1    2  501    0 -0.43654911682E+02 -0.21699515658E+01 -0.63874587790E+02  0.18981811631E+03  0.17332193834E+03 0.  0.
         24    2    3    3    0    0 -0.27966236732E+02  0.37743875128E+02  0.19713898682E+02  0.95752324685E+02  0.81075023125E+02 0.  0.
         -6    2    1    2    0  502  0.43654911682E+02  0.21699515658E+01 -0.16128269222E+04  0.16238066817E+04  0.18337665750E+03 0.  0.
        -24    2    5    5    0    0  0.10063189615E+03  0.25730511150E+01 -0.98624842215E+03  0.99462527225E+03  0.80374640933E+02 0.  0.
          5    1    3    3  501    0 -0.15688674950E+02 -0.39913826694E+02 -0.83588486472E+02  0.94065791623E+02  0.47000000000E+01 0. -1.
        -13    1    4    4    0    0  0.57080943217E+01 -0.18744574818E+02  0.22616821890E+02  0.29924272060E+02  0.00000000000E+00 0.  1.
         14    1    4    4    0    0 -0.33674331054E+02  0.56488449946E+02 -0.29029232086E+01  0.65828052625E+02  0.00000000000E+00 0. -1.
         -5    1    5    5    0  502 -0.56976984463E+02 -0.40309954921E+00 -0.62657850009E+03  0.62918140947E+03  0.47000000000E+01 0.  1.
         13    1    6    6    0    0  0.12449063602E+02 -0.80319814043E+01 -0.50697894204E+03  0.50719536629E+03  0.00000000000E+00 0. -1.
        -14    1    6    6    0    0  0.88182832543E+02  0.10605032519E+02 -0.47926948011E+03  0.48742990597E+03  0.00000000000E+00 0.  1.
</event>
<event>
12    1  0.1035051E+000  0.3268451E+03  0.7818608E-02  0.1072602E+00
         21   -1    0    0  501  502  0.00000000000E+00  0.00000000000E+00  0.85682316234E+03  0.85682316234E+03  0.00000000000E+00 0.  1.
         21   -1    0    0  502  503 -0.00000000000E+00 -0.00000000000E+00 -0.14252747162E+03  0.14252747162E+03  0.00000000000E+00 0. -1.
         -6    2    1    2    0  503 -0.27728590321E+03 -0.13471076506E+02  0.53473031331E+03  0.62642777930E+03  0.17148268918E+03 0.  0.
        -24    2    3    3    0    0 -0.24724956642E+03 -0.62372101608E+02  0.46164679699E+03  0.53338594924E+03  0.79750727404E+02 0.  0.
          6    2    1    2  501    0  0.27728590321E+03  0.13471076506E+02  0.17956537741E+03  0.37292285466E+03  0.17250735852E+03 0.  0.
         24    2    5    5    0    0  0.19630210997E+03 -0.31519642685E+02  0.18110304203E+03  0.28014896829E+03  0.78467358477E+02 0.  0.
          5    1    5    5  501    0  0.80983793236E+02  0.44990719191E+02 -0.15376646158E+01  0.92773886373E+02  0.47000000000E+01 0. -1.
        -11    1    6    6    0    0 -0.33718881035E+01 -0.74334758740E+01 -0.17305774138E+01  0.83439254033E+01  0.00000000000E+00 0.  1.
         12    1    6    6    0    0  0.19967399807E+03 -0.24086166811E+02  0.18283361944E+03  0.27180504288E+03  0.00000000000E+00 0. -1.
         -5    1    3    3    0  503 -0.30036336786E+02  0.48901025102E+02  0.73083516312E+02  0.93041830056E+02  0.47000000000E+01 0.  1.
         13    1    4    4    0    0 -0.89009479271E+02 -0.31303897925E+02  0.25064972308E+03  0.26782065847E+03  0.00000000000E+00 0. -1.
        -14    1    4    4    0    0 -0.15824008715E+03 -0.31068203682E+02  0.21099707391E+03  0.26556529077E+03  0.00000000000E+00 0.  1.
</event>
<event>
12    1  0.1035051E+000  0.2177758E+03  0.7818608E-02  0.1135679E+00
         21   -1    0    0  503  502  0.00000000000E+00  0.00000000000E+00  0.44862177956E+03  0.44862177956E+03  0.00000000000E+00 0. -1.
         21   -1    0    0  501  503 -0.00000000000E+00 -0.00000000000E+00 -0.11531441671E+03  0.11531441671E+03  0.00000000000E+00 0. -1.
          6    2    1    2  501    0  0.13172254518E+03 -0.12965261720E+02  0.24913481305E+03  0.33045964197E+03  0.17209443042E+03 0.  0.
         24    2    3    3    0    0  0.69650246302E+02 -0.74302053667E+02  0.13922716040E+03  0.19004256878E+03  0.79749757155E+02 0.  0.
         -6    2    1    2    0  502 -0.13172254518E+03  0.12965261720E+02  0.84172549808E+02  0.23347655430E+03  0.17293743477E+03 0.  0.
        -24    2    5    5    0    0 -0.26321664709E+01  0.28789436496E+02  0.56686245521E+02  0.10046408381E+03  0.77742792271E+02 0.  0.
          5    1    3    3  501    0  0.62072298877E+02  0.61336791947E+02  0.10990765265E+03  0.14041707320E+03  0.47000000000E+01 0. -1.
        -11    1    4    4    0    0  0.40030038197E+02 -0.62788007366E+02  0.37313231858E+02  0.83288745330E+02  0.00000000000E+00 0.  1.
         12    1    4    4    0    0  0.29620208105E+02 -0.11514046302E+02  0.10191392854E+03  0.10675382345E+03  0.00000000000E+00 0. -1.
         -5    1    5    5    0  502 -0.12909037871E+03 -0.15824174776E+02  0.27486304287E+02  0.13301247049E+03  0.47000000000E+01 0.  1.
         11    1    6    6    0    0 -0.18135775340E+02  0.39858704538E+02  0.34548605963E+01  0.43926742838E+02  0.00000000000E+00 0. -1.
        -12    1    6    6    0    0  0.15503608869E+02 -0.11069268042E+02  0.53231384924E+02  0.56537340970E+02  0.00000000000E+00 0.  1.
</event>
<event>
12    1  0.1035051E+000  0.1951781E+03  0.7818608E-02  0.1154046E+00
         21   -1    0    0  501  502  0.00000000000E+00  0.00000000000E+00  0.73022980489E+03  0.73022980489E+03  0.00000000000E+00 0.  1.
         21   -1    0    0  502  503 -0.00000000000E+00 -0.00000000000E+00 -0.52243274749E+02  0.52243274749E+02  0.00000000000E+00 0.  1.
         -6    2    1    2    0  503  0.36371927854E+02 -0.85770465389E+02  0.31065604327E+03  0.36688099190E+03  0.17150800310E+03 0.  0.
        -24    2    3    3    0    0 -0.63770606393E+01 -0.62428995736E+02  0.72473706862E+02  0.12372422025E+03  0.78212518681E+02 0.  0.
          6    2    1    2  501    0 -0.36371927854E+02  0.85770465389E+02  0.36733048687E+03  0.41559208774E+03  0.17060365453E+03 0.  0.
         24    2    5    5    0    0  0.17234900863E+01  0.60721015697E+02  0.10463726945E+03  0.14893021893E+03  0.86840311996E+02 0.  0.
          5    1    5    5  501    0 -0.38095417940E+02  0.25049449692E+02  0.26269321743E+03  0.26666186881E+03  0.47000000000E+01 0. -1.
        -13    1    6    6    0    0 -0.33191040936E+02  0.46394724122E+00  0.17959410676E+02  0.37741235768E+02  0.00000000000E+00 0.  1.
         14    1    6    6    0    0  0.34914531022E+02  0.60257068455E+02  0.86677858771E+02  0.11118898316E+03  0.00000000000E+00 0. -1.
         -5    1    3    3    0  503  0.42748988493E+02 -0.23341469653E+02  0.23818233641E+03  0.24315677165E+03  0.47000000000E+01 0.  1.
         11    1    4    4    0    0 -0.94430385478E+01  0.15080906764E+02  0.33860372826E+00  0.17796611428E+02  0.00000000000E+00 0. -1.
        -12    1    4    4    0    0  0.30659779085E+01 -0.77509902499E+02  0.72135103134E+02  0.10592760882E+03  0.00000000000E+00 0.  1.
</event>
<event>
12    1  0.1035051E+000  0.2913755E+03  0.7818608E-02  0.1090629E+00
         21   -1    0    0  503  502  0.00000000000E+00  0.00000000000E+00  0.60499418993E+03  0.60499418993E+03  0.00000000000E+00 0. -1.
         21   -1    0    0  501  503 -0.00000000000E+00 -0.00000000000E+00 -0.22561573928E+03  0.22561573928E+03  0.00000000000E+00 0. -1.
          6    2    1    2  501    0 -0.21793119240E+03 -0.58428624211E+02 -0.72515486735E+02  0.29292246038E+03  0.17215447491E+03 0.  0.
         24    2    3    3    0    0 -0.14656521857E+03 -0.64094632817E+02 -0.11265910238E+03  0.21071050413E+03  0.78213540718E+02 0.  0.
         -6    2    1    2    0  502  0.21793119240E+03  0.58428624211E+02  0.45189393738E+03  0.53768746883E+03  0.18436858396E+03 0.  0.
        -24    2    5    5    0    0  0.23918531993E+03  0.68437748101E+02  0.43561394169E+03  0.50872113047E+03  0.84524196281E+02 0.  0.
          5    1    3    3  501    0 -0.71365973825E+02  0.56660086058E+01  0.40143615642E+02  0.82211956249E+02  0.47000000000E+01 0. -1.
        -11    1    4    4    0    0 -0.81571122447E+02 -0.65530680024E+02 -0.37058096449E+02  0.11100189437E+03  0.00000000000E+00 0.  1.
         12    1    4    4    0    0 -0.64994096127E+02  0.14360472080E+01 -0.75601005928E+02  0.99708609760E+02  0.00000000000E+00 0. -1.
         -5    1    5    5    0  502 -0.21254127534E+02 -0.10009123890E+02  0.16279995687E+02  0.28966338358E+02  0.47000000000E+01 0.  1.
         11    1    6    6    0    0  0.64316553108E+02  0.15616266370E+02  0.19950601991E+03  0.21019785622E+03  0.00000000000E+00 0. -1.
        -12    1    6    6    0    0  0.17486876682E+03  0.52821481731E+02  0.23610792178E+03  0.29852327426E+03  0.00000000000E+00 0.  1.
</event>
<event>
12    1  0.1035051E+000  0.2282160E+03  0.7818608E-02  0.1128305E+00
         21   -1    0    0  503  502  0.00000000000E+00  0.00000000000E+00  0.59888936958E+03  0.59888936958E+03  0.00000000000E+00 0. -1.
         21   -1    0    0  501  503 -0.00000000000E+00 -0.00000000000E+00 -0.88545574442E+02  0.88545574442E+02  0.00000000000E+00 0. -1.
          6    2    1    2  501    0  0.10059945599E+03 -0.11060641469E+03  0.19936857965E+03  0.30303524737E+03  0.17241954959E+03 0.  0.
         24    2    3    3    0    0  0.12696922406E+03 -0.91488710301E+02  0.20492943071E+03  0.26966064095E+03  0.78926685819E+02 0.  0.
         -6    2    1    2    0  502 -0.10059945599E+03  0.11060641469E+03  0.31097521549E+03  0.38439969665E+03  0.16942111032E+03 0.  0.
        -24    2    5    5    0    0 -0.10791234673E+03  0.13039689664E+03  0.21036547028E+03  0.28149414590E+03  0.79604634643E+02 0.  0.
          5    1    3    3  501    0 -0.26369768069E+02 -0.19117704389E+02 -0.55608510620E+01  0.33374606420E+02  0.47000000000E+01 0. -1.
        -13    1    4    4    0    0  0.94941061499E+02 -0.88657683132E+02  0.11265630568E+03  0.17194601811E+03  0.00000000000E+00 0.  1.
         14    1    4    4    0    0  0.32028162561E+02 -0.28310271689E+01  0.92273125035E+02  0.97714622834E+02  0.00000000000E+00 0. -1.
         -5    1    5    5    0  502  0.73128907362E+01 -0.19790481949E+02  0.10060974520E+03  0.10290555076E+03  0.47000000000E+01 0.  1.
         13    1    6    6    0    0  0.89429181563E+01 -0.30153797111E+01  0.76587539119E+01  0.12154209618E+02  0.00000000000E+00 0. -1.
        -14    1    6    6    0    0 -0.11685526488E+03  0.13341227635E+03  0.20270671637E+03  0.26933993628E+03  0.00000000000E+00 0.  1.
</event>
<event>
12    1  0.1035051E+000  0.2695851E+03  0.7818608E-02  0.1101849E+00
         21   -1    0    0  503  502  0.00000000000E+00  0.00000000000E+00  0.75260309135E+03  0.75260309135E+03  0.00000000000E+00 0.  1.
         21   -1    0    0  501  503 -0.00000000000E+00 -0.00000000000E+00 -0.96314715425E+02  0.96314715425E+02  0.00000000000E+00 0.  1.
          6    2    1    2  501    0  0.19635911738E+02  0.20380153466E+03  0.29685662268E+03  0.40099870438E+03  0.17537238073E+03 0.  0.
         24    2    3    3    0    0 -0.39445442892E+02  0.18974165268E+03  0.25400884577E+03  0.32652516054E+03  0.67382111914E+02 0.  0.
         -6    2    1    2    0  502 -0.19635911738E+02 -0.20380153466E+03  0.35943175324E+03  0.44791910240E+03  0.17181298698E+03 0.  0.
        -24    2    5    5    0    0 -0.14559345137E+02 -0.17254765230E+03  0.16883233878E+03  0.25465036855E+03  0.79735718088E+02 0.  0.
          5    1    3    3  501    0  0.59081354630E+02  0.14059881981E+02  0.42847776911E+02  0.74473543843E+02  0.47000000000E+01 0. -1.
        -13    1    4    4    0    0 -0.45554347574E+02  0.70494451379E+02  0.12674597485E+03  0.15201713192E+03  0.00000000000E+00 0.  1.
         14    1    4    4    0    0  0.61089046818E+01  0.11924720130E+03  0.12726287093E+03  0.17450802862E+03  0.00000000000E+00 0. -1.
         -5    1    5    5    0  502 -0.50765666008E+01 -0.31253882360E+02  0.19059941446E+03  0.19326873385E+03  0.47000000000E+01 0.  1.
         11    1    6    6    0    0 -0.21673833752E+02 -0.16948496993E+03  0.17512512339E+03  0.24467063360E+03  0.00000000000E+00 0. -1.
        -12    1    6    6    0    0  0.71144886152E+01 -0.30626823729E+01 -0.62927846120E+01  0.99797349537E+01  0.00000000000E+00 0.  1.
</event>
<event>
12    1  0.1035051E+000  0.2740766E+03  0.7818608E-02  0.1099167E+00
         21   -1    0    0  503  502  0.00000000000E+00  0.00000000000E+00  0.56757613785E+03  0.56757613785E+03  0.00000000000E+00 0. -1.
         21   -1    0    0  501  503 -0.00000000000E+00 -0.00000000000E+00 -0.27142533513E+03  0.27142533513E+03  0.00000000000E+00 0. -1.
          6    2    1    2  501    0  0.21390803556E+03  0.22311614829E+02  0.44890889330E+03  0.52522921946E+03  0.16760692903E+03 0.  0.
         24    2    3    3    0    0  0.52507144743E+02 -0.17019926476E+02  0.11135034267E+03  0.14897786358E+03  0.82151243924E+02 0.  0.
         -6    2    1    2    0  502 -0.21390803556E+03 -0.22311614829E+02 -0.15275809057E+03  0.31377225352E+03  0.16989272206E+03 0.  0.
        -24    2    5    5    0    0 -0.89033014067E+02  0.44534312540E+02 -0.10348116902E+03  0.16373074594E+03  0.78671610113E+02 0.  0.
          5    1    3    3  501    0  0.16140089082E+03  0.39331541305E+02  0.33755855063E+03  0.37625135588E+03  0.47000000000E+01 0. -1.
        -13    1    4    4    0    0  0.27423627243E+02 -0.44000813170E+02  0.95923392980E+02  0.10903863633E+03  0.00000000000E+00 0.  1.
         14    1    4    4    0    0  0.25083517501E+02  0.26980886694E+02  0.15426949687E+02  0.39939227254E+02  0.00000000000E+00 0. -1.
         -5    1    5    5    0  502 -0.12487502149E+03 -0.66845927368E+02 -0.49276921553E+02  0.15004150758E+03  0.47000000000E+01 0.  1.
         11    1    6    6    0    0  0.13187085467E+02  0.17303478505E+01 -0.19694305669E+01  0.13445147212E+02  0.00000000000E+00 0. -1.
        -12    1    6    6    0    0 -0.10222009953E+03  0.42803964689E+02 -0.10151173845E+03  0.15028559873E+03  0.00000000000E+00 0.  1.
</event>
<event>
12    1  0.1035051E+000  0.2401168E+03  0.7818608E-02  0.1119978E+00
         21   -1    0    0  503  502  0.00000000000E+00  0.00000000000E+00  0.66020582946E+03  0.66020582946E+03  0.00000000000E+00 0. -1.
         21   -1    0    0  501  503 -0.00000000000E+00 -0.00000000000E+00 -0.99664524332E+02  0.99664524332E+02  0.00000000000E+00 0. -1.
          6    2    1    2  501    0 -0.26858503020E+02 -0.16493171165E+03  0.41779658062E+03  0.48188181073E+03  0.17243041508E+03 0.  0.
         24    2    3    3    0    0  0.19582397436E+01 -0.17861593545E+03  0.39875021941E+03  0.44443162355E+03  0.81303403573E+02 0.  0.
         -6    2    1    2    0  502  0.26858503020E+02  0.16493171165E+03  0.14274472451E+03  0.27798854307E+03  0.17022844947E+03 0.  0.
        -24    2    5    5    0    0  0.71425607655E+02  0.16115461148E+03  0.11854218453E+03  0.22691657186E+03  0.79790067309E+02 0.  0.
          5    1    3    3  501    0 -0.28816742764E+02  0.13684223800E+02  0.19046361211E+02  0.37450187182E+02  0.47000000000E+01 0. -1.
        -13    1    4    4    0    0 -0.17703605926E+02 -0.12948792761E+03  0.20122983651E+03  0.23994580255E+03  0.00000000000E+00 0.  1.
         14    1    4    4    0    0  0.19661845670E+02 -0.49128007838E+02  0.19752038289E+03  0.20448582099E+03  0.00000000000E+00 0. -1.
         -5    1    5    5    0  502 -0.44567104634E+02  0.37771001643E+01  0.24202539983E+02  0.51071971205E+02  0.47000000000E+01 0.  1.
         11    1    6    6    0    0 -0.65227310048E+00  0.12605355823E+02  0.43968609919E+02  0.45744498181E+02  0.00000000000E+00 0. -1.
        -12    1    6    6    0    0  0.72077880755E+02  0.14854925566E+03  0.74573574608E+02  0.18117207368E+03  0.00000000000E+00 0.  1.
</event>
<event>
12    1  0.1035051E+000  0.1968703E+03  0.7818608E-02  0.1152506E+00
         21   -1    0    0  503  502  0.00000000000E+00  0.00000000000E+00  0.14917346373E+03  0.14917346373E+03  0.00000000000E+00 0.  1.
         21   -1    0    0  501  503 -0.00000000000E+00 -0.00000000000E+00 -0.34716504217E+03  0.34716504217E+03  0.00000000000E+00 0.  1.
          6    2    1    2  501    0 -0.24598777705E+02  0.90303227382E+02 -0.22382399263E+03  0.29778060046E+03  0.17267406752E+03 0.  0.
         24    2    3    3    0    0 -0.33883284008E+02  0.12515316525E+03 -0.20926082218E+03  0.25860284963E+03  0.79208272489E+02 0.  0.
         -6    2    1    2    0  502  0.24598777705E+02 -0.90303227382E+02  0.25832414195E+02  0.19855790544E+03  0.17319975592E+03 0.  0.
        -24    2    5    5    0    0  0.51809009203E+02 -0.10334298519E+03 -0.20856710575E+02  0.14276905034E+03  0.81142179758E+02 0.  0.
          5    1    3    3  501    0  0.92845063035E+01 -0.34849937866E+02 -0.14563170457E+02  0.39177750833E+02  0.47000000000E+01 0. -1.
        -13    1    4    4    0    0  0.82921149411E+01 -0.80182470317E+01 -0.23515634937E+02  0.26192299291E+02  0.00000000000E+00 0.  1.
         14    1    4    4    0    0 -0.42175398949E+02  0.13317141228E+03 -0.18574518724E+03  0.23241055034E+03  0.00000000000E+00 0. -1.
         -5    1    5    5    0  502 -0.27210231498E+02  0.13039757810E+02  0.46689124770E+02  0.55788855103E+02  0.47000000000E+01 0.  1.
         11    1    6    6    0    0 -0.29465685737E+01 -0.28536298509E+02  0.26158580433E+02  0.38823625916E+02  0.00000000000E+00 0. -1.
        -12    1    6    6    0    0  0.54755577777E+02 -0.74806686683E+02 -0.47015291008E+02  0.10394542442E+03  0.00000000000E+00 0.  1.
</event>
<event>
12    1  0.1035051E+000  0.2876525E+03  0.7818608E-02  0.1091714E+00
         21   -1    0    0  503  502  0.00000000000E+00  0.00000000000E+00  0.90807870719E+03  0.90807870719E+03  0.00000000000E+00 0.  1.
         21   -1    0    0  501  503 -0.00000000000E+00 -0.00000000000E+00 -0.97181732997E+02  0.97181732997E+02  0.00000000000E+00 0.  1.
          6    2    1    2  501    0  0.22448739851E+02  0.22976244549E+03  0.27598964368E+03  0.39791390905E+03  0.16991311992E+03 0.  0.
         24    2    3    3    0    0  0.71411607193E+02  0.18619203301E+03  0.17309956013E+03  0.27583113993E+03  0.79701124470E+02 0.  0.
         -6    2    1    2    0  502 -0.22448739851E+02 -0.22976244549E+03  0.53490733051E+03  0.60734653114E+03  0.17160777771E+03 0.  0.
        -24    2    5    5    0    0 -0.64016693257E+02 -0.74545427586E+02  0.24402914611E+03  0.27500269479E+03  0.80131767741E+02 0.  0.
          5    1    3    3  501    0 -0.48962867343E+02  0.43570412475E+02  0.10289008356E+03  0.12208276912E+03  0.47000000000E+01 0. -1.
        -13    1    4    4    0    0  0.68745004863E+02  0.69339632955E+02  0.85157309758E+02  0.12955936013E+03  0.00000000000E+00 0.  1.
         14    1    4    4    0    0  0.26666023301E+01  0.11685240006E+03  0.87942250368E+02  0.14627177980E+03  0.00000000000E+00 0. -1.
         -5    1    5    5    0  502  0.41567953406E+02 -0.15521701790E+03  0.29087818440E+03  0.33234383634E+03  0.47000000000E+01 0.  1.
         13    1    6    6    0    0 -0.35881773961E+00 -0.34562286628E+02  0.15344264773E+03  0.15728740112E+03  0.00000000000E+00 0. -1.
        -14    1    6    6    0    0 -0.63657875518E+02 -0.39983140959E+02  0.90586498379E+02  0.11771529367E+03  0.00000000000E+00 0.  1.
</event>
<event>
12    1  0.1035051E+000  0.2276274E+03  0.7818608E-02  0.1128361E+00
         21   -1    0    0  501  502  0.00000000000E+00  0.00000000000E+00  0.10553346655E+03  0.10553346655E+03  0.00000000000E+00 0. -1.
         21   -1    0    0  502  503 -0.00000000000E+00 -0.00000000000E+00 -0.49450489968E+03  0.49450489968E+03  0.00000000000E+00 0. -1.
         -6    2    1    2    0  503 -0.13172380924E+03 -0.69026488253E+02 -0.16735227964E+03  0.28234463982E+03  0.17203456668E+03 0.  0.
        -24    2    3    3    0    0 -0.14548975651E+03 -0.22507846689E+02 -0.85962396792E+02  0.18747689848E+03  0.78001162739E+02 0.  0.
          6    2    1    2  501    0  0.13172380924E+03  0.69026488253E+02 -0.22161915349E+03  0.31769372640E+03  0.17233234345E+03 0.  0.
         24    2    5    5    0    0  0.73866401443E+02  0.51227072253E+02 -0.40144747137E+02  0.12633189894E+03  0.79168742406E+02 0.  0.
          5    1    5    5  501    0  0.57857407799E+02  0.17799416000E+02 -0.18147440636E+03  0.19136182746E+03  0.47000000000E+01 0. -1.
        -11    1    6    6    0    0  0.87528216892E+02  0.52025594339E+02 -0.45641597339E+02  0.11158407873E+03  0.00000000000E+00 0.  1.
         12    1    6    6    0    0 -0.13661815449E+02 -0.79852208514E+00  0.54968502020E+01  0.14747820212E+02  0.00000000000E+00 0. -1.
         -5    1    3    3    0  503  0.13765947271E+02 -0.46518641564E+02 -0.81389882843E+02  0.94867741337E+02  0.47000000000E+01 0.  1.
         11    1    4    4    0    0 -0.35806974082E+02  0.18099520450E+02 -0.52016092366E+02  0.65691749089E+02  0.00000000000E+00 0. -1.
        -12    1    4    4    0    0 -0.10968278243E+03 -0.40607367140E+02 -0.33946304426E+02  0.12178514939E+03  0.00000000000E+00 0.  1.
</event>
<event>
12    1  0.1035051E+000  0.2065733E+03  0.7818608E-02  0.1145534E+00
         21   -1    0    0  501  502  0.00000000000E+00  0.00000000000E+00  0.21848300103E+03  0.21848300103E+03  0.00000000000E+00 0. -1.
         21   -1    0    0  502  503 -0.00000000000E+00 -0.00000000000E+00 -0.20382059991E+03  0.20382059991E+03  0.00000000000E+00 0. -1.
         -6    2    1    2    0  503  0.89663390737E+02  0.71519253072E+02  0.62976981873E+02  0.21595981666E+03  0.17180807596E+03 0.  0.
        -24    2    3    3    0    0  0.54089498748E+02  0.65116894909E+02 -0.26584925184E+02  0.11926484690E+03  0.79696057500E+02 0.  0.
          6    2    1    2  501    0 -0.89663390737E+02 -0.71519253072E+02 -0.48314580750E+02  0.20634378428E+03  0.16458715441E+03 0.  0.
         24    2    5    5    0    0  0.17640440050E+02 -0.23421210834E+02  0.16157577870E+02  0.72156292290E+02  0.63919675784E+02 0.  0.
          5    1    5    5  501    0 -0.10730383079E+03 -0.48098042238E+02 -0.64472158619E+02  0.13418749199E+03  0.47000000000E+01 0. -1.
        -13    1    6    6    0    0 -0.10728655411E+02  0.17286043006E+02  0.14100950744E+01  0.20393619047E+02  0.00000000000E+00 0.  1.
         14    1    6    6    0    0  0.28369095461E+02 -0.40707253840E+02  0.14747482795E+02  0.51762673243E+02  0.00000000000E+00 0. -1.
         -5    1    3    3    0  503  0.35573891989E+02  0.64023581629E+01  0.89561907057E+02  0.96694969760E+02  0.47000000000E+01 0.  1.
         13    1    4    4    0    0 -0.11148326990E+02  0.46506259608E+02 -0.16975057673E+02  0.50747117755E+02  0.00000000000E+00 0. -1.
        -14    1    4    4    0    0  0.65237825738E+02  0.18610635301E+02 -0.96098675109E+01  0.68517729143E+02  0.00000000000E+00 0.  1.
</event>
<event>
12    1  0.1035051E+000  0.2049627E+03  0.7818608E-02  0.1145706E+00
         21   -1    0    0  501  502  0.00000000000E+00  0.00000000000E+00  0.24265542529E+03  0.24265542529E+03  0.00000000000E+00 0.  1.
         21   -1    0    0  502  503 -0.00000000000E+00 -0.00000000000E+00 -0.17276555018E+03  0.17276555018E+03  0.00000000000E+00 0.  1.
         -6    2    1    2    0  503  0.10113959770E+03 -0.44599928462E+02  0.35386388844E+02  0.20757436390E+03  0.17209459082E+03 0.  0.
        -24    2    3    3    0    0  0.17337679270E+02  0.27504764119E+02 -0.11896688093E+02  0.87243039674E+02  0.80079395679E+02 0.  0.
          6    2    1    2  501    0 -0.10113959770E+03  0.44599928462E+02  0.34503486263E+02  0.20784661157E+03  0.17260171359E+03 0.  0.
         24    2    5    5    0    0  0.11386998082E+02  0.33406083741E+02  0.32875581046E+02  0.94655282419E+02  0.81444389030E+02 0.  0.
          5    1    5    5  501    0 -0.11252659578E+03  0.11193844721E+02  0.16279052173E+01  0.11319132915E+03  0.47000000000E+01 0. -1.
        -11    1    6    6    0    0  0.22975049699E+02 -0.21658530151E+02  0.18431020895E+02  0.36560188295E+02  0.00000000000E+00 0.  1.
         12    1    6    6    0    0 -0.11588051616E+02  0.55064613892E+02  0.14444560151E+02  0.58095094124E+02  0.00000000000E+00 0. -1.
         -5    1    3    3    0  503  0.83801918432E+02 -0.72104692581E+02  0.47283076936E+02  0.12033132422E+03  0.47000000000E+01 0.  1.
         11    1    4    4    0    0  0.43360409390E+02 -0.57655477469E+01 -0.10483826073E+02  0.44980854288E+02  0.00000000000E+00 0. -1.
        -12    1    4    4    0    0 -0.26022730120E+02  0.33270311866E+02 -0.14128620201E+01  0.42262185387E+02  0.00000000000E+00 0.  1.
</event>
<event>
12    1  0.1035051E+000  0.2316834E+03  0.7818608E-02  0.1126154E+00
         21   -1    0    0  501  502  0.00000000000E+00  0.00000000000E+00  0.19235527369E+04  0.19235527369E+04  0.00000000000E+00 0. -1.
         21   -1    0    0  502  503 -0.00000000000E+00 -0.00000000000E+00 -0.46701522669E+02  0.46701522669E+02  0.00000000000E+00 0.  1.
         -6    2    1    2    0  503  0.67285047684E+02  0.13895373705E+03  0.31038406933E+03  0.38731832753E+03  0.17274778628E+03 0.  0.
        -24    2    3    3    0    0  0.49682044189E+02  0.61481146900E+02  0.28120178944E+03  0.30255062486E+03  0.78830179983E+02 0.  0.
          6    2    1    2  501    0 -0.67285047684E+02 -0.13895373705E+03  0.15664671449E+04  0.15829359321E+04  0.16742589464E+03 0.  0.
         24    2    5    5    0    0 -0.10582706890E+02 -0.12954231316E+03  0.80005854324E+03  0.81436064942E+03  0.78717152688E+02 0.  0.
          5    1    5    5  501    0 -0.56702340794E+02 -0.94114238982E+01  0.76640860168E+03  0.76857528264E+03  0.47000000000E+01 0. -1.
        -11    1    6    6    0    0 -0.43109691245E+02 -0.50051630810E+02  0.35165272438E+03  0.35780336749E+03  0.00000000000E+00 0.  1.
         12    1    6    6    0    0  0.32526984355E+02 -0.79490682346E+02  0.44840581886E+03  0.45655728193E+03  0.00000000000E+00 0. -1.
         -5    1    3    3    0  503  0.17603003495E+02  0.77472590155E+02  0.29182279884E+02  0.84767702673E+02  0.47000000000E+01 0.  1.
         13    1    4    4    0    0  0.28767145303E+02 -0.10831001073E+02  0.13079229525E+03  0.13435581018E+03  0.00000000000E+00 0. -1.
        -14    1    4    4    0    0  0.20914898886E+02  0.72312147973E+02  0.15040949420E+03  0.16819481468E+03  0.00000000000E+00 0.  1.
</event>
<event>
12    1  0.1035051E+000  0.1993187E+03  0.7818608E-02  0.1150727E+00
         21   -1    0    0  503  502  0.00000000000E+00  0.00000000000E+00  0.10215973665E+03  0.10215973665E+03  0.00000000000E+00 0.  1.
         21   -1    0    0  501  503 -0.00000000000E+00 -0.00000000000E+00 -0.41526291449E+03  0.41526291449E+03  0.00000000000E+00 0.  1.
          6    2    1    2  501    0  0.63747239378E+02  0.78259730968E+02 -0.87555539861E+02  0.21770141288E+03  0.17187098821E+03 0.  0.
         24    2    3    3    0    0  0.10278923244E+03  0.58627595380E+02 -0.97154934914E+02  0.17271323270E+03  0.79924702841E+02 0.  0.
         -6    2    1    2    0  502 -0.63747239378E+02 -0.78259730968E+02 -0.22554763798E+03  0.29972123826E+03  0.16962543337E+03 0.  0.
        -24    2    5    5    0    0 -0.34647484116E+01 -0.14677721183E+01 -0.16760906189E+03  0.18609926741E+03  0.80783543284E+02 0.  0.
          5    1    3    3  501    0 -0.39041993067E+02  0.19632135588E+02  0.95993950529E+01  0.44988180178E+02  0.47000000000E+01 0. -1.
        -11    1    4    4    0    0  0.84760304491E+02  0.31445914863E+02 -0.25420410436E+02  0.93911405301E+02  0.00000000000E+00 0.  1.
         12    1    4    4    0    0  0.18028927953E+02  0.27181680517E+02 -0.71734524478E+02  0.78801827396E+02  0.00000000000E+00 0. -1.
         -5    1    5    5    0  502 -0.60282490966E+02 -0.76791958849E+02 -0.57938576087E+02  0.11362197085E+03  0.47000000000E+01 0.  1.
         13    1    6    6    0    0 -0.78673189275E+01 -0.48302853819E+01  0.68854996911E+01  0.11516790784E+02  0.00000000000E+00 0. -1.
        -14    1    6    6    0    0  0.44025705158E+01  0.33625132636E+01 -0.17449456158E+03  0.17458247662E+03  0.00000000000E+00 0.  1.
</event>
<event>
12    1  0.1035051E+000  0.1974015E+03  0.7818608E-02  0.1152473E+00
         21   -1    0    0  503  502  0.00000000000E+00  0.00000000000E+00  0.75836937247E+02  0.75836937247E+02  0.00000000000E+00 0. -1.
         21   -1    0    0  501  503 -0.00000000000E+00 -0.00000000000E+00 -0.64073462180E+03  0.64073462180E+03  0.00000000000E+00 0. -1.
          6    2    1    2  501    0 -0.96119558930E+02  0.15005093523E+02 -0.44441838677E+03  0.48530846504E+03  0.16897479488E+03 0.  0.
         24    2    3    3    0    0 -0.74923159730E+01 -0.28325442497E+02 -0.13164935827E+03  0.15731627195E+03  0.80983889724E+02 0.  0.
         -6    2    1    2    0  502  0.96119558930E+02 -0.15005093523E+02 -0.12047929779E+03  0.23126309401E+03  0.17176505760E+03 0.  0.
        -24    2    5    5    0    0  0.17327031553E+02 -0.32126773636E+02 -0.12215116105E+03  0.15047757905E+03  0.79938976998E+02 0.  0.
          5    1    3    3  501    0 -0.88627242957E+02  0.43330536020E+02 -0.31276902849E+03  0.32799219309E+03  0.47000000000E+01 0. -1.
        -13    1    4    4    0    0 -0.10076246748E+02 -0.55008399891E+01  0.91345626313E+01  0.14670726757E+02  0.00000000000E+00 0.  1.
         14    1    4    4    0    0  0.25839307751E+01 -0.22824602508E+02 -0.14078392090E+03  0.14264554519E+03  0.00000000000E+00 0. -1.
         -5    1    5    5    0  502  0.78792527377E+02  0.17121680113E+02  0.16718632617E+01  0.80785514959E+02  0.47000000000E+01 0.  1.
         11    1    6    6    0    0 -0.26230259844E+02 -0.34356965463E+02 -0.49275001281E+02  0.65547336777E+02  0.00000000000E+00 0. -1.
        -12    1    6    6    0    0  0.43557291397E+02  0.22301918276E+01 -0.72876159771E+02  0.84930242273E+02  0.00000000000E+00 0.  1.
</event>
<event>
12    1  0.1035051E+000  0.1746679E+03  0.7818608E-02  0.1173370E+00
         21   -1    0    0  501  502  0.00000000000E+00  0.00000000000E+00  0.46065223148E+03  0.46065223148E+03  0.00000000000E+00 0.  1.
         21   -1    0    0  502  503 -0.00000000000E+00 -0.00000000000E+00 -0.75686557432E+02  0.75686557432E+02  0.00000000000E+00 0.  1.
         -6    2    1    2    0  503  0.21967253723E+02 -0.15303686421E+02  0.28895722590E+03  0.33702373085E+03  0.17138247781E+03 0.  0.
        -24    2    3    3    0    0  0.20930778226E+02 -0.71955285870E+02  0.14341290528E+03  0.18076843568E+03  0.80587252701E+02 0.  0.
          6    2    1    2  501    0 -0.21967253723E+02  0.15303686421E+02  0.96008448153E+02  0.19931505807E+03  0.17260390262E+03 0.  0.
         24    2    5    5    0    0 -0.74614518544E+02 -0.11575223388E+02  0.42741172187E+02  0.11960493967E+03  0.82323882440E+02 0.  0.
          5    1    5    5  501    0  0.52647264821E+02  0.26878909809E+02  0.53267275965E+02  0.79710118394E+02  0.47000000000E+01 0. -1.
        -13    1    6    6    0    0 -0.22880132134E+02  0.35143833046E+02  0.18028068131E+02  0.45646475090E+02  0.00000000000E+00 0.  1.
         14    1    6    6    0    0 -0.51734386410E+02 -0.46719056434E+02  0.24713104057E+02  0.73958464583E+02  0.00000000000E+00 0. -1.
         -5    1    3    3    0  503  0.10364754965E+01  0.56651599449E+02  0.14554432062E+03  0.15625529517E+03  0.47000000000E+01 0.  1.
         13    1    4    4    0    0  0.27516727798E+02  0.12726332306E+01  0.76673835600E+02  0.81471878398E+02  0.00000000000E+00 0. -1.
        -14    1    4    4    0    0 -0.65859495716E+01 -0.73227919101E+02  0.66739069677E+02  0.99296557286E+02  0.00000000000E+00 0.  1.
</event>
<event>
12    1  0.1035051E+000  0.3724183E+03  0.7818608E-02  0.1053832E+00
         21   -1    0    0  503  502  0.00000000000E+00  0.00000000000E+00  0.27911620130E+03  0.27911620130E+03  0.00000000000E+00 0.  1.
         21   -1    0    0  501  503 -0.00000000000E+00 -0.00000000000E+00 -0.53532485821E+03  0.53532485821E+03  0.00000000000E+00 0. -1.
          6    2    1    2  501    0 -0.93172729131E+02 -0.31745242924E+03 -0.17923110946E+02  0.37284935835E+03  0.17099182387E+03 0.  0.
         24    2    3    3    0    0 -0.28721296263E+02 -0.15802099201E+03 -0.71359519488E+02  0.19271077244E+03  0.79055132765E+02 0.  0.
         -6    2    1    2    0  502  0.93172729131E+02  0.31745242924E+03 -0.23828554596E+03  0.44159170116E+03  0.16960550356E+03 0.  0.
        -24    2    5    5    0    0 -0.29120563035E+01  0.10509340092E+03 -0.12707182621E+03  0.18329105393E+03  0.79970359791E+02 0.  0.
          5    1    3    3  501    0 -0.64451432868E+02 -0.15943143723E+03  0.53436408542E+02  0.18013858591E+03  0.47000000000E+01 0. -1.
        -13    1    4    4    0    0 -0.44662233662E+02 -0.54076805713E+02 -0.96885453854E+01  0.70801722743E+02  0.00000000000E+00 0.  1.
         14    1    4    4    0    0  0.15940937399E+02 -0.10394418630E+03 -0.61670974103E+02  0.12190904969E+03  0.00000000000E+00 0. -1.
         -5    1    5    5    0  502  0.96084785435E+02  0.21235902832E+03 -0.11121371975E+03  0.25830064724E+03  0.47000000000E+01 0.  1.
         13    1    6    6    0    0  0.37406077681E+02  0.34986229359E+02 -0.48962694107E+02  0.70856166326E+02  0.00000000000E+00 0. -1.
        -14    1    6    6    0    0 -0.40318133984E+02  0.70107171563E+02 -0.78109132099E+02  0.11243488760E+03  0.00000000000E+00 0.  1.
</event>
<event>
12    1  0.1035051E+000  0.2154323E+03  0.7818608E-02  0.1137374E+00
         21   -1    0    0  501  502  0.00000000000E+00  0.00000000000E+00  0.22388628968E+04  0.22388628968E+04  0.00000000000E+00 0.  1.
         21   -1    0    0  502  503 -0.00000000000E+00 -0.00000000000E+00 -0.89297309451E+02  0.89297309451E+02  0.00000000000E+00 0.  1.
         -6    2    1    2    0  503 -0.11639165625E+03  0.55498948081E+02  0.20948640137E+04  0.21058916366E+04  0.17232875039E+03 0.  0.
        -24    2    3    3    0    0 -0.80150625977E+02  0.10374103751E+03  0.13931599416E+04  0.14015824671E+04  0.79702342274E+02 0.  0.
          6    2    1    2  501    0  0.11639165625E+03 -0.55498948081E+02  0.54701573589E+02  0.22226856962E+03  0.17258013792E+03 0.  0.
         24    2    5    5    0    0  0.43997708224E+02 -0.39146511932E+02 -0.47830495079E+02  0.95606811441E+02  0.58177817156E+02 0.  0.
          5    1    5    5  501    0  0.72393948027E+02 -0.16352436148E+02  0.10253206867E+03  0.12666175818E+03  0.47000000000E+01 0. -1.
        -11    1    6    6    0    0 -0.10640878770E+02 -0.48752926065E+01  0.45106767114E+01  0.12543643147E+02  0.00000000000E+00 0.  1.
         12    1    6    6    0    0  0.54638586994E+02 -0.34271219326E+02 -0.52341171790E+02  0.83063168295E+02  0.00000000000E+00 0. -1.
         -5    1    3    3    0  503 -0.36241030275E+02 -0.48242089434E+02  0.70170407210E+03  0.70430916952E+03  0.47000000000E+01 0.  1.
         13    1    4    4    0    0 -0.21186680594E+01  0.55166756257E+02  0.34376608926E+03  0.34817091187E+03  0.00000000000E+00 0. -1.
        -14    1    4    4    0    0 -0.78031957918E+02  0.48574281258E+02  0.10493938524E+04  0.10534115552E+04  0.00000000000E+00 0.  1.
</event>
<event>
12    1  0.1035051E+000  0.3264950E+03  0.7818608E-02  0.1072702E+00
         21   -1    0    0  501  502  0.00000000000E+00  0.00000000000E+00  0.42654698795E+03  0.42654698795E+03  0.00000000000E+00 0. -1.
         21   -1    0    0  502  503 -0.00000000000E+00 -0.00000000000E+00 -0.30993319154E+03  0.30993319154E+03  0.00000000000E+00 0. -1.
         -6    2    1    2    0  503 -0.17020563111E+03 -0.21920256437E+03  0.22039072344E+03  0.39391759356E+03  0.17198627402E+03 0.  0.
        -24    2    3    3    0    0 -0.58645727169E+02 -0.30191656762E+02  0.49340349444E+02  0.11561729567E+03  0.81129720333E+02 0.  0.
          6    2    1    2  501    0  0.17020563111E+03  0.21920256437E+03 -0.10377692704E+03  0.34256258593E+03  0.17192950184E+03 0.  0.
         24    2    5    5    0    0  0.49976099034E+02  0.17068069256E+03 -0.79324886618E+02  0.21054173641E+03  0.80036715594E+02 0.  0.
          5    1    5    5  501    0  0.12022953208E+03  0.48521871806E+02 -0.24452040419E+02  0.13202084952E+03  0.47000000000E+01 0. -1.
        -11    1    6    6    0    0  0.11934533298E+02  0.83299118129E+02 -0.78729377530E+02  0.11523667408E+03  0.00000000000E+00 0.  1.
         12    1    6    6    0    0  0.38041565736E+02  0.87381574435E+02 -0.59550908779E+00  0.95305062329E+02  0.00000000000E+00 0. -1.
         -5    1    3    3    0  503 -0.11155990394E+03 -0.18901090761E+03  0.17105037400E+03  0.27830029790E+03  0.47000000000E+01 0.  1.
         13    1    4    4    0    0  0.37616683867E+01 -0.12291736122E+01 -0.18545652876E+02  0.18963181627E+02  0.00000000000E+00 0. -1.
        -14    1    4    4    0    0 -0.62407395556E+02 -0.28962483150E+02  0.67886002320E+02  0.96654114042E+02  0.00000000000E+00 0.  1.
</event>
<event>
12    1  0.1035051E+000  0.4506133E+03  0.7818608E-02  0.1027549E+00
         21   -1    0    0  503  502  0.00000000000E+00  0.00000000000E+00  0.37009709391E+03  0.37009709391E+03  0.00000000000E+00 0.  1.
         21   -1    0    0  501  503 -0.00000000000E+00 -0.00000000000E+00 -0.73698907705E+03  0.73698907705E+03  0.00000000000E+00 0. -1.
          6    2    1    2  501    0 -0.13789443001E+03  0.39311643027E+03 -0.46337397773E+03  0.64625959482E+03  0.17140775678E+03 0.  0.
         24    2    3    3    0    0 -0.95047120569E+02  0.11672989849E+03 -0.17473897353E+03  0.24431723263E+03  0.80606308432E+02 0.  0.
         -6    2    1    2    0  502  0.13789443001E+03 -0.39311643027E+03  0.96481994591E+02  0.46082657615E+03  0.17174677997E+03 0.  0.
        -24    2    5    5    0    0  0.64243695788E+02 -0.35010976798E+03  0.85792036022E+02  0.37474307676E+03  0.79799737152E+02 0.  0.
          5    1    3    3  501    0 -0.42847309442E+02  0.27638653177E+03 -0.28863500419E+03  0.40194236219E+03  0.47000000000E+01 0. -1.
        -13    1    4    4    0    0 -0.96634693243E+02  0.12317927815E+03 -0.17788379040E+03  0.23696843966E+03  0.00000000000E+00 0.  1.
         14    1    4    4    0    0  0.15875726737E+01 -0.64493796628E+01  0.31448168714E+01  0.73487929746E+01  0.00000000000E+00 0. -1.
         -5    1    5    5    0  502  0.73650734223E+02 -0.43006662282E+02  0.10689958569E+02  0.86083499386E+02  0.47000000000E+01 0.  1.
         11    1    6    6    0    0  0.31378233590E+02 -0.48938084020E+02  0.34124529626E+02  0.67409295598E+02  0.00000000000E+00 0. -1.
        -12    1    6    6    0    0  0.32865462197E+02 -0.30117168396E+03  0.51667506396E+02  0.30733378116E+03  0.00000000000E+00 0.  1.
</event>
<event>
12    1  0.1035051E+000  0.2416162E+03  0.7818608E-02  0.1118820E+00
         21   -1    0    0  501  502  0.00000000000E+00  0.00000000000E+00  0.59296708539E+02  0.59296708539E+02  0.00000000000E+00 0.  1.
         21   -1    0    0  502  503 -0.00000000000E+00 -0.00000000000E+00 -0.11157096834E+04  0.11157096834E+04  0.00000000000E+00 0.  1.
         -6    2    1    2    0  503  0.13647734048E+03  0.98908375787E+02 -0.32429452037E+03  0.40404866114E+03  0.17227725724E+03 0.  0.
        -24    2    3    3    0    0  0.89414037928E+02  0.45590137140E+02 -0.10273867404E+03  0.17131088582E+03  0.93374802136E+02 0.  0.
          6    2    1    2  501    0 -0.13647734048E+03 -0.98908375787E+02 -0.73211845445E+03  0.77095773076E+03  0.17311689692E+03 0.  0.
         24    2    5    5    0    0 -0.38089968548E+02 -0.40747105167E+02 -0.52947413608E+03  0.53825702572E+03  0.79161813250E+02 0.  0.
          5    1    5    5  501    0 -0.98387371932E+02 -0.58161270621E+02 -0.20264431837E+03  0.23270070503E+03  0.47000000000E+01 0. -1.
        -13    1    6    6    0    0 -0.55634182043E+02 -0.10143440597E+02 -0.40325925516E+03  0.40720520438E+03  0.00000000000E+00 0.  1.
         14    1    6    6    0    0  0.17544213494E+02 -0.30603664570E+02 -0.12621488092E+03  0.13105182135E+03  0.00000000000E+00 0. -1.
         -5    1    3    3    0  503  0.47063302552E+02  0.53318238647E+02 -0.22155584632E+03  0.23273777532E+03  0.47000000000E+01 0.  1.
         11    1    4    4    0    0  0.78451298724E+02  0.19171385979E+02 -0.11472361585E+03  0.14029845454E+03  0.00000000000E+00 0. -1.
        -12    1    4    4    0    0  0.10962739205E+02  0.26418751161E+02  0.11984941811E+02  0.31012431282E+02  0.00000000000E+00 0.  1.
</event>
<event>
12    1  0.1035051E+000  0.3379242E+03  0.7818608E-02  0.1067698E+00
         21   -1    0    0  501  502  0.00000000000E+00  0.00000000000E+00  0.21220911325E+03  0.21220911325E+03  0.00000000000E+00 0. -1.
         21   -1    0    0  502  503 -0.00000000000E+00 -0.00000000000E+00 -0.59225404201E+03  0.59225404201E+03  0.00000000000E+00 0. -1.
         -6    2    1    2    0  503 -0.13921035217E+03 -0.25587384640E+03 -0.68130178630E+02  0.34458973664E+03  0.17102461206E+03 0.  0.
        -24    2    3    3    0    0 -0.17026443758E+03 -0.21796834829E+03 -0.44211799822E+02  0.28985983756E+03  0.74591303981E+02 0.  0.
          6    2    1    2  501    0  0.13921035217E+03  0.25587384640E+03 -0.31191475013E+03  0.45987341862E+03  0.17129449023E+03 0.  0.
         24    2    5    5    0    0  0.12482676689E+03  0.21501989629E+03 -0.16964150706E+03  0.31107927069E+03  0.78592583627E+02 0.  0.
          5    1    5    5  501    0  0.14383585278E+02  0.40853950106E+02 -0.14227324307E+03  0.14879414793E+03  0.47000000000E+01 0. -1.
        -13    1    6    6    0    0 -0.91072016460E+01  0.31923269840E+02 -0.29633482863E+02  0.44499208821E+02  0.00000000000E+00 0.  1.
         14    1    6    6    0    0  0.13393396854E+03  0.18309662645E+03 -0.14000802420E+03  0.26658006187E+03  0.00000000000E+00 0. -1.
         -5    1    3    3    0  503  0.31054085408E+02 -0.37905498114E+02 -0.23918378807E+02  0.54729899074E+02  0.47000000000E+01 0.  1.
         11    1    4    4    0    0 -0.88301568754E+02 -0.54945826111E+02 -0.16151975995E+02  0.10524778943E+03  0.00000000000E+00 0. -1.
        -12    1    4    4    0    0 -0.81962868825E+02 -0.16302252217E+03 -0.28059823827E+02  0.18461204813E+03  0.00000000000E+00 0.  1.
</event>
<event>
12    1  0.1035051E+000  0.1831816E+03  0.7818608E-02  0.1164882E+00
         21   -1    0    0  501  502  0.00000000000E+00  0.00000000000E+00  0.57510504114E+02  0.57510504114E+02  0.00000000000E+00 0. -1.
         21   -1    0    0  502  503 -0.00000000000E+00 -0.00000000000E+00 -0.67041870151E+03  0.67041870151E+03  0.00000000000E+00 0. -1.
         -6    2    1    2    0  503  0.59504895388E+02  0.11390039508E+02 -0.17451241097E+03  0.25300216944E+03  0.17287264268E+03 0.  0.
        -24    2    3    3    0    0  0.78097166220E+01  0.40320335796E+02 -0.25538872303E+02  0.92613395605E+02  0.78982820249E+02 0.  0.
          6    2    1    2  501    0 -0.59504895388E+02 -0.11390039508E+02 -0.43839578643E+03  0.47492703618E+03  0.17232022099E+03 0.  0.
         24    2    5    5    0    0  0.15021488488E+02  0.38661795121E+02 -0.21789650706E+03  0.23680649896E+03  0.82934013791E+02 0.  0.
          5    1    5    5  501    0 -0.74526383876E+02 -0.50051834629E+02 -0.22049927937E+03  0.23812053722E+03  0.47000000000E+01 0. -1.
        -13    1    6    6    0    0  0.29446942771E+01 -0.26098224033E+02 -0.50669994598E+02  0.57072207550E+02  0.00000000000E+00 0.  1.
         14    1    6    6    0    0  0.12076794211E+02  0.64760019154E+02 -0.16722651246E+03  0.17973429141E+03  0.00000000000E+00 0. -1.
         -5    1    3    3    0  503  0.51695178766E+02 -0.28930296288E+02 -0.14897353867E+03  0.16038877384E+03  0.47000000000E+01 0.  1.
         13    1    4    4    0    0 -0.19470517259E+02  0.21305334245E+02  0.20801138771E+02  0.35576757634E+02  0.00000000000E+00 0. -1.
        -14    1    4    4    0    0  0.27280233881E+02  0.19015001551E+02 -0.46340011074E+02  0.57036637971E+02  0.00000000000E+00 0.  1.
</event>
<event>
12    1  0.1035051E+000  0.2003539E+03  0.7818608E-02  0.1149527E+00
         21   -1    0    0  501  502  0.00000000000E+00  0.00000000000E+00  0.15931550504E+03  0.15931550504E+03  0.00000000000E+00 0. -1.
         21   -1    0    0  502  503 -0.00000000000E+00 -0.00000000000E+00 -0.35084226718E+03  0.35084226718E+03  0.00000000000E+00 0. -1.
         -6    2    1    2    0  503  0.98836848392E+02 -0.24992352292E+02 -0.23159953053E+03  0.30623521918E+03  0.17247703225E+03 0.  0.
        -24    2    3    3    0    0  0.86627358701E+02 -0.75569379987E+02 -0.17715372464E+03  0.23077964849E+03  0.93063277064E+02 0.  0.
          6    2    1    2  501    0 -0.98836848392E+02  0.24992352292E+02  0.40072768393E+02  0.20392255303E+03  0.17200360635E+03 0.  0.
         24    2    5    5    0    0  0.24377929139E+01 -0.95529803393E+01 -0.14719487797E+02  0.83613724113E+02  0.81715293987E+02 0.  0.
          5    1    5    5  501    0 -0.10127464131E+03  0.34545332631E+02  0.54792256190E+02  0.12030882892E+03  0.47000000000E+01 0. -1.
        -13    1    6    6    0    0 -0.18663237810E+02  0.23761897037E+02 -0.28798327922E+02  0.41740722172E+02  0.00000000000E+00 0.  1.
         14    1    6    6    0    0  0.21101030724E+02 -0.33314877377E+02  0.14078840124E+02  0.41873001940E+02  0.00000000000E+00 0. -1.
         -5    1    3    3    0  503  0.12209489691E+02  0.50577027695E+02 -0.54445805894E+02  0.75455570691E+02  0.47000000000E+01 0.  1.
         11    1    4    4    0    0 -0.20676805437E+00 -0.33036872390E+02 -0.10516630763E+03  0.11023352463E+03  0.00000000000E+00 0. -1.
        -12    1    4    4    0    0  0.86834126755E+02 -0.42532507597E+02 -0.71987417001E+02  0.12054612386E+03  0.00000000000E+00 0.  1.
</event>
<event>
12    1  0.1035051E+000  0.1939841E+03  0.7818608E-02  0.1155031E+00
         21   -1    0    0  501  502  0.00000000000E+00  0.00000000000E+00  0.14597632793E+04  0.14597632793E+04  0.00000000000E+00 0. -1.
         21   -1    0    0  502  503 -0.00000000000E+00 -0.00000000000E+00 -0.56688674512E+02  0.56688674512E+02  0.00000000000E+00 0.  1.
         -6    2    1    2    0  503 -0.42734365048E+02 -0.76967002406E+02  0.14144656909E+03  0.24007698132E+03  0.17285739683E+03 0.  0.
        -24    2    3    3    0    0 -0.21534038298E+02 -0.65360049072E+01  0.12968479560E+02  0.91959835957E+02  0.88215621075E+02 0.  0.
          6    2    1    2  501    0  0.42734365048E+02  0.76967002406E+02  0.12616280357E+04  0.12763749724E+04  0.17227194929E+03 0.  0.
         24    2    5    5    0    0  0.12555158041E+02  0.47315343747E+02  0.30871414445E+03  0.32251073711E+03  0.79450480302E+02 0.  0.
          5    1    5    5  501    0  0.30179207007E+02  0.29651658659E+02  0.95291389121E+03  0.95386423534E+03  0.47000000000E+01 0. -1.
        -13    1    6    6    0    0  0.44836251474E+02  0.38527656924E+02  0.21606453821E+03  0.22400570186E+03  0.00000000000E+00 0.  1.
         14    1    6    6    0    0 -0.32281093433E+02  0.87876868227E+01  0.92649606237E+02  0.98505035245E+02  0.00000000000E+00 0. -1.
         -5    1    3    3    0  503 -0.21200326750E+02 -0.70430997498E+02  0.12847808953E+03  0.14811714537E+03  0.47000000000E+01 0.  1.
         13    1    4    4    0    0  0.73483018498E+01  0.36654815857E+02  0.14192219187E+02  0.39987399903E+02  0.00000000000E+00 0. -1.
        -14    1    4    4    0    0 -0.28882340148E+02 -0.43190820764E+02 -0.12237396274E+01  0.51972436054E+02  0.00000000000E+00 0.  1.
</event>
<event>
12    1  0.1035051E+000  0.1832988E+03  0.7818608E-02  0.1170042E+00
         21   -1    0    0  503  502  0.00000000000E+00  0.00000000000E+00  0.49353937358E+02  0.49353937358E+02  0.00000000000E+00 0.  1.
         21   -1    0    0  501  503 -0.00000000000E+00 -0.00000000000E+00 -0.60762805573E+03  0.60762805573E+03  0.00000000000E+00 0.  1.
          6    2    1    2  501    0  0.47243487005E+02 -0.75128297135E+01 -0.32261738552E+03  0.37105314246E+03  0.17694651004E+03 0.  0.
         24    2    3    3    0    0 -0.20482360918E+02  0.18145705111E+02 -0.78753232416E+02  0.11661854172E+03  0.81541516626E+02 0.  0.
         -6    2    1    2    0  502 -0.47243487005E+02  0.75128297135E+01 -0.23565673286E+03  0.28592885063E+03  0.15470236652E+03 0.  0.
        -24    2    5    5    0    0  0.43414044270E+01 -0.28812484178E+02 -0.19063093219E+03  0.20827614830E+03  0.78675247738E+02 0.  0.
          5    1    3    3  501    0  0.67725847923E+02 -0.25658534825E+02 -0.24386415310E+03  0.25443460074E+03  0.47000000000E+01 0. -1.
        -13    1    4    4    0    0 -0.10431864061E+02  0.46135857253E+02 -0.71958168624E+02  0.86112247352E+02  0.00000000000E+00 0.  1.
         14    1    4    4    0    0 -0.10050496858E+02 -0.27990152142E+02 -0.67950637919E+01  0.30506294366E+02  0.00000000000E+00 0. -1.
         -5    1    5    5    0  502 -0.51584891432E+02  0.36325313892E+02 -0.45025800663E+02  0.77652702327E+02  0.47000000000E+01 0.  1.
         11    1    6    6    0    0 -0.26280346822E+02 -0.10735435083E+02 -0.21941322919E+02  0.35879351262E+02  0.00000000000E+00 0. -1.
        -12    1    6    6    0    0  0.30621751249E+02 -0.18077049096E+02 -0.16868960927E+03  0.17239679704E+03  0.00000000000E+00 0.  1.
</event>
<event>
12    1  0.1035051E+000  0.2266107E+03  0.7818608E-02  0.1129076E+00
         21   -1    0    0  501  502  0.00000000000E+00  0.00000000000E+00  0.31209367959E+03  0.31209367959E+03  0.00000000000E+00 0.  1.
         21   -1    0    0  502  503 -0.00000000000E+00 -0.00000000000E+00 -0.17036726775E+03  0.17036726775E+03  0.00000000000E+00 0. -1.
         -6    2    1    2    0  503 -0.75667919454E+02 -0.12548436375E+03  0.11586888569E+03  0.25437975148E+03  0.17266006983E+03 0.  0.
        -24    2    3    3    0    0 -0.46820972432E+02 -0.63450268331E+01  0.88169832579E+02  0.12861944178E+03  0.80849110083E+02 0.  0.
          6    2    1    2  501    0  0.75667919454E+02  0.12548436375E+03  0.25857526146E+02  0.22808119585E+03  0.17285965597E+03 0.  0.
         24    2    5    5    0    0  0.66345576147E+02  0.15910883362E+03  0.30603604577E+02  0.19255477865E+03  0.80146152476E+02 0.  0.
          5    1    5    5  501    0  0.93223433070E+01 -0.33624469869E+02 -0.47460784314E+01  0.35526417201E+02  0.47000000000E+01 0. -1.
        -13    1    6    6    0    0  0.65097009152E+02  0.60730607083E+02 -0.15719989469E+01  0.89040992907E+02  0.00000000000E+00 0.  1.
         14    1    6    6    0    0  0.12485669948E+01  0.98378226538E+02  0.32175603524E+02  0.10351378574E+03  0.00000000000E+00 0. -1.
         -5    1    3    3    0  503 -0.28846947022E+02 -0.11913933692E+03  0.27699053114E+02  0.12576030971E+03  0.47000000000E+01 0.  1.
         11    1    4    4    0    0  0.21912907246E+02  0.73845933648E+01  0.27385838992E+02  0.35842598963E+02  0.00000000000E+00 0. -1.
        -12    1    4    4    0    0 -0.68733879677E+02 -0.13729620198E+02  0.60783993586E+02  0.92776842814E+02  0.00000000000E+00 0.  1.
</event>
<event>
12    1  0.1035051E+000  0.2233558E+03  0.7818608E-02  0.1131431E+00
         21   -1    0    0  503  502  0.00000000000E+00  0.00000000000E+00  0.10934580369E+03  0.10934580369E+03  0.00000000000E+00 0. -1.
         21   -1    0    0  501  503 -0.00000000000E+00 -0.00000000000E+00 -0.47043472608E+03  0.47043472608E+03  0.00000000000E+00 0. -1.
          6    2    1    2  501    0 -0.10004737826E+03  0.10036443051E+03 -0.23144698423E+03  0.32164500733E+03  0.17264213687E+03 0.  0.
         24    2    3    3    0    0 -0.41715230281E+02  0.11728917646E+03 -0.99665012087E+02  0.17646351852E+03  0.75560223544E+02 0.  0.
         -6    2    1    2    0  502  0.10004737826E+03 -0.10036443051E+03 -0.12964193817E+03  0.25813552244E+03  0.17246570385E+03 0.  0.
        -24    2    5    5    0    0  0.75893084492E+01  0.77106997463E+01 -0.44354902180E+02  0.92229835492E+02  0.80136962222E+02 0.  0.
          5    1    3    3  501    0 -0.58332147977E+02 -0.16924745945E+02 -0.13178197214E+03  0.14518148881E+03  0.47000000000E+01 0. -1.
        -13    1    4    4    0    0 -0.61063598835E+02  0.68308764191E+02 -0.74535225219E+02  0.11811160047E+03  0.00000000000E+00 0.  1.
         14    1    4    4    0    0  0.19348368554E+02  0.48980412264E+02 -0.25129786868E+02  0.58351918043E+02  0.00000000000E+00 0. -1.
         -5    1    5    5    0  502  0.92458069809E+02 -0.10807513026E+03 -0.85287035990E+02  0.16590568695E+03  0.47000000000E+01 0.  1.
         11    1    6    6    0    0  0.43953955825E+02  0.40897785494E+01 -0.21232242720E+02  0.48984534827E+02  0.00000000000E+00 0. -1.
        -12    1    6    6    0    0 -0.36364647376E+02  0.36209211969E+01 -0.23122659459E+02  0.43245300665E+02  0.00000000000E+00 0.  1.
</event>
<event>
12    1  0.1035051E+000  0.1828859E+03  0.7818608E-02  0.1165547E+00
         21   -1    0    0  503  502  0.00000000000E+00  0.00000000000E+00  0.81299641542E+02  0.81299641542E+02  0.00000000000E+00 0. -1.
         21   -1    0    0  501  503 -0.00000000000E+00 -0.00000000000E+00 -0.67929205161E+03  0.67929205161E+03  0.00000000000E+00 0. -1.
          6    2    1    2  501    0 -0.56128450766E+02  0.21028195273E+02 -0.59108481189E+02  0.19220058248E+03  0.17278502069E+03 0.  0.
         24    2    3    3    0    0 -0.23879602902E+02  0.56500809817E+02 -0.89849780790E+02  0.13505679828E+03  0.80029861364E+02 0.  0.
         -6    2    1    2    0  502  0.56128450766E+02 -0.21028195273E+02 -0.53888392888E+03  0.56839111067E+03  0.17052852519E+03 0.  0.
        -24    2    5    5    0    0  0.98285301936E+02 -0.34148525061E+02 -0.45655074074E+03  0.47484867633E+03  0.78845191339E+02 0.  0.
          5    1    3    3  501    0 -0.32248847864E+02 -0.35472614543E+02  0.30741299601E+02  0.57143784196E+02  0.47000000000E+01 0. -1.
        -11    1    4    4    0    0 -0.37668122176E+02  0.60766165072E+02 -0.37456492609E+02  0.80711852193E+02  0.00000000000E+00 0.  1.
         12    1    4    4    0    0  0.13788519274E+02 -0.42653552553E+01 -0.52393288181E+02  0.54344946091E+02  0.00000000000E+00 0. -1.
         -5    1    5    5    0  502 -0.42156851170E+02  0.13120329788E+02 -0.82333188138E+02  0.93542434346E+02  0.47000000000E+01 0.  1.
         11    1    6    6    0    0  0.94408201429E+02 -0.44379100276E+02 -0.29452205989E+03  0.31245104705E+03  0.00000000000E+00 0. -1.
        -12    1    6    6    0    0  0.38771005065E+01  0.10230575215E+02 -0.16202868085E+03  0.16239762928E+03  0.00000000000E+00 0.  1.
</event>
<event>
12    1  0.1035051E+000  0.2452097E+03  0.7818608E-02  0.1116469E+00
         21   -1    0    0  503  502  0.00000000000E+00  0.00000000000E+00  0.25422961095E+03  0.25422961095E+03  0.00000000000E+00 0. -1.
         21   -1    0    0  501  503 -0.00000000000E+00 -0.00000000000E+00 -0.26694492787E+03  0.26694492787E+03  0.00000000000E+00 0. -1.
          6    2    1    2  501    0 -0.16850143292E+03  0.45258572712E+02 -0.95197919585E+02  0.26304077124E+03  0.17229838114E+03 0.  0.
         24    2    3    3    0    0 -0.10214675799E+03  0.71625205623E+02 -0.26992981453E+01  0.14609536866E+03  0.75976577219E+02 0.  0.
         -6    2    1    2    0  502  0.16850143292E+03 -0.45258572712E+02  0.82482602668E+02  0.25813376758E+03  0.17143100922E+03 0.  0.
        -24    2    5    5    0    0  0.17268323702E+02 -0.33658358902E+02  0.57263099109E+02  0.10430226351E+03  0.78541832975E+02 0.  0.
          5    1    3    3  501    0 -0.66354674924E+02 -0.26366632911E+02 -0.92498621439E+02  0.11694540258E+03  0.47000000000E+01 0. -1.
        -11    1    4    4    0    0 -0.68177086262E+02  0.12308916558E+02  0.23107461719E+02  0.73031358368E+02  0.00000000000E+00 0.  1.
         12    1    4    4    0    0 -0.33969671729E+02  0.59316289065E+02 -0.25806759864E+02  0.73064010295E+02  0.00000000000E+00 0. -1.
         -5    1    5    5    0  502  0.15123310921E+03 -0.11600213810E+02  0.25219503559E+02  0.15383150406E+03  0.47000000000E+01 0.  1.
         11    1    6    6    0    0  0.11212160779E+02 -0.14752752923E+02 -0.18378869355E+02  0.26098641859E+02  0.00000000000E+00 0. -1.
        -12    1    6    6    0    0  0.60561629226E+01 -0.18905605980E+02  0.75641968464E+02  0.78203621654E+02  0.00000000000E+00 0.  1.
</event>
<event>
12    1  0.1035051E+000  0.1795871E+03  0.7818608E-02  0.1168250E+00
         21   -1    0    0  501  502  0.00000000000E+00  0.00000000000E+00  0.20847652630E+03  0.20847652630E+03  0.00000000000E+00 0. -1.
         21   -1    0    0  502  503 -0.00000000000E+00 -0.00000000000E+00 -0.22513056116E+03  0.22513056116E+03  0.00000000000E+00 0. -1.
         -6    2    1    2    0  503 -0.38927701839E+02  0.32583507375E+02 -0.12973405347E+03  0.22154559675E+03  0.17226281052E+03 0.  0.
        -24    2    3    3    0    0  0.44258552501E+02  0.30686202177E+02 -0.71952741064E+02  0.12013394682E+03  0.79715153886E+02 0.  0.
          6    2    1    2  501    0  0.38927701839E+02 -0.32583507375E+02  0.11308001860E+03  0.21206149070E+03  0.17206375071E+03 0.  0.
         24    2    5    5    0    0  0.78274816064E+01  0.47966412829E+02  0.68535326675E+02  0.11478953728E+03  0.78214452877E+02 0.  0.
          5    1    5    5  501    0  0.31100220233E+02 -0.80549920204E+02  0.44544691929E+02  0.97271953421E+02  0.47000000000E+01 0. -1.
        -13    1    6    6    0    0 -0.15827182200E+02 -0.16153503290E+02  0.96933271694E+01  0.24604795397E+02  0.00000000000E+00 0.  1.
         14    1    6    6    0    0  0.23654663806E+02  0.64119916119E+02  0.58841999506E+02  0.90184741884E+02  0.00000000000E+00 0. -1.
         -5    1    3    3    0  503 -0.83186254340E+02  0.18973051981E+01 -0.57781312405E+02  0.10141164993E+03  0.47000000000E+01 0.  1.
         11    1    4    4    0    0  0.47847884122E+01  0.19187407002E+02  0.14420467998E+02  0.24474490492E+02  0.00000000000E+00 0. -1.
        -12    1    4    4    0    0  0.39473764089E+02  0.11498795175E+02 -0.86373209061E+02  0.95659456330E+02  0.00000000000E+00 0.  1.
</event>
<event>
12    1  0.1035051E+000  0.2247377E+03  0.7818608E-02  0.1130464E+00
         21   -1    0    0  501  502  0.00000000000E+00  0.00000000000E+00  0.67338410002E+02  0.67338410002E+02  0.00000000000E+00 0. -1.
         21   -1    0    0  502  503 -0.00000000000E+00 -0.00000000000E+00 -0.25242815666E+04  0.25242815666E+04  0.00000000000E+00 0. -1.
         -6    2    1    2    0  503  0.11849854310E+03  0.81716800770E+02 -0.14145025448E+03  0.26524631688E+03  0.17212755119E+03 0.  0.
        -24    2    3    3    0    0  0.43631671471E+02  0.78708756744E+02 -0.14689652584E+03  0.18997448504E+03  0.80080737502E+02 0.  0.
          6    2    1    2  501    0 -0.11849854310E+03 -0.81716800770E+02 -0.23154929022E+04  0.23263736598E+04  0.17259051148E+03 0.  0.
         24    2    5    5    0    0 -0.58967745050E+02 -0.11808214281E+03 -0.16535143906E+04  0.16607130903E+04  0.80234287271E+02 0.  0.
          5    1    5    5  501    0 -0.59530798053E+02  0.36365342044E+02 -0.66197851151E+03  0.66566056945E+03  0.47000000000E+01 0. -1.
        -11    1    6    6    0    0  0.10203448407E+02 -0.66433977425E+01 -0.43304507579E+03  0.43321620787E+03  0.00000000000E+00 0.  1.
         12    1    6    6    0    0 -0.69171193457E+02 -0.11143874507E+03 -0.12204693149E+04  0.12274968824E+04  0.00000000000E+00 0. -1.
         -5    1    3    3    0  503  0.74866871632E+02  0.30080440265E+01  0.54462713579E+01  0.75271831840E+02  0.47000000000E+01 0.  1.
         13    1    4    4    0    0  0.33614983746E+02  0.20568162441E+02 -0.11775159095E+03  0.12417106591E+03  0.00000000000E+00 0. -1.
        -14    1    4    4    0    0  0.10016687725E+02  0.58140594302E+02 -0.29144934883E+02  0.65803419122E+02  0.00000000000E+00 0.  1.
</event>
<event>
12    1  0.1035051E+000  0.2765321E+03  0.7818608E-02  0.1097883E+00
         21   -1    0    0  503  502  0.00000000000E+00  0.00000000000E+00  0.22015899766E+03  0.22015899766E+03  0.00000000000E+00 0. -1.
         21   -1    0    0  501  503 -0.00000000000E+00 -0.00000000000E+00 -0.50497710097E+03  0.50497710097E+03  0.00000000000E+00 0. -1.
          6    2    1    2  501    0 -0.11590047139E+03 -0.17984316071E+03  0.62167467924E+02  0.28143687665E+03  0.17194603730E+03 0.  0.
         24    2    3    3    0    0 -0.14540477696E+03 -0.11426180578E+03  0.57574246634E+02  0.20922464885E+03  0.79131854458E+02 0.  0.
         -6    2    1    2    0  502  0.11590047139E+03  0.17984316071E+03 -0.34698557123E+03  0.44369922197E+03  0.17519569404E+03 0.  0.
        -24    2    5    5    0    0 -0.21327370903E+02  0.74126524118E+02 -0.69914589600E+02  0.11689973174E+03  0.53177994643E+02 0.  0.
          5    1    3    3  501    0  0.29504305561E+02 -0.65581354934E+02  0.45932212907E+01  0.72212227797E+02  0.47000000000E+01 0. -1.
        -11    1    4    4    0    0 -0.86981789927E+02 -0.46450792730E+02  0.67009105188E+02  0.11922134080E+03  0.00000000000E+00 0.  1.
         12    1    4    4    0    0 -0.58422987029E+02 -0.67811013048E+02 -0.94348585547E+01  0.90003308050E+02  0.00000000000E+00 0. -1.
         -5    1    5    5    0  502  0.13722784230E+03  0.10571663659E+03 -0.27707098163E+03  0.32679949024E+03  0.47000000000E+01 0.  1.
         11    1    6    6    0    0 -0.23374092660E+02  0.80343273896E+02 -0.71615805403E+02  0.11013724825E+03  0.00000000000E+00 0. -1.
        -12    1    6    6    0    0  0.20467217570E+01 -0.62167497784E+01  0.17012158032E+01  0.67624834910E+01  0.00000000000E+00 0.  1.
</event>
<event>
12    1  0.1035051E+000  0.2474418E+03  0.7818608E-02  0.1115009E+00
         21   -1    0    0  501  502  0.00000000000E+00  0.00000000000E+00  0.68993492951E+03  0.68993492951E+03  0.00000000000E+00 0.  1.
         21   -1    0    0  502  503 -0.00000000000E+00 -0.00000000000E+00 -0.93968718334E+02  0.93968718334E+02  0.00000000000E+00 0. -1.
         -6    2    1    2    0  503 -0.87160755055E+02  0.15523730379E+03  0.39163195280E+03  0.46299879532E+03  0.17116273049E+03 0.  0.
        -24    2    3    3    0    0 -0.12148701031E+03  0.13936418161E+03  0.36455605131E+03  0.41625008145E+03  0.78622814584E+02 0.  0.
          6    2    1    2  501    0  0.87160755055E+02 -0.15523730379E+03  0.20433425837E+03  0.32090485252E+03  0.17184823978E+03 0.  0.
         24    2    5    5    0    0  0.11951491900E+03 -0.81336380333E+02  0.12067726501E+03  0.20459182250E+03  0.79971175527E+02 0.  0.
          5    1    5    5  501    0 -0.32354163949E+02 -0.73900923455E+02  0.83656993364E+02  0.11631303001E+03  0.47000000000E+01 0. -1.
        -13    1    6    6    0    0  0.10033223372E+02 -0.50145922341E+02  0.42503836148E+02  0.66497031407E+02  0.00000000000E+00 0.  1.
         14    1    6    6    0    0  0.10948169563E+03 -0.31190457992E+02  0.78173428860E+02  0.13809479110E+03  0.00000000000E+00 0. -1.
         -5    1    3    3    0  503  0.34326255251E+02  0.15873122182E+02  0.27075901494E+02  0.46748713876E+02  0.47000000000E+01 0.  1.
         11    1    4    4    0    0 -0.82293334920E+02  0.58117368461E+02  0.12676126292E+03  0.16192047204E+03  0.00000000000E+00 0. -1.
        -12    1    4    4    0    0 -0.39193675386E+02  0.81246813145E+02  0.23779478839E+03  0.25432960941E+03  0.00000000000E+00 0.  1.
</event>
<event>
12    1  0.1035051E+000  0.1862323E+03  0.7818608E-02  0.1162072E+00
         21   -1    0    0  503  502  0.00000000000E+00  0.00000000000E+00  0.98728485522E+03  0.98728485522E+03  0.00000000000E+00 0. -1.
         21   -1    0    0  501  503 -0.00000000000E+00 -0.00000000000E+00 -0.42227417925E+02  0.42227417925E+02  0.00000000000E+00 0. -1.
          6    2    1    2  501    0  0.12254512051E+02  0.69921951717E+02  0.68483330670E+03  0.70951372116E+03  0.17138789380E+03 0.  0.
         24    2    3    3    0    0  0.15045281528E+02  0.11359680878E+03  0.47870702275E+03  0.49874034411E+03  0.80317630405E+02 0.  0.
         -6    2    1    2    0  502 -0.12254512051E+02 -0.69921951717E+02  0.26022413059E+03  0.31999855199E+03  0.17217207304E+03 0.  0.
        -24    2    5    5    0    0 -0.29055950086E+01  0.23218725098E+02  0.17928852996E+03  0.19616297804E+03  0.76078809785E+02 0.  0.
          5    1    3    3  501    0 -0.27907694773E+01 -0.43674857064E+02  0.20612628396E+03  0.21077337705E+03  0.47000000000E+01 0. -1.
        -13    1    4    4    0    0 -0.25751574862E+01  0.11720566943E+03  0.35815182481E+03  0.37685080602E+03  0.00000000000E+00 0.  1.
         14    1    4    4    0    0  0.17620439014E+02 -0.36088606491E+01  0.12055519794E+03  0.12188953809E+03  0.00000000000E+00 0. -1.
         -5    1    5    5    0  502 -0.93489170424E+01 -0.93140676815E+02  0.80935600632E+02  0.12383557396E+03  0.47000000000E+01 0.  1.
         11    1    6    6    0    0  0.28966027006E+02  0.34437517027E+02  0.88342632623E+02  0.99143300522E+02  0.00000000000E+00 0. -1.
        -12    1    6    6    0    0 -0.31871622015E+02 -0.11218791929E+02  0.90945897338E+02  0.97019677514E+02  0.00000000000E+00 0.  1.
</event>
<event>
12    1  0.1035051E+000  0.1864077E+03  0.7818608E-02  0.1161828E+00
         21   -1    0    0  503  502  0.00000000000E+00  0.00000000000E+00  0.16514878377E+03  0.16514878377E+03  0.00000000000E+00 0.  1.
         21   -1    0    0  501  503 -0.00000000000E+00 -0.00000000000E+00 -0.21615313219E+03  0.21615313219E+03  0.00000000000E+00 0.  1.
          6    2    1    2  501    0 -0.62166904165E+02  0.31901071887E+02  0.66848150779E+01  0.18652754292E+03  0.17281618892E+03 0.  0.
         24    2    3    3    0    0 -0.44159607504E+02 -0.35912528672E+02 -0.41187899434E+01  0.11538153083E+03  0.10028036985E+03 0.  0.
         -6    2    1    2    0  502  0.62166904165E+02 -0.31901071887E+02 -0.57689163497E+02  0.19477437305E+03  0.17241407846E+03 0.  0.
        -24    2    5    5    0    0  0.16315559841E+02 -0.19950848020E+02 -0.10080091666E+03  0.13054146180E+03  0.78841706096E+02 0.  0.
          5    1    3    3  501    0 -0.18007296661E+02  0.67813600560E+02  0.10803605021E+02  0.71146012083E+02  0.47000000000E+01 0. -1.
        -11    1    4    4    0    0  0.11376591086E+02 -0.43636418328E+02 -0.29444392856E+02  0.53856625404E+02  0.00000000000E+00 0.  1.
         12    1    4    4    0    0 -0.55536198590E+02  0.77238896554E+01  0.25325602913E+02  0.61524905430E+02  0.00000000000E+00 0. -1.
         -5    1    5    5    0  502  0.45851344325E+02 -0.11950223867E+02  0.43111753164E+02  0.64232911250E+02  0.47000000000E+01 0.  1.
         11    1    6    6    0    0 -0.28674050623E+02 -0.15006827107E+02 -0.20341091048E+02  0.38225201424E+02  0.00000000000E+00 0. -1.
        -12    1    6    6    0    0  0.44989610463E+02 -0.49440209137E+01 -0.80459825613E+02  0.92316260378E+02  0.00000000000E+00 0.  1.
</event>
<event>
12    1  0.1035051E+000  0.1776482E+03  0.7818608E-02  0.1170582E+00
         21   -1    0    0  501  502  0.00000000000E+00  0.00000000000E+00  0.85705511923E+02  0.85705511923E+02  0.00000000000E+00 0.  1.
         21   -1    0    0  502  503 -0.00000000000E+00 -0.00000000000E+00 -0.46431622087E+03  0.46431622087E+03  0.00000000000E+00 0.  1.
         -6    2    1    2    0  503 -0.30185794113E+02  0.23378821706E+02 -0.60781665386E+02  0.18591435746E+03  0.17149923030E+03 0.  0.
        -24    2    3    3    0    0  0.47535690476E+02 -0.57887223220E+00 -0.43269222273E+02  0.10258743547E+03  0.79949855268E+02 0.  0.
          6    2    1    2  501    0  0.30185794113E+02 -0.23378821706E+02 -0.31782904356E+03  0.36410737533E+03  0.17349676760E+03 0.  0.
         24    2    5    5    0    0  0.67059924982E+02 -0.62900089025E+02 -0.23268469091E+03  0.26314558610E+03  0.81547405589E+02 0.  0.
          5    1    5    5  501    0 -0.36874130869E+02  0.39521267319E+02 -0.85144352648E+02  0.10096178924E+03  0.47000000000E+01 0. -1.
        -11    1    6    6    0    0  0.26868815577E+02 -0.14330968791E+02 -0.10532769489E+02  0.32221873783E+02  0.00000000000E+00 0.  1.
         12    1    6    6    0    0  0.40191109405E+02 -0.48569120234E+02 -0.22215192143E+03  0.23092371231E+03  0.00000000000E+00 0. -1.
         -5    1    3    3    0  503 -0.77721484588E+02  0.23957693938E+02 -0.17512443113E+02  0.83326921996E+02  0.47000000000E+01 0.  1.
         11    1    4    4    0    0  0.14768902304E+02 -0.16226815656E+01  0.23729975120E+02  0.27997594359E+02  0.00000000000E+00 0. -1.
        -12    1    4    4    0    0  0.32766788172E+02  0.10438093334E+01 -0.66999197393E+02  0.74589841107E+02  0.00000000000E+00 0.  1.
</event>
<event>
12    1  0.1035051E+000  0.2148249E+03  0.7818608E-02  0.1137917E+00
         21   -1    0    0  503  502  0.00000000000E+00  0.00000000000E+00  0.59085904471E+02  0.59085904471E+02  0.00000000000E+00 0. -1.
         21   -1    0    0  501  503 -0.00000000000E+00 -0.00000000000E+00 -0.97455009919E+03  0.97455009919E+03  0.00000000000E+00 0. -1.
          6    2    1    2  501    0 -0.31963550917E+02  0.12533851868E+03 -0.68982726724E+03  0.72250357150E+03  0.17151775229E+03 0.  0.
         24    2    3    3    0    0 -0.87301089399E+02  0.80781923750E+02 -0.47769453055E+03  0.49874047961E+03  0.80017511011E+02 0.  0.
         -6    2    1    2    0  502  0.31963550917E+02 -0.12533851868E+03 -0.22563692748E+03  0.31113243216E+03  0.17076286027E+03 0.  0.
        -24    2    5    5    0    0  0.33370250377E+02  0.21558816423E-01 -0.67479720137E+02  0.10925890723E+03  0.79185996896E+02 0.  0.
          5    1    3    3  501    0  0.55337538481E+02  0.44556594930E+02 -0.21213273669E+03  0.22376309189E+03  0.47000000000E+01 0. -1.
        -13    1    4    4    0    0 -0.73402218598E+02  0.96431569150E+02 -0.42777937093E+03  0.44461457850E+03  0.00000000000E+00 0.  1.
         14    1    4    4    0    0 -0.13898870801E+02 -0.15649645400E+02 -0.49915159622E+02  0.54125901108E+02  0.00000000000E+00 0. -1.
         -5    1    5    5    0  502 -0.14066994596E+01 -0.12536007750E+03 -0.15815720734E+03  0.20187352493E+03  0.47000000000E+01 0.  1.
         11    1    6    6    0    0  0.34245594744E+02  0.33144300357E+02 -0.57440265103E+02  0.74637051527E+02  0.00000000000E+00 0. -1.
        -12    1    6    6    0    0 -0.87534436742E+00 -0.33122741541E+02 -0.10039455034E+02  0.34621855703E+02  0.00000000000E+00 0.  1.
</event>
<event>
12    1  0.1035051E+000  0.1830825E+03  0.7818608E-02  0.1165054E+00
         21   -1    0    0  503  502  0.00000000000E+00  0.00000000000E+00  0.63266031331E+02  0.63266031331E+02  0.00000000000E+00 0. -1.
         21   -1    0    0  501  503 -0.00000000000E+00 -0.00000000000E+00 -0.52744585884E+03  0.52744585884E+03  0.00000000000E+00 0. -1.
          6    2    1    2  501    0  0.45414829594E+02 -0.38216227482E+02 -0.22895089399E+03  0.29315132254E+03  0.17319410861E+03 0.  0.
         24    2    3    3    0    0 -0.37685209846E+02  0.18131737118E+01 -0.87724431567E+02  0.12440603163E+03  0.79735952822E+02 0.  0.
         -6    2    1    2    0  502 -0.45414829594E+02  0.38216227482E+02 -0.23522893351E+03  0.29756056763E+03  0.17229815279E+03 0.  0.
        -24    2    5    5    0    0  0.19611056855E+02  0.16274290728E+02 -0.36068931281E+02  0.86855534497E+02  0.74789504474E+02 0.  0.
          5    1    3    3  501    0  0.83100039440E+02 -0.40029401194E+02 -0.14122646242E+03  0.16874529091E+03  0.47000000000E+01 0. -1.
        -11    1    4    4    0    0  0.14846850368E+02  0.19235258244E+02 -0.48939596231E+01  0.24786588437E+02  0.00000000000E+00 0.  1.
         12    1    4    4    0    0 -0.52532060214E+02 -0.17422084532E+02 -0.82830471944E+02  0.99619443193E+02  0.00000000000E+00 0. -1.
         -5    1    5    5    0  502 -0.65025886449E+02  0.21941936755E+02 -0.19916000223E+03  0.21070503313E+03  0.47000000000E+01 0.  1.
         11    1    6    6    0    0  0.63133732935E+00  0.25305121105E+02  0.16516616138E+02  0.30224929274E+02  0.00000000000E+00 0. -1.
        -12    1    6    6    0    0  0.18979719526E+02 -0.90308303777E+01 -0.52585547419E+02  0.56630605223E+02  0.00000000000E+00 0.  1.
</event>
<event>
12    1  0.1035051E+000  0.2402701E+03  0.7818608E-02  0.1119830E+00
         21   -1    0    0  503  502  0.00000000000E+00  0.00000000000E+00  0.83437349901E+03  0.83437349901E+03  0.00000000000E+00 0.  1.
         21   -1    0    0  501  503 -0.00000000000E+00 -0.00000000000E+00 -0.12656691617E+03  0.12656691617E+03  0.00000000000E+00 0.  1.
          6    2    1    2  501    0  0.99034260130E+02  0.13513609077E+03  0.29872048629E+02  0.24211988388E+03  0.17222122741E+03 0.  0.
         24    2    3    3    0    0  0.27310738236E+02 -0.30125413088E+00 -0.11491753163E+02  0.83309959487E+02  0.77862197387E+02 0.  0.
         -6    2    1    2    0  502 -0.99034260130E+02 -0.13513609077E+03  0.67793453422E+03  0.71882053130E+03  0.17040591488E+03 0.  0.
        -24    2    5    5    0    0 -0.11894926361E+03 -0.13416560076E+03  0.46337356665E+03  0.50328388008E+03  0.80188939005E+02 0.  0.
          5    1    3    3  501    0  0.71723521894E+02  0.13543734490E+03  0.41363801792E+02  0.15880992439E+03  0.47000000000E+01 0. -1.
        -11    1    4    4    0    0  0.17936934789E+02  0.70960589689E+00  0.33142034845E+02  0.37691267474E+02  0.00000000000E+00 0.  1.
         12    1    4    4    0    0  0.93738034471E+01 -0.10108600278E+01 -0.44633788008E+02  0.45618692013E+02  0.00000000000E+00 0. -1.
         -5    1    5    5    0  502  0.19915003482E+02 -0.97049000632E+00  0.21456096757E+03  0.21553665122E+03  0.47000000000E+01 0.  1.
         11    1    6    6    0    0 -0.10892170661E+03 -0.13122303229E+03  0.46233141723E+03  0.49278165726E+03  0.00000000000E+00 0. -1.
        -12    1    6    6    0    0 -0.10027557005E+02 -0.29425684679E+01  0.10421494147E+01  0.10502222816E+02  0.00000000000E+00 0.  1.
</event>
<event>
12    1  0.1035051E+000  0.2206257E+03  0.7818608E-02  0.1134302E+00
         21   -1    0    0  501  502  0.00000000000E+00  0.00000000000E+00  0.87042453257E+02  0.87042453257E+02  0.00000000000E+00 0. -1.
         21   -1    0    0  502  503 -0.00000000000E+00 -0.00000000000E+00 -0.96331292809E+03  0.96331292809E+03  0.00000000000E+00 0. -1.
         -6    2    1    2    0  503 -0.73266377430E+02  0.10746113918E+03 -0.95726859216E+02  0.24049805827E+03  0.17821286698E+03 0.  0.
        -24    2    3    3    0    0  0.23667728808E+01  0.30347310348E+02 -0.10237429928E+03  0.13217818713E+03  0.77871786549E+02 0.  0.
          6    2    1    2  501    0  0.73266377430E+02 -0.10746113918E+03 -0.78054361562E+03  0.80985732308E+03  0.17235048410E+03 0.  0.
         24    2    5    5    0    0 -0.86599699523E+01 -0.38570564819E+02 -0.20183083534E+03  0.22130961075E+03  0.81728661841E+02 0.  0.
          5    1    5    5  501    0  0.81926347382E+02 -0.68890574365E+02 -0.57871278028E+03  0.58854771233E+03  0.47000000000E+01 0. -1.
        -11    1    6    6    0    0  0.35027846106E+02 -0.26885244558E+02 -0.11915274855E+03  0.12707141246E+03  0.00000000000E+00 0.  1.
         12    1    6    6    0    0 -0.43687816058E+02 -0.11685320261E+02 -0.82678086787E+02  0.94238198287E+02  0.00000000000E+00 0. -1.
         -5    1    3    3    0  503 -0.75633150311E+02  0.77113828837E+02  0.66474400650E+01  0.10831987114E+03  0.47000000000E+01 0.  1.
         13    1    4    4    0    0  0.84459800262E+01  0.52012604947E+02 -0.40867059081E+02  0.66684047341E+02  0.00000000000E+00 0. -1.
        -14    1    4    4    0    0 -0.60792071455E+01 -0.21665294598E+02 -0.61507240200E+02  0.65494139788E+02  0.00000000000E+00 0.  1.
</event>
<event>
12    1  0.1035051E+000  0.2688407E+03  0.7818608E-02  0.1102141E+00
         21   -1    0    0  503  502  0.00000000000E+00  0.00000000000E+00  0.93937473240E+02  0.93937473240E+02  0.00000000000E+00 0. -1.
         21   -1    0    0  501  503 -0.00000000000E+00 -0.00000000000E+00 -0.86138952895E+03  0.86138952895E+03  0.00000000000E+00 0. -1.
          6    2    1    2  501    0  0.68565414952E+02  0.19364987617E+03 -0.54393860246E+03  0.60674912829E+03  0.17341802319E+03 0.  0.
         24    2    3    3    0    0  0.10827367679E+03  0.11142050336E+03 -0.39501253334E+03  0.43199364233E+03  0.80286286885E+02 0.  0.
         -6    2    1    2    0  502 -0.68565414952E+02 -0.19364987617E+03 -0.22351345325E+03  0.34857787390E+03  0.17130901822E+03 0.  0.
        -24    2    5    5    0    0 -0.10093414170E+03 -0.19407857266E+03 -0.18168321162E+03  0.29547629797E+03  0.80269919338E+02 0.  0.
          5    1    3    3  501    0 -0.39708261840E+02  0.82229372802E+02 -0.14892606912E+03  0.17475548596E+03  0.47000000000E+01 0. -1.
        -13    1    4    4    0    0  0.34670564338E+02  0.42424998911E+02 -0.24609813192E+03  0.25212342037E+03  0.00000000000E+00 0.  1.
         14    1    4    4    0    0  0.73603112454E+02  0.68995504451E+02 -0.14891440141E+03  0.17987022195E+03  0.00000000000E+00 0. -1.
         -5    1    5    5    0  502  0.32368726747E+02  0.42869649214E+00 -0.41830241622E+02  0.53101575928E+02  0.47000000000E+01 0.  1.
         11    1    6    6    0    0 -0.65207373065E+02 -0.90138779941E+02 -0.44811342572E+02  0.11993772373E+03  0.00000000000E+00 0. -1.
        -12    1    6    6    0    0 -0.35726768634E+02 -0.10393979272E+03 -0.13687186905E+03  0.17553857424E+03  0.00000000000E+00 0.  1.
</event>
<event>
12    1  0.1035051E+000  0.3102324E+03  0.7818608E-02  0.1080994E+00
         21   -1    0    0  503  502  0.00000000000E+00  0.00000000000E+00  0.79106677201E+03  0.79106677201E+03  0.00000000000E+00 0. -1.
         21   -1    0    0  501  503 -0.00000000000E+00 -0.00000000000E+00 -0.19569245260E+03  0.19569245260E+03  0.00000000000E+00 0.  1.
          6    2    1    2  501    0  0.45716524740E+02  0.25408656968E+03  0.60795911504E+03  0.68253821599E+03  0.17202948934E+03 0.  0.
         24    2    3    3    0    0  0.11550119006E+02  0.59310079486E+02  0.11975931853E+03  0.15578746305E+03  0.79223408731E+02 0.  0.
         -6    2    1    2    0  502 -0.45716524740E+02 -0.25408656968E+03 -0.12584795630E+02  0.30422100863E+03  0.16044332172E+03 0.  0.
        -24    2    5    5    0    0 -0.33394841721E+01 -0.88561697271E+02  0.41549646824E+02  0.12492537340E+03  0.77625056454E+02 0.  0.
          5    1    3    3  501    0  0.34166405734E+02  0.19477649019E+03  0.48819979651E+03  0.52675075294E+03  0.47000000000E+01 0. -1.
        -11    1    4    4    0    0  0.32207320144E+01  0.77651502086E+02  0.81921101893E+02  0.11292119299E+03  0.00000000000E+00 0.  1.
         12    1    4    4    0    0  0.83293869911E+01 -0.18341422599E+02  0.37838216633E+02  0.42866270057E+02  0.00000000000E+00 0. -1.
         -5    1    5    5    0  502 -0.42377040568E+02 -0.16552487240E+03 -0.54134442453E+02  0.17929563523E+03  0.47000000000E+01 0.  1.
         13    1    6    6    0    0  0.10839874587E+02 -0.85956208919E+02  0.63284470847E+01  0.86867842009E+02  0.00000000000E+00 0. -1.
        -14    1    6    6    0    0 -0.14179358759E+02 -0.26054883518E+01  0.35221199739E+02  0.38057531389E+02  0.00000000000E+00 0.  1.
</event>
<event>
12    1  0.1035051E+000  0.4326693E+03  0.7818608E-02  0.1033224E+00
         21   -1    0    0  503  502  0.00000000000E+00  0.00000000000E+00  0.20269455289E+04  0.20269455289E+04  0.00000000000E+00 0. -1.
         21   -1    0    0  501  503 -0.00000000000E+00 -0.00000000000E+00 -0.97443120918E+02  0.97443120918E+02  0.00000000000E+00 0. -1.
          6    2    1    2  501    0 -0.83603955597E+02  0.38855225246E+03  0.12175434152E+04  0.12912690053E+04  0.16432042400E+03 0.  0.
         24    2    3    3    0    0 -0.71217730118E+02  0.14768225918E+03  0.63884636915E+03  0.66430478509E+03  0.79335675264E+02 0.  0.
         -6    2    1    2    0  502  0.83603955597E+02 -0.38855225246E+03  0.71195899279E+03  0.83311964457E+03  0.17099783765E+03 0.  0.
        -24    2    5    5    0    0  0.43451783941E+01 -0.60716357425E+02  0.17587454712E+03  0.19974222887E+03  0.72524099684E+02 0.  0.
          5    1    3    3  501    0 -0.12386225479E+02  0.24086999328E+03  0.57869704607E+03  0.62696422017E+03  0.47000000000E+01 0. -1.
        -13    1    4    4    0    0 -0.60532276619E+02  0.15104881461E+03  0.62789313621E+03  0.64863679468E+03  0.00000000000E+00 0.  1.
         14    1    4    4    0    0 -0.10685453499E+02 -0.33665554357E+01  0.10953232936E+02  0.15667990418E+02  0.00000000000E+00 0. -1.
         -5    1    5    5    0  502  0.79258777203E+02 -0.32783589503E+03  0.53608444567E+03  0.63337741570E+03  0.47000000000E+01 0. -1.
         11    1    6    6    0    0 -0.28172648058E+02 -0.90912597778E+01  0.32698795549E+02  0.44108506360E+02  0.00000000000E+00 0. -1.
        -12    1    6    6    0    0  0.32517826452E+02 -0.51625097648E+02  0.14317575157E+03  0.15563372251E+03  0.00000000000E+00 0.  1.
</event>
<event>
12    1  0.1035051E+000  0.1947326E+03  0.7818608E-02  0.1154268E+00
         21   -1    0    0  501  502  0.00000000000E+00  0.00000000000E+00  0.56659154894E+03  0.56659154894E+03  0.00000000000E+00 0. -1.
         21   -1    0    0  502  503 -0.00000000000E+00 -0.00000000000E+00 -0.10673712490E+03  0.10673712490E+03  0.00000000000E+00 0. -1.
         -6    2    1    2    0  503 -0.60364671093E+02  0.67323889306E+02  0.43557404894E+03  0.47712212959E+03  0.17246557584E+03 0.  0.
        -24    2    3    3    0    0 -0.70918385775E+02  0.75781208239E+02  0.44419355239E+03  0.46041006877E+03  0.62428442908E+02 0.  0.
          6    2    1    2  501    0  0.60364671093E+02 -0.67323889306E+02  0.24280375098E+02  0.19620654424E+03  0.17242700427E+03 0.  0.
         24    2    5    5    0    0  0.48548653448E+02 -0.35377764105E+02  0.81852860212E+02  0.12914795620E+03  0.79816952584E+02 0.  0.
          5    1    5    5  501    0  0.11816017645E+02 -0.31946125200E+02 -0.57572485114E+02  0.67058588044E+02  0.47000000000E+01 0. -1.
        -11    1    6    6    0    0  0.44397775199E+02 -0.41584779279E+02  0.16036893969E+02  0.62909762983E+02  0.00000000000E+00 0.  1.
         12    1    6    6    0    0  0.41508782487E+01  0.62070151740E+01  0.65815966243E+02  0.66238193212E+02  0.00000000000E+00 0. -1.
         -5    1    3    3    0  503  0.10553714682E+02 -0.84573189331E+01 -0.86195034474E+01  0.16712060819E+02  0.47000000000E+01 0.  1.
         13    1    4    4    0    0 -0.31908825336E+02  0.79509246377E+01  0.23064090163E+03  0.23297342304E+03  0.00000000000E+00 0. -1.
        -14    1    4    4    0    0 -0.39009560439E+02  0.67830283601E+02  0.21355265076E+03  0.22743664574E+03  0.00000000000E+00 0.  1.
</event>
<event>
12    1  0.1035051E+000  0.2982172E+03  0.7818608E-02  0.1086270E+00
         21   -1    0    0  501  502  0.00000000000E+00  0.00000000000E+00  0.52371462625E+02  0.52371462625E+02  0.00000000000E+00 0. -1.
         21   -1    0    0  502  503 -0.00000000000E+00 -0.00000000000E+00 -0.19619180185E+04  0.19619180185E+04  0.00000000000E+00 0.  1.
         -6    2    1    2    0  503  0.20540174759E+03 -0.13192863973E+03 -0.57975062969E+03  0.65146495957E+03  0.16941297773E+03 0.  0.
        -24    2    3    3    0    0  0.72508407544E+02  0.25787246411E+01 -0.19513522669E+03  0.22285794944E+03  0.79522260727E+02 0.  0.
          6    2    1    2  501    0 -0.20540174759E+03  0.13192863973E+03 -0.13297959262E+04  0.13628245216E+04  0.17128463845E+03 0.  0.
         24    2    5    5    0    0 -0.11934633795E+03  0.25341562334E+02 -0.47244842918E+03  0.49458886276E+03  0.80776740244E+02 0.  0.
          5    1    5    5  501    0 -0.86055409647E+02  0.10658707739E+03 -0.85734749705E+03  0.86823565884E+03  0.47000000000E+01 0. -1.
        -13    1    6    6    0    0 -0.22943364056E+02 -0.83863616222E+01 -0.23288662661E+03  0.23416427966E+03  0.00000000000E+00 0.  1.
         14    1    6    6    0    0 -0.96402973890E+02  0.33727923956E+02 -0.23956180257E+03  0.26042458310E+03  0.00000000000E+00 0. -1.
         -5    1    3    3    0  503  0.13289334005E+03 -0.13450736437E+03 -0.38461540301E+03  0.42860701013E+03  0.47000000000E+01 0.  1.
         11    1    4    4    0    0  0.25635952970E+02 -0.12176982234E+02 -0.81566170507E+01  0.29529838854E+02  0.00000000000E+00 0. -1.
        -12    1    4    4    0    0  0.46872454574E+02  0.14755706875E+02 -0.18697860964E+03  0.19332811059E+03  0.00000000000E+00 0.  1.
</event>
<event>
12    1  0.1035051E+000  0.2057895E+03  0.7818608E-02  0.1144972E+00
         21   -1    0    0  501  502  0.00000000000E+00  0.00000000000E+00  0.47572686196E+02  0.47572686196E+02  0.00000000000E+00 0. -1.
         21   -1    0    0  502  503 -0.00000000000E+00 -0.00000000000E+00 -0.11254392217E+04  0.11254392217E+04  0.00000000000E+00 0.  1.
         -6    2    1    2    0  503 -0.10002272319E+03  0.51225893605E+02 -0.80755193719E+03  0.83336032569E+03  0.17239682085E+03 0.  0.
        -24    2    3    3    0    0 -0.59760177808E+02  0.10074734181E+03 -0.54484324328E+03  0.56296913824E+03  0.79741990995E+02 0.  0.
          6    2    1    2  501    0  0.10002272319E+03 -0.51225893605E+02 -0.27031459830E+03  0.33965158220E+03  0.17223407882E+03 0.  0.
         24    2    5    5    0    0  0.55113144879E+01  0.27214933363E+02 -0.15748040602E+03  0.17280130603E+03  0.65491876595E+02 0.  0.
          5    1    5    5  501    0  0.94511408700E+02 -0.78440826968E+02 -0.11283419228E+03  0.16685027617E+03  0.47000000000E+01 0. -1.
        -13    1    6    6    0    0  0.40505585340E+01  0.60243788493E+01 -0.15015855107E+03  0.15033393038E+03  0.00000000000E+00 0.  1.
         14    1    6    6    0    0  0.14607559539E+01  0.21190554514E+02 -0.73218549507E+01  0.22467375647E+02  0.00000000000E+00 0. -1.
         -5    1    3    3    0  503 -0.40262545380E+02 -0.49521448207E+02 -0.26270869391E+03  0.27039118745E+03  0.47000000000E+01 0.  1.
         11    1    4    4    0    0  0.80254891514E+01  0.41983720111E+02 -0.93647136937E+02  0.10294089317E+03  0.00000000000E+00 0. -1.
        -12    1    4    4    0    0 -0.67785666959E+02  0.58763621701E+02 -0.45119610635E+03  0.46002824507E+03  0.00000000000E+00 0.  1.
</event>
<event>
12    1  0.1035051E+000  0.1803114E+03  0.7818608E-02  0.1168420E+00
         21   -1    0    0  501  502  0.00000000000E+00  0.00000000000E+00  0.38907845878E+03  0.38907845878E+03  0.00000000000E+00 0. -1.
         21   -1    0    0  502  503 -0.00000000000E+00 -0.00000000000E+00 -0.84084897483E+02  0.84084897483E+02  0.00000000000E+00 0.  1.
         -6    2    1    2    0  503 -0.30655934679E+02  0.45093357954E+02  0.19280986677E+03  0.26398453331E+03  0.17186911253E+03 0.  0.
        -24    2    3    3    0    0 -0.55157594629E+02 -0.28820631050E+01  0.45525940079E+02  0.10708769642E+03  0.79652350691E+02 0.  0.
          6    2    1    2  501    0  0.30655934679E+02 -0.45093357954E+02  0.11218369453E+03  0.20917882296E+03  0.16792081882E+03 0.  0.
         24    2    5    5    0    0  0.16000535240E+02 -0.91385564896E+02  0.56745712345E+02  0.13533297659E+03  0.80545639760E+02 0.  0.
          5    1    5    5  501    0  0.14655399439E+02  0.46292206943E+02  0.55437982188E+02  0.73845846365E+02  0.47000000000E+01 0. -1.
        -13    1    6    6    0    0  0.38316873183E+02 -0.61098386589E+02  0.62864647633E+01  0.72392784540E+02  0.00000000000E+00 0.  1.
         14    1    6    6    0    0 -0.22316337943E+02 -0.30287178307E+02  0.50459247582E+02  0.62940192052E+02  0.00000000000E+00 0. -1.
         -5    1    3    3    0  503  0.24501659950E+02  0.47975421059E+02  0.14728392669E+03  0.15689683689E+03  0.47000000000E+01 0.  1.
         13    1    4    4    0    0  0.18668898786E+02 -0.55683348832E+01 -0.14600654828E+01  0.19536272072E+02  0.00000000000E+00 0. -1.
        -14    1    4    4    0    0 -0.73826493415E+02  0.26862717782E+01  0.46986005562E+02  0.87551424344E+02  0.00000000000E+00 0.  1.
</event>
<event>
12    1  0.1035051E+000  0.1871968E+03  0.7818608E-02  0.1161872E+00
         21   -1    0    0  503  502  0.00000000000E+00  0.00000000000E+00  0.12905448940E+03  0.12905448940E+03  0.00000000000E+00 0. -1.
         21   -1    0    0  501  503 -0.00000000000E+00 -0.00000000000E+00 -0.26795250088E+03  0.26795250088E+03  0.00000000000E+00 0.  1.
          6    2    1    2  501    0  0.62432904306E+02  0.22182094389E+02 -0.54101168277E+02  0.19485783127E+03  0.17507919678E+03 0.  0.
         24    2    3    3    0    0  0.55743951454E+02 -0.13684745527E+02  0.31334047088E+02  0.10183934751E+03  0.78069006721E+02 0.  0.
         -6    2    1    2    0  502 -0.62432904306E+02 -0.22182094389E+02 -0.84796843198E+02  0.20214915901E+03  0.17112529042E+03 0.  0.
        -24    2    5    5    0    0 -0.71941177689E+02  0.40560573620E+02 -0.29356091932E+02  0.11775237855E+03  0.78633004139E+02 0.  0.
          5    1    3    3  501    0  0.66889528523E+01  0.35866839916E+02 -0.85435215366E+02  0.93018483757E+02  0.47000000000E+01 0. -1.
        -11    1    4    4    0    0 -0.16491320322E+02 -0.18026222868E+02  0.99524198957E+01  0.26381035208E+02  0.00000000000E+00 0.  1.
         12    1    4    4    0    0  0.72235271776E+02  0.43414773406E+01  0.21381627193E+02  0.75458312302E+02  0.00000000000E+00 0. -1.
         -5    1    5    5    0  502  0.95082733825E+01 -0.62742668009E+02 -0.55440751266E+02  0.84396780463E+02  0.47000000000E+01 0.  1.
         11    1    6    6    0    0 -0.63030942082E+01  0.34104034594E+02 -0.37753128203E+02  0.51265123245E+02  0.00000000000E+00 0. -1.
        -12    1    6    6    0    0 -0.65638083481E+02  0.64565390253E+01  0.83970362706E+01  0.66487255300E+02  0.00000000000E+00 0.  1.
</event>
<event>
12    1  0.1035051E+000  0.1750337E+03  0.7818608E-02  0.1172896E+00
         21   -1    0    0  501  502  0.00000000000E+00  0.00000000000E+00  0.47361430478E+02  0.47361430478E+02  0.00000000000E+00 0. -1.
         21   -1    0    0  502  503 -0.00000000000E+00 -0.00000000000E+00 -0.78592245736E+03  0.78592245736E+03  0.00000000000E+00 0. -1.
         -6    2    1    2    0  503  0.91784266460E+00 -0.26590558075E+02 -0.19289124974E+03  0.26046849729E+03  0.17299972151E+03 0.  0.
        -24    2    3    3    0    0  0.26548547213E+01  0.40207677234E+02 -0.49582825273E+02  0.10227742304E+03  0.79865569169E+02 0.  0.
          6    2    1    2  501    0 -0.91784266460E+00  0.26590558075E+02 -0.54566977714E+03  0.57281539055E+03  0.17220355904E+03 0.  0.
         24    2    5    5    0    0  0.13160675197E+02  0.30028980127E+02 -0.55117531822E+03  0.55661574876E+03  0.70369861027E+02 0.  0.
          5    1    5    5  501    0 -0.14078517862E+02 -0.34384220527E+01  0.55055410733E+01  0.16199641784E+02  0.47000000000E+01 0. -1.
        -11    1    6    6    0    0 -0.28116254186E+02  0.36164189923E+01 -0.17972796324E+03  0.18194983651E+03  0.00000000000E+00 0.  1.
         12    1    6    6    0    0  0.41276929384E+02  0.26412561135E+02 -0.37144735498E+03  0.37466591226E+03  0.00000000000E+00 0. -1.
         -5    1    3    3    0  503 -0.17370120567E+01 -0.66798235309E+02 -0.14330842447E+03  0.15819107426E+03  0.47000000000E+01 0.  1.
         13    1    4    4    0    0 -0.35552889074E+02  0.86475202927E+01 -0.34965015147E+02  0.50609681020E+02  0.00000000000E+00 0. -1.
        -14    1    4    4    0    0  0.38207743796E+02  0.31560156942E+02 -0.14617810127E+02  0.51667742016E+02  0.00000000000E+00 0.  1.
</event>
<event>
12    1  0.1035051E+000  0.1888570E+03  0.7818608E-02  0.1159640E+00
         21   -1    0    0  501  502  0.00000000000E+00  0.00000000000E+00  0.13685119665E+03  0.13685119665E+03  0.00000000000E+00 0. -1.
         21   -1    0    0  502  503 -0.00000000000E+00 -0.00000000000E+00 -0.29575654482E+03  0.29575654482E+03  0.00000000000E+00 0. -1.
         -6    2    1    2    0  503  0.77022428120E+01  0.74241423613E+02 -0.41005289062E+01  0.18890147833E+03  0.17348152828E+03 0.  0.
        -24    2    3    3    0    0  0.38536920261E+02 -0.36238137093E+01 -0.39911719318E+02  0.97696742293E+02  0.80333566252E+02 0.  0.
          6    2    1    2  501    0 -0.77022428120E+01 -0.74241423613E+02 -0.15480481927E+03  0.24370626315E+03  0.17279206320E+03 0.  0.
         24    2    5    5    0    0  0.38368350234E+02 -0.10006159414E+03 -0.10697491163E+03  0.17229918497E+03  0.82212678454E+02 0.  0.
          5    1    5    5  501    0 -0.46070593046E+02  0.25820170532E+02 -0.47829907633E+02  0.71407078179E+02  0.47000000000E+01 0. -1.
        -13    1    6    6    0    0  0.24653885947E+01 -0.28629391629E+02  0.10162752461E+02  0.30479529911E+02  0.00000000000E+00 0.  1.
         14    1    6    6    0    0  0.35902961639E+02 -0.71432202515E+02 -0.11713766409E+03  0.14181965506E+03  0.00000000000E+00 0. -1.
         -5    1    3    3    0  503 -0.30834677449E+02  0.77865237322E+02  0.35811190412E+02  0.91204736036E+02  0.47000000000E+01 0.  1.
         11    1    4    4    0    0  0.40237635993E+02 -0.17199143978E+02  0.10882522710E+02  0.45092207801E+02  0.00000000000E+00 0. -1.
        -12    1    4    4    0    0 -0.17007157315E+01  0.13575330269E+02 -0.50794242028E+02  0.52604534492E+02  0.00000000000E+00 0.  1.
</event>
<event>
12    1  0.1035051E+000  0.3650414E+03  0.7818608E-02  0.1056786E+00
         21   -1    0    0  501  502  0.00000000000E+00  0.00000000000E+00  0.18803926371E+03  0.18803926371E+03  0.00000000000E+00 0. -1.
         21   -1    0    0  502  503 -0.00000000000E+00 -0.00000000000E+00 -0.72981084471E+03  0.72981084471E+03  0.00000000000E+00 0. -1.
         -6    2    1    2    0  503  0.24576645100E+03 -0.20764055694E+03 -0.35473319406E+03  0.50768112021E+03  0.16848955908E+03 0.  0.
        -24    2    3    3    0    0  0.18173386566E+03 -0.73632404863E+02 -0.23325092879E+03  0.31574783079E+03  0.82714979876E+02 0.  0.
          6    2    1    2  501    0 -0.24576645100E+03  0.20764055694E+03 -0.18703838694E+03  0.41016898822E+03  0.17245141747E+03 0.  0.
         24    2    5    5    0    0 -0.96018530156E+02  0.47582396399E+02 -0.12348528067E+03  0.18190567126E+03  0.79733406518E+02 0.  0.
          5    1    5    5  501    0 -0.14974792085E+03  0.16005816054E+03 -0.63553106272E+02  0.22826331696E+03  0.47000000000E+01 0. -1.
        -11    1    6    6    0    0 -0.49331226562E+02  0.53195093277E+02 -0.32517200448E+02  0.79502554599E+02  0.00000000000E+00 0.  1.
         12    1    6    6    0    0 -0.46687303594E+02 -0.56126968780E+01 -0.90968080220E+02  0.10240311666E+03  0.00000000000E+00 0. -1.
         -5    1    3    3    0  503  0.64032585338E+02 -0.13400815208E+03 -0.12148226528E+03  0.19193328941E+03  0.47000000000E+01 0.  1.
         13    1    4    4    0    0 -0.77946608351E+01  0.29292106474E+01 -0.10904066012E+02  0.13719900442E+02  0.00000000000E+00 0. -1.
        -14    1    4    4    0    0  0.18952852650E+03 -0.76561615510E+02 -0.22234686277E+03  0.30202793035E+03  0.00000000000E+00 0.  1.
</event>
<event>
12    1  0.1035051E+000  0.1765311E+03  0.7818608E-02  0.1171523E+00
         21   -1    0    0  501  502  0.00000000000E+00  0.00000000000E+00  0.61024095581E+03  0.61024095581E+03  0.00000000000E+00 0.  1.
         21   -1    0    0  502  503 -0.00000000000E+00 -0.00000000000E+00 -0.70082833046E+02  0.70082833046E+02  0.00000000000E+00 0.  1.
         -6    2    1    2    0  503 -0.36217989065E+02  0.69679874734E+01  0.44970198329E+03  0.48310983674E+03  0.17263529476E+03 0.  0.
        -24    2    3    3    0    0 -0.15066779286E+01 -0.39698169781E+01  0.43809032649E+03  0.44462047119E+03  0.75803691919E+02 0.  0.
          6    2    1    2  501    0  0.36217989065E+02 -0.69679874734E+01  0.90456139478E+02  0.19721395212E+03  0.17132055965E+03 0.  0.
         24    2    5    5    0    0  0.42547710090E+02 -0.55349688924E+02  0.10181249915E+03  0.14689585092E+03  0.79616018091E+02 0.  0.
          5    1    5    5  501    0 -0.63297210247E+01  0.48381701451E+02 -0.11356359670E+02  0.50318101201E+02  0.47000000000E+01 0. -1.
        -13    1    6    6    0    0  0.32579585901E+02 -0.12079908971E+02 -0.11508694098E+01  0.34766048360E+02  0.00000000000E+00 0.  1.
         14    1    6    6    0    0  0.99681241893E+01 -0.43269779954E+02  0.10296336856E+03  0.11212980256E+03  0.00000000000E+00 0. -1.
         -5    1    3    3    0  503 -0.34711311137E+02  0.10937804452E+02  0.11611656801E+02  0.38489365554E+02  0.47000000000E+01 0.  1.
         13    1    4    4    0    0  0.30653930588E+02  0.17943310115E+02  0.16570112080E+03  0.16946529814E+03  0.00000000000E+00 0. -1.
        -14    1    4    4    0    0 -0.32160608517E+02 -0.21913127093E+02  0.27238920569E+03  0.27515517305E+03  0.00000000000E+00 0.  1.
</event>
<event>
12    1  0.1035051E+000  0.2315809E+03  0.7818608E-02  0.1125570E+00
         21   -1    0    0  503  502  0.00000000000E+00  0.00000000000E+00  0.12200638711E+03  0.12200638711E+03  0.00000000000E+00 0. -1.
         21   -1    0    0  501  503 -0.00000000000E+00 -0.00000000000E+00 -0.44041002709E+03  0.44041002709E+03  0.00000000000E+00 0. -1.
          6    2    1    2  501    0  0.11658275277E+02  0.15436058228E+03 -0.14409080143E+03  0.27256353568E+03  0.17194655328E+03 0.  0.
         24    2    3    3    0    0  0.67119197034E+02  0.13502973579E+03 -0.12415186480E+03  0.21036026678E+03  0.78100833221E+02 0.  0.
         -6    2    1    2    0  502 -0.11658275277E+02 -0.15436058228E+03 -0.17431283854E+03  0.28985287851E+03  0.17224000917E+03 0.  0.
        -24    2    5    5    0    0 -0.62621267869E+02 -0.75470049444E+02 -0.13820302344E+03  0.18912080055E+03  0.83961002603E+02 0.  0.
          5    1    3    3  501    0 -0.55460921757E+02  0.19330846492E+02 -0.19938936636E+02  0.62203268905E+02  0.47000000000E+01 0. -1.
        -11    1    4    4    0    0  0.18056265903E+00  0.57873160777E+02 -0.80816439364E+02  0.99401369270E+02  0.00000000000E+00 0.  1.
         12    1    4    4    0    0  0.66938634375E+02  0.77156575009E+02 -0.43335425435E+02  0.11095889751E+03  0.00000000000E+00 0. -1.
         -5    1    5    5    0  502  0.50962992592E+02 -0.78890532834E+02 -0.36109815098E+02  0.10073207797E+03  0.47000000000E+01 0.  1.
         13    1    6    6    0    0  0.32774442080E+01 -0.16008575942E+02  0.79149145238E+01  0.18156597042E+02  0.00000000000E+00 0. -1.
        -14    1    6    6    0    0 -0.65898712077E+02 -0.59461473502E+02 -0.14611793797E+03  0.17096420350E+03  0.00000000000E+00 0.  1.
</event>
<event>
12    1  0.1035051E+000  0.1946410E+03  0.7818608E-02  0.1154890E+00
         21   -1    0    0  503  502  0.00000000000E+00  0.00000000000E+00  0.31194564003E+03  0.31194564003E+03  0.00000000000E+00 0. -1.
         21   -1    0    0  501  503 -0.00000000000E+00 -0.00000000000E+00 -0.12221345569E+03  0.12221345569E+03  0.00000000000E+00 0. -1.
          6    2    1    2  501    0  0.37920928220E+02 -0.81400335148E+02  0.12536154859E+03  0.23151815205E+03  0.17268794255E+03 0.  0.
         24    2    3    3    0    0  0.51496599671E+02 -0.73125480586E+02  0.15621311037E+03  0.19649414689E+03  0.78791993370E+02 0.  0.
         -6    2    1    2    0  502 -0.37920928220E+02  0.81400335148E+02  0.64370635749E+02  0.20264094368E+03  0.16986983825E+03 0.  0.
        -24    2    5    5    0    0 -0.65653579756E+02  0.18638181922E+02 -0.33767493479E+01  0.10610086896E+03  0.81167835983E+02 0.  0.
          5    1    3    3  501    0 -0.13575671451E+02 -0.82748545619E+01 -0.30851561782E+02  0.35024005164E+02  0.47000000000E+01 0. -1.
        -11    1    4    4    0    0  0.24187034768E+02 -0.68990066124E+02  0.54741819727E+02  0.91330765362E+02  0.00000000000E+00 0.  1.
         12    1    4    4    0    0  0.27309564903E+02 -0.41354144625E+01  0.10147129065E+03  0.10516338152E+03  0.00000000000E+00 0. -1.
         -5    1    5    5    0  502  0.27732651536E+02  0.62762153226E+02  0.67747385097E+02  0.96540074716E+02  0.47000000000E+01 0.  1.
         13    1    6    6    0    0 -0.78557376454E+01 -0.28152976882E+02 -0.11255345910E+02  0.31320688575E+02  0.00000000000E+00 0. -1.
        -14    1    6    6    0    0 -0.57797842111E+02  0.46791158804E+02  0.78785965625E+01  0.74780180386E+02  0.00000000000E+00 0.  1.
</event>
<event>
12    1  0.1035051E+000  0.2840205E+03  0.7818608E-02  0.1093640E+00
         21   -1    0    0  501  502  0.00000000000E+00  0.00000000000E+00  0.67316584515E+02  0.67316584515E+02  0.00000000000E+00 0.  1.
         21   -1    0    0  502  503 -0.00000000000E+00 -0.00000000000E+00 -0.12540859389E+04  0.12540859389E+04  0.00000000000E+00 0.  1.
         -6    2    1    2    0  503 -0.14002578912E+03 -0.17745565555E+03 -0.44825077603E+03  0.53015203986E+03  0.17039570373E+03 0.  0.
        -24    2    3    3    0    0 -0.17340923278E+02 -0.12305081495E+03 -0.20727149872E+03  0.25428148130E+03  0.79091003726E+02 0.  0.
          6    2    1    2  501    0  0.14002578912E+03  0.17745565555E+03 -0.73851857837E+03  0.79125048357E+03  0.17195902373E+03 0.  0.
         24    2    5    5    0    0  0.42601412510E+02  0.40660436316E+02 -0.13379825041E+03  0.16362543132E+03  0.73506180229E+02 0.  0.
          5    1    5    5  501    0  0.97424376615E+02  0.13679521924E+03 -0.60472032796E+03  0.62762505225E+03  0.47000000000E+01 0. -1.
        -13    1    6    6    0    0 -0.10121621675E+02  0.87599601189E+01  0.28848949152E+01  0.13693310238E+02  0.00000000000E+00 0.  1.
         14    1    6    6    0    0  0.52723034184E+02  0.31900476197E+02 -0.13668314533E+03  0.14993212108E+03  0.00000000000E+00 0. -1.
         -5    1    3    3    0  503 -0.12268486585E+03 -0.54404840605E+02 -0.24097927731E+03  0.27587055856E+03  0.47000000000E+01 0.  1.
         13    1    4    4    0    0  0.23320490295E+02 -0.92724874898E+02 -0.14883937031E+03  0.17690366262E+03  0.00000000000E+00 0. -1.
        -14    1    4    4    0    0 -0.40661413573E+02 -0.30325940051E+02 -0.58432128411E+02  0.77377818685E+02  0.00000000000E+00 0.  1.
</event>
<event>
12    1  0.1035051E+000  0.2182062E+03  0.7818608E-02  0.1135234E+00
         21   -1    0    0  503  502  0.00000000000E+00  0.00000000000E+00  0.44553890499E+02  0.44553890499E+02  0.00000000000E+00 0. -1.
         21   -1    0    0  501  503 -0.00000000000E+00 -0.00000000000E+00 -0.12517995604E+04  0.12517995604E+04  0.00000000000E+00 0. -1.
          6    2    1    2  501    0  0.10776205408E+02  0.13277930764E+03 -0.35563690373E+03  0.41724281272E+03  0.17282212338E+03 0.  0.
         24    2    3    3    0    0  0.64972715460E+02  0.88065582007E+02 -0.15233217051E+03  0.20208825545E+03  0.75216835426E+02 0.  0.
         -6    2    1    2    0  502 -0.10776205408E+02 -0.13277930764E+03 -0.85160876621E+03  0.87911063822E+03  0.17277601803E+03 0.  0.
        -24    2    5    5    0    0  0.56565955784E+01 -0.13980276624E+03 -0.49122593621E+03  0.51825437864E+03  0.87794476214E+02 0.  0.
          5    1    3    3  501    0 -0.54196510052E+02  0.44713725629E+02 -0.20330473322E+03  0.21515455727E+03  0.47000000000E+01 0. -1.
        -11    1    4    4    0    0  0.65051353339E+01  0.37910961827E+02 -0.10464421528E+03  0.11148977354E+03  0.00000000000E+00 0.  1.
         12    1    4    4    0    0  0.58467580126E+02  0.50154620179E+02 -0.47687955229E+02  0.90598481914E+02  0.00000000000E+00 0. -1.
         -5    1    5    5    0  502 -0.16432800986E+02  0.70234586018E+01 -0.36038283000E+03  0.36085625958E+03  0.47000000000E+01 0.  1.
         11    1    6    6    0    0  0.30523689544E+02 -0.71481407104E+02 -0.14542850001E+03  0.16489613640E+03  0.00000000000E+00 0. -1.
        -12    1    6    6    0    0 -0.24867093966E+02 -0.68321359134E+02 -0.34579743620E+03  0.35335824224E+03  0.00000000000E+00 0.  1.
</event>
<event>
12    1  0.1035051E+000  0.1995450E+03  0.7818608E-02  0.1150542E+00
         21   -1    0    0  501  502  0.00000000000E+00  0.00000000000E+00  0.10757660314E+03  0.10757660314E+03  0.00000000000E+00 0. -1.
         21   -1    0    0  502  503 -0.00000000000E+00 -0.00000000000E+00 -0.37783765126E+03  0.37783765126E+03  0.00000000000E+00 0. -1.
         -6    2    1    2    0  503  0.19622238646E+02  0.98624401716E+02 -0.92428710913E+02  0.21812686775E+03  0.17007192293E+03 0.  0.
        -24    2    3    3    0    0  0.39417217027E+02  0.19170928182E+02 -0.10409674387E+03  0.13528407314E+03  0.74460774069E+02 0.  0.
          6    2    1    2  501    0 -0.19622238646E+02 -0.98624401716E+02 -0.17783233721E+03  0.26728738666E+03  0.17235545262E+03 0.  0.
         24    2    5    5    0    0  0.46565956357E+02 -0.95324949182E+02 -0.11507341667E+03  0.17589517883E+03  0.80261998999E+02 0.  0.
          5    1    5    5  501    0 -0.66188195003E+02 -0.32994525341E+01 -0.62758920535E+02  0.91392207827E+02  0.47000000000E+01 0. -1.
        -11    1    6    6    0    0 -0.97523458059E+01 -0.70958278360E+02 -0.59769287644E+02  0.93287476447E+02  0.00000000000E+00 0.  1.
         12    1    6    6    0    0  0.56318302163E+02 -0.24366670823E+02 -0.55304129028E+02  0.82607702383E+02  0.00000000000E+00 0. -1.
         -5    1    3    3    0  503 -0.19794978381E+02  0.79453473534E+02  0.11668032954E+02  0.82842794610E+02  0.47000000000E+01 0.  1.
         13    1    4    4    0    0 -0.18159799463E+02 -0.62365377597E+01 -0.45117444880E+02  0.49033218865E+02  0.00000000000E+00 0. -1.
        -14    1    4    4    0    0  0.57577016490E+02  0.25407465942E+02 -0.58979298987E+02  0.86250854271E+02  0.00000000000E+00 0.  1.
</event>
<event>
12    1  0.1035051E+000  0.2829895E+03  0.7818608E-02  0.1094320E+00
         21   -1    0    0  501  502  0.00000000000E+00  0.00000000000E+00  0.14321472552E+04  0.14321472552E+04  0.00000000000E+00 0. -1.
         21   -1    0    0  502  503 -0.00000000000E+00 -0.00000000000E+00 -0.62174678528E+02  0.62174678528E+02  0.00000000000E+00 0. -1.
         -6    2    1    2    0  503 -0.22016836007E+03  0.25875919519E+02  0.93091100496E+03  0.97297398671E+03  0.17589601950E+03 0.  0.
        -24    2    3    3    0    0 -0.56620152462E+02 -0.23808573236E+01  0.20983544027E+03  0.23302904170E+03  0.84024473445E+02 0.  0.
          6    2    1    2  501    0  0.22016836007E+03 -0.25875919519E+02  0.43906157168E+03  0.52134794698E+03  0.17287263551E+03 0.  0.
         24    2    5    5    0    0  0.19782102678E+03 -0.15608564642E+02  0.24485356375E+03  0.32553256908E+03  0.81494784634E+02 0.  0.
          5    1    5    5  501    0  0.22347333295E+02 -0.10267354878E+02  0.19420800792E+03  0.19581537790E+03  0.47000000000E+01 0. -1.
        -13    1    6    6    0    0  0.16834491750E+03 -0.26841610476E+02  0.15536995866E+03  0.23065191817E+03  0.00000000000E+00 0.  1.
         14    1    6    6    0    0  0.29476109280E+02  0.11233045834E+02  0.89483605089E+02  0.94880650908E+02  0.00000000000E+00 0. -1.
         -5    1    3    3    0  503 -0.16354820761E+03  0.28256776843E+02  0.72107556469E+03  0.73994494501E+03  0.47000000000E+01 0.  1.
         11    1    4    4    0    0 -0.53841059755E+01  0.16905112440E+02  0.15332925396E+03  0.15435229685E+03  0.00000000000E+00 0. -1.
        -12    1    4    4    0    0 -0.51236046486E+02 -0.19285969763E+02  0.56506186313E+02  0.78676744854E+02  0.00000000000E+00 0.  1.
</event>
<event>
12    1  0.1035051E+000  0.1968753E+03  0.7818608E-02  0.1152625E+00
         21   -1    0    0  503  502  0.00000000000E+00  0.00000000000E+00  0.96182385684E+02  0.96182385684E+02  0.00000000000E+00 0.  1.
         21   -1    0    0  501  503 -0.00000000000E+00 -0.00000000000E+00 -0.40821167795E+03  0.40821167795E+03  0.00000000000E+00 0.  1.
          6    2    1    2  501    0 -0.44043064517E+01  0.94407680767E+02 -0.12181389159E+03  0.23063909060E+03  0.17153296425E+03 0.  0.
         24    2    3    3    0    0 -0.22827862724E+02  0.23007005926E+00 -0.89182012433E+01  0.82394776430E+02  0.78665116925E+02 0.  0.
         -6    2    1    2    0  502  0.44043064517E+01 -0.94407680767E+02 -0.19021540068E+03  0.27375497304E+03  0.17270691505E+03 0.  0.
        -24    2    5    5    0    0  0.34266298454E+02 -0.96255543663E+02 -0.20284100674E+03  0.24094264163E+03  0.80433659905E+02 0.  0.
          5    1    3    3  501    0  0.18423556272E+02  0.94177610708E+02 -0.11289569035E+03  0.14824431417E+03  0.47000000000E+01 0. -1.
        -13    1    4    4    0    0  0.23131318809E+02  0.18791422046E+02 -0.13300631457E+02  0.32635597887E+02  0.00000000000E+00 0.  1.
         14    1    4    4    0    0 -0.45959181532E+02 -0.18561351986E+02  0.43824302134E+01  0.49759178543E+02  0.00000000000E+00 0. -1.
         -5    1    5    5    0  502 -0.29861992002E+02  0.18478628958E+01  0.12625606066E+02  0.32812331404E+02  0.47000000000E+01 0.  1.
         13    1    6    6    0    0  0.86270803466E+01 -0.93513766204E+02 -0.19042713645E+03  0.21232462241E+03  0.00000000000E+00 0. -1.
        -14    1    6    6    0    0  0.25639218107E+02 -0.27417774596E+01 -0.12413870296E+02  0.28618019228E+02  0.00000000000E+00 0.  1.
</event>
<event>
12    1  0.1035051E+000  0.2555573E+03  0.7818608E-02  0.1109913E+00
         21   -1    0    0  503  502  0.00000000000E+00  0.00000000000E+00  0.62315193842E+03  0.62315193842E+03  0.00000000000E+00 0. -1.
         21   -1    0    0  501  503 -0.00000000000E+00 -0.00000000000E+00 -0.28034873009E+03  0.28034873009E+03  0.00000000000E+00 0. -1.
          6    2    1    2  501    0 -0.12338186126E+03  0.14102271665E+03 -0.18620357503E+03  0.31619821062E+03  0.17377872928E+03 0.  0.
         24    2    3    3    0    0 -0.58803214605E+02 -0.11259818153E+01 -0.58614523178E+02  0.11451105131E+03  0.78854503123E+02 0.  0.
         -6    2    1    2    0  502  0.12338186126E+03 -0.14102271665E+03  0.52900678336E+03  0.58730245788E+03  0.17310548777E+03 0.  0.
        -24    2    5    5    0    0  0.57071262820E+02 -0.96700726945E+02  0.15021203019E+03  0.20017316518E+03  0.69982014937E+02 0.  0.
          5    1    3    3  501    0 -0.64578646654E+02  0.14214869846E+03 -0.12758905185E+03  0.20168715931E+03  0.47000000000E+01 0. -1.
        -11    1    4    4    0    0  0.18222896795E+02  0.73742118875E+00 -0.23741494965E+02  0.29937874687E+02  0.00000000000E+00 0.  1.
         12    1    4    4    0    0 -0.77026111399E+02 -0.18634030041E+01 -0.34873028214E+02  0.84573176628E+02  0.00000000000E+00 0. -1.
         -5    1    5    5    0  502  0.66310598438E+02 -0.44321989702E+02  0.37879475317E+03  0.38712929270E+03  0.47000000000E+01 0.  1.
         11    1    6    6    0    0  0.18987259363E+02  0.55757824765E+01  0.42269649146E+02  0.46672568038E+02  0.00000000000E+00 0. -1.
        -12    1    6    6    0    0  0.38084003457E+02 -0.10227650942E+03  0.10794238104E+03  0.15350059714E+03  0.00000000000E+00 0.  1.
</event>
<event>
12    1  0.1035051E+000  0.2243393E+03  0.7818608E-02  0.1132492E+00
         21   -1    0    0  503  502  0.00000000000E+00  0.00000000000E+00  0.15734904345E+02  0.15734904345E+02  0.00000000000E+00 0. -1.
         21   -1    0    0  501  503 -0.00000000000E+00 -0.00000000000E+00 -0.35710497830E+04  0.35710497830E+04  0.00000000000E+00 0. -1.
          6    2    1    2  501    0  0.11944231930E+03  0.46322621114E+02 -0.24211050452E+04  0.24306012768E+04  0.17222274466E+03 0.  0.
         24    2    3    3    0    0  0.61732565085E+02  0.75025085240E+02 -0.97977753167E+03  0.98782570916E+03  0.79974665381E+02 0.  0.
         -6    2    1    2    0  502 -0.11944231930E+03 -0.46322621114E+02 -0.11342098334E+04  0.11561834105E+04  0.18416264486E+03 0.  0.
        -24    2    5    5    0    0 -0.34946199938E+02 -0.34328085089E+02 -0.23091188064E+03  0.24885064659E+03  0.78782570221E+02 0.  0.
          5    1    3    3  501    0  0.57709754217E+02 -0.28702464126E+02 -0.14413275136E+04  0.14427755676E+04  0.47000000000E+01 0. -1.
        -11    1    4    4    0    0  0.52558787617E+02  0.29846143983E+01 -0.45898947696E+03  0.46199856497E+03  0.00000000000E+00 0.  1.
         12    1    4    4    0    0  0.91737774684E+01  0.72040470842E+02 -0.52078805471E+03  0.52582714419E+03  0.00000000000E+00 0. -1.
         -5    1    5    5    0  502 -0.84496119364E+02 -0.11994536026E+02 -0.90329795276E+03  0.90733276395E+03  0.47000000000E+01 0.  1.
         11    1    6    6    0    0 -0.15881466487E+02  0.25463975444E+02 -0.73953260043E+02  0.79810523706E+02  0.00000000000E+00 0. -1.
        -12    1    6    6    0    0 -0.19064733451E+02 -0.59792060533E+02 -0.15695862060E+03  0.16904012288E+03  0.00000000000E+00 0.  1.
</event>
<event>
12    1  0.1035051E+000  0.1824349E+03  0.7818608E-02  0.1165758E+00
         21   -1    0    0  503  502  0.00000000000E+00  0.00000000000E+00  0.56038790650E+02  0.56038790650E+02  0.00000000000E+00 0.  1.
         21   -1    0    0  501  503 -0.00000000000E+00 -0.00000000000E+00 -0.90961019017E+03  0.90961019017E+03  0.00000000000E+00 0.  1.
          6    2    1    2  501    0 -0.42550427073E+02 -0.46594474976E+02 -0.13964186190E+03  0.22877864558E+03  0.16987711776E+03 0.  0.
         24    2    3    3    0    0  0.21278164541E+02 -0.19890484646E+02 -0.14976553757E+02  0.86122691409E+02  0.79651924944E+02 0.  0.
         -6    2    1    2    0  502  0.42550427073E+02  0.46594474976E+02 -0.71392953762E+03  0.73687033523E+03  0.17117512180E+03 0.  0.
        -24    2    5    5    0    0  0.20316780528E+02  0.93494065419E+02 -0.41808822170E+03  0.43647379593E+03  0.80979636763E+02 0.  0.
          5    1    3    3  501    0 -0.63828591615E+02 -0.26703990330E+02 -0.12466530815E+03  0.14265595418E+03  0.47000000000E+01 0. -1.
        -11    1    4    4    0    0  0.24086927048E+02 -0.48820445323E+02 -0.25126495009E+01  0.54497058120E+02  0.00000000000E+00 0.  1.
         12    1    4    4    0    0 -0.28087625066E+01  0.28929960678E+02 -0.12463904256E+02  0.31625633289E+02  0.00000000000E+00 0. -1.
         -5    1    5    5    0  502  0.22233646545E+02 -0.46899590443E+02 -0.29584131591E+03  0.30039653930E+03  0.47000000000E+01 0.  1.
         13    1    6    6    0    0  0.44382389922E+02  0.46086339546E+02 -0.30323921459E+03  0.30991574418E+03  0.00000000000E+00 0. -1.
        -14    1    6    6    0    0 -0.24065609394E+02  0.47407725873E+02 -0.11484900712E+03  0.12655805176E+03  0.00000000000E+00 0.  1.
</event>
<event>
12    1  0.1035051E+000  0.2620627E+03  0.7818608E-02  0.1106079E+00
         21   -1    0    0  501  502  0.00000000000E+00  0.00000000000E+00  0.14303755969E+04  0.14303755969E+04  0.00000000000E+00 0. -1.
         21   -1    0    0  502  503 -0.00000000000E+00 -0.00000000000E+00 -0.67832815836E+02  0.67832815836E+02  0.00000000000E+00 0. -1.
         -6    2    1    2    0  503 -0.12695327772E+03 -0.15049077570E+03  0.27527725513E+03  0.38007161619E+03  0.17295160580E+03 0.  0.
        -24    2    3    3    0    0 -0.41120690392E+02 -0.26128994499E+02  0.17454046950E+03  0.19840412969E+03  0.80784823172E+02 0.  0.
          6    2    1    2  501    0  0.12695327772E+03  0.15049077570E+03  0.10872655259E+04  0.11181367965E+04  0.17122781202E+03 0.  0.
         24    2    5    5    0    0  0.53088193287E+02  0.12238910745E+03  0.92063558263E+03  0.93365540870E+03  0.79656112737E+02 0.  0.
          5    1    5    5  501    0  0.73865084432E+02  0.28101668248E+02  0.16662994330E+03  0.18448138784E+03  0.47000000000E+01 0. -1.
        -11    1    6    6    0    0  0.39663975496E+02  0.87730792486E+02  0.38958816498E+03  0.40130893486E+03  0.00000000000E+00 0.  1.
         12    1    6    6    0    0  0.13424217791E+02  0.34658314968E+02  0.53104741765E+03  0.53234647384E+03  0.00000000000E+00 0. -1.
         -5    1    3    3    0  503 -0.85832587326E+02 -0.12436178120E+03  0.10073678564E+03  0.18166748650E+03  0.47000000000E+01 0.  1.
         13    1    4    4    0    0  0.13863261273E+02  0.83093952300E+00  0.49202314751E+00  0.13896854335E+02  0.00000000000E+00 0. -1.
        -14    1    4    4    0    0 -0.54983951666E+02 -0.26959934022E+02  0.17404844635E+03  0.18450727536E+03  0.00000000000E+00 0.  1.
</event>
<event>
12    1  0.1035051E+000  0.1766596E+03  0.7818608E-02  0.1171301E+00
         21   -1    0    0  503  502  0.00000000000E+00  0.00000000000E+00  0.30615954146E+03  0.30615954146E+03  0.00000000000E+00 0. -1.
         21   -1    0    0  501  503 -0.00000000000E+00 -0.00000000000E+00 -0.10228849807E+03  0.10228849807E+03  0.00000000000E+00 0. -1.
          6    2    1    2  501    0 -0.22062063740E+02  0.23034519173E+02  0.82794815709E+02  0.19427973834E+03  0.17283608272E+03 0.  0.
         24    2    3    3    0    0  0.24112269719E+02 -0.18719605467E+01 -0.21367215556E+02  0.77556901841E+02  0.70523821048E+02 0.  0.
         -6    2    1    2    0  502  0.22062063740E+02 -0.23034519173E+02  0.12107622769E+03  0.21416830120E+03  0.17375639440E+03 0.  0.
        -24    2    5    5    0    0  0.41210522606E+02 -0.24846099286E+02  0.80349857828E+00  0.92276690873E+02  0.78731862960E+02 0.  0.
          5    1    3    3  501    0 -0.46174333459E+02  0.24906479720E+02  0.10416203126E+03  0.11672283650E+03  0.47000000000E+01 0. -1.
        -13    1    4    4    0    0 -0.98237457887E+01  0.27533851627E+02 -0.44429784089E+01  0.29569562457E+02  0.00000000000E+00 0.  1.
         14    1    4    4    0    0  0.33936015508E+02 -0.29405812174E+02 -0.16924237147E+02  0.47987339384E+02  0.00000000000E+00 0. -1.
         -5    1    5    5    0  502 -0.19148458867E+02  0.18115801134E+01  0.12027272911E+03  0.12189161032E+03  0.47000000000E+01 0.  1.
         11    1    6    6    0    0  0.21954201774E+02  0.27070411999E+02 -0.91072578123E+01  0.36024107569E+02  0.00000000000E+00 0. -1.
        -12    1    6    6    0    0  0.19256320833E+02 -0.51916511285E+02  0.99107563906E+01  0.56252583303E+02  0.00000000000E+00 0.  1.
</event>
<event>
12    1  0.1035051E+000  0.2277828E+03  0.7818608E-02  0.1128296E+00
         21   -1    0    0  503  502  0.00000000000E+00  0.00000000000E+00  0.20179240725E+03  0.20179240725E+03  0.00000000000E+00 0.  1.
         21   -1    0    0  501  503 -0.00000000000E+00 -0.00000000000E+00 -0.25675838020E+03  0.25675838020E+03  0.00000000000E+00 0.  1.
          6    2    1    2  501    0 -0.51946566811E+02 -0.13979028497E+03 -0.33574914508E+02  0.23024395411E+03  0.17217791364E+03 0.  0.
         24    2    3    3    0    0  0.29513881434E+02 -0.61695469406E+02  0.17054784081E+02  0.10646971921E+03  0.79796837695E+02 0.  0.
         -6    2    1    2    0  502  0.51946566811E+02  0.13979028497E+03 -0.21391058440E+02  0.22830683333E+03  0.17154201582E+03 0.  0.
        -24    2    5    5    0    0 -0.17555139443E+01  0.24958637881E+01 -0.17099315347E+02  0.80746064078E+02  0.78855748766E+02 0.  0.
          5    1    3    3  501    0 -0.81460448246E+02 -0.78094815560E+02 -0.50629698589E+02  0.12377423490E+03  0.47000000000E+01 0. -1.
        -11    1    4    4    0    0  0.53584284704E+01 -0.15576063822E+02 -0.31329386292E+02  0.35395719590E+02  0.00000000000E+00 0.  1.
         12    1    4    4    0    0  0.24155452964E+02 -0.46119405584E+02  0.48384170373E+02  0.71073999620E+02  0.00000000000E+00 0. -1.
         -5    1    5    5    0  502  0.53702080756E+02  0.13729442118E+03 -0.42917430934E+01  0.14756076925E+03  0.47000000000E+01 0.  1.
         13    1    6    6    0    0  0.18180130956E+02  0.35044136270E+02 -0.14842078161E+01  0.39507107225E+02  0.00000000000E+00 0. -1.
        -14    1    6    6    0    0 -0.19935644900E+02 -0.32548272482E+02 -0.15615107531E+02  0.41238956853E+02  0.00000000000E+00 0.  1.
</event>
<event>
12    1  0.1035051E+000  0.1799061E+03  0.7818608E-02  0.1168850E+00
         21   -1    0    0  503  502  0.00000000000E+00  0.00000000000E+00  0.20995193982E+02  0.20995193982E+02  0.00000000000E+00 0.  1.
         21   -1    0    0  501  503 -0.00000000000E+00 -0.00000000000E+00 -0.16091753006E+04  0.16091753006E+04  0.00000000000E+00 0.  1.
          6    2    1    2  501    0 -0.35097362327E+02 -0.19972291922E+02 -0.10062797119E+04  0.10222353236E+04  0.17531537580E+03 0.  0.
         24    2    3    3    0    0  0.44185827748E+02  0.17692250618E+02 -0.51378708551E+03  0.52195988045E+03  0.78737185976E+02 0.  0.
         -6    2    1    2    0  502  0.35097362327E+02  0.19972291922E+02 -0.58190039473E+03  0.60793517097E+03  0.17130786739E+03 0.  0.
        -24    2    5    5    0    0  0.75852203412E+02  0.16534778672E+02 -0.24300932479E+03  0.26655265699E+03  0.77264683680E+02 0.  0.
          5    1    3    3  501    0 -0.79283190075E+02 -0.37664542540E+02 -0.49249262635E+03  0.50027544313E+03  0.47000000000E+01 0. -1.
        -13    1    4    4    0    0  0.16356291108E+02  0.42085639472E+02 -0.16020092161E+03  0.16644237619E+03  0.00000000000E+00 0.  1.
         14    1    4    4    0    0  0.27829536640E+02 -0.24393388855E+02 -0.35358616390E+03  0.35551750426E+03  0.00000000000E+00 0. -1.
         -5    1    5    5    0  502 -0.40754841085E+02  0.34375132502E+01 -0.33889106994E+03  0.34138251399E+03  0.47000000000E+01 0.  1.
         13    1    6    6    0    0  0.81569321978E+02  0.14891815307E+01 -0.23462574120E+03  0.24840493228E+03  0.00000000000E+00 0. -1.
        -14    1    6    6    0    0 -0.57171185666E+01  0.15045597142E+02 -0.83835835878E+01  0.18147724701E+02  0.00000000000E+00 0.  1.
</event>
<event>
12    1  0.1035051E+000  0.3489310E+03  0.7818608E-02  0.1063334E+00
         21   -1    0    0  501  502  0.00000000000E+00  0.00000000000E+00  0.34350354053E+04  0.34350354053E+04  0.00000000000E+00 0. -1.
         21   -1    0    0  502  503 -0.00000000000E+00 -0.00000000000E+00 -0.37735261969E+02  0.37735261969E+02  0.00000000000E+00 0. -1.
         -6    2    1    2    0  503  0.21797304824E+03  0.20681520378E+03  0.21451574881E+04  0.21729190990E+04  0.17202320708E+03 0.  0.
        -24    2    3    3    0    0  0.11225871565E+03  0.79476692010E+02  0.14286569688E+04  0.14375377688E+04  0.80842676395E+02 0.  0.
          6    2    1    2  501    0 -0.21797304824E+03 -0.20681520378E+03  0.12521426552E+04  0.12998515683E+04  0.17739248071E+03 0.  0.
         24    2    5    5    0    0 -0.17392022777E+02 -0.71440142290E+02  0.37734704774E+03  0.39219050822E+03  0.77565610367E+02 0.  0.
          5    1    5    5  501    0 -0.20058102546E+03 -0.13537506149E+03  0.87479560748E+03  0.90766106004E+03  0.47000000000E+01 0. -1.
        -11    1    6    6    0    0 -0.23291516908E+02 -0.83246310102E+02  0.25757398837E+03  0.27169247761E+03  0.00000000000E+00 0.  1.
         12    1    6    6    0    0  0.58994941308E+01  0.11806167812E+02  0.11977305937E+03  0.12049803061E+03  0.00000000000E+00 0. -1.
         -5    1    3    3    0  503  0.10571433258E+03  0.12733851177E+03  0.71650051928E+03  0.73538133021E+03  0.47000000000E+01 0.  1.
         11    1    4    4    0    0  0.97403674684E+01  0.10971416836E+02  0.55805735809E+03  0.55825017838E+03  0.00000000000E+00 0. -1.
        -12    1    4    4    0    0  0.10251834818E+03  0.68505275174E+02  0.87059961073E+03  0.87928759041E+03  0.00000000000E+00 0.  1.
</event>
<event>
12    1  0.1035051E+000  0.1810998E+03  0.7818608E-02  0.1166908E+00
         21   -1    0    0  501  502  0.00000000000E+00  0.00000000000E+00  0.60703789282E+03  0.60703789282E+03  0.00000000000E+00 0.  1.
         21   -1    0    0  502  503 -0.00000000000E+00 -0.00000000000E+00 -0.60151179660E+02  0.60151179660E+02  0.00000000000E+00 0.  1.
         -6    2    1    2    0  503 -0.35177222733E+02 -0.37428919278E+02  0.16571136686E+03  0.24547384792E+03  0.17366286854E+03 0.  0.
        -24    2    3    3    0    0  0.29035125636E+02  0.16528095905E+02  0.12201989612E+03  0.15078689113E+03  0.82046419870E+02 0.  0.
          6    2    1    2  501    0  0.35177222733E+02  0.37428919278E+02  0.38117534631E+03  0.42171522456E+03  0.17294717401E+03 0.  0.
         24    2    5    5    0    0  0.65854355938E+01 -0.31868549785E+02  0.29590045145E+03  0.30807752306E+03  0.79345514164E+02 0.  0.
          5    1    5    5  501    0  0.28591787139E+02  0.69297469064E+02  0.85274894859E+02  0.11363770151E+03  0.47000000000E+01 0. -1.
        -11    1    6    6    0    0  0.25569902769E+02 -0.12632950174E+01  0.24139074808E+03  0.24274453465E+03  0.00000000000E+00 0.  1.
         12    1    6    6    0    0 -0.18984467175E+02 -0.30605254768E+02  0.54509703369E+02  0.65332988411E+02  0.00000000000E+00 0. -1.
         -5    1    3    3    0  503 -0.64212348369E+02 -0.53957015183E+02  0.43691470737E+02  0.94686956788E+02  0.47000000000E+01 0.  1.
         13    1    4    4    0    0  0.50793096787E+01 -0.19133610874E+02  0.10106923222E+03  0.10298972839E+03  0.00000000000E+00 0. -1.
        -14    1    4    4    0    0  0.23955815957E+02  0.35661706779E+02  0.20950663898E+02  0.47797162744E+02  0.00000000000E+00 0.  1.
</event>
<event>
12    1  0.2362637E+000  0.2486619E+03  0.7818608E-02  0.1116062E+00
         21   -1    0    0  503  502  0.00000000000E+00  0.00000000000E+00  0.30449164127E+03  0.30449164127E+03  0.00000000000E+00 0. -1.
         21   -1    0    0  501  503 -0.00000000000E+00 -0.00000000000E+00 -0.15331127454E+04  0.15331127454E+04  0.00000000000E+00 0. -1.
          6    2    1    2  501    0  0.17960226780E+02  0.17543543089E+03  0.24634825218E+03  0.34182119447E+03  0.15828489341E+03 0.  0.
         24    2    3    3    0    0 -0.38997733679E+02  0.77709223554E+02  0.16755697998E+03  0.20389086628E+03  0.77049316386E+02 0.  0.
         -6    2    1    2    0  502 -0.17960226780E+02 -0.17543543089E+03 -0.14749693563E+04  0.14957831922E+04  0.17530714717E+03 0.  0.
        -24    2    5    5    0    0 -0.71734641048E+02 -0.11971121090E+03 -0.11744581462E+04  0.11854189646E+04  0.79934672689E+02 0.  0.
          5    1    3    3  501    0  0.56957960458E+02  0.97726207337E+02  0.78791272198E+02  0.13793032819E+03  0.47000000000E+01 0. -1.
        -13    1    4    4    0    0  0.10751722652E+02  0.54467896384E+02  0.11585292412E+03  0.12846887289E+03  0.00000000000E+00 0.  1.
         14    1    4    4    0    0 -0.49749456331E+02  0.23241327171E+02  0.51704055868E+02  0.75421993391E+02  0.00000000000E+00 0. -1.
         -5    1    5    5    0  502  0.53774414268E+02 -0.55724219995E+02 -0.30051121016E+03  0.31036422757E+03  0.47000000000E+01 0.  1.
         13    1    6    6    0    0  0.27110137585E+01  0.10427166517E+02 -0.91438154707E+02  0.92070687699E+02  0.00000000000E+00 0. -1.
        -14    1    6    6    0    0 -0.74445654806E+02 -0.13013837741E+03 -0.10830199915E+04  0.10933482769E+04  0.00000000000E+00 0.  1.
</event>
<event>
12    1  0.1035051E+000  0.2259088E+03  0.7818608E-02  0.1129560E+00
         21   -1    0    0  501  502  0.00000000000E+00  0.00000000000E+00  0.26222412042E+03  0.26222412042E+03  0.00000000000E+00 0. -1.
         21   -1    0    0  502  503 -0.00000000000E+00 -0.00000000000E+00 -0.55109907823E+03  0.55109907823E+03  0.00000000000E+00 0. -1.
         -6    2    1    2    0  503  0.11232152949E+03  0.94054086299E+02  0.18264607269E+03  0.29047821726E+03  0.17191774108E+03 0.  0.
        -24    2    3    3    0    0  0.84469984763E+02  0.77720549002E+02  0.20670131053E+03  0.24994135191E+03  0.81052979950E+02 0.  0.
          6    2    1    2  501    0 -0.11232152949E+03 -0.94054086299E+02 -0.47152103049E+03  0.52284498139E+03  0.17196655267E+03 0.  0.
         24    2    5    5    0    0 -0.73272715705E+02  0.50844536461E+01 -0.16699786613E+03  0.20018462189E+03  0.82406632103E+02 0.  0.
          5    1    5    5  501    0 -0.39048813784E+02 -0.99138539946E+02 -0.30452316437E+03  0.32266035950E+03  0.47000000000E+01 0. -1.
        -13    1    6    6    0    0 -0.20598780490E+01 -0.34156074243E+01  0.91579974608E+01  0.99889133116E+01  0.00000000000E+00 0.  1.
         14    1    6    6    0    0 -0.71212837656E+02  0.85000610704E+01 -0.17615586359E+03  0.19019570858E+03  0.00000000000E+00 0. -1.
         -5    1    3    3    0  503  0.27851544726E+02  0.16333537297E+02 -0.24055237844E+02  0.40536865344E+02  0.47000000000E+01 0.  1.
         11    1    4    4    0    0  0.87877159262E+02  0.42000014837E+02  0.18185856928E+03  0.20629817155E+03  0.00000000000E+00 0. -1.
        -12    1    4    4    0    0 -0.34071744984E+01  0.35720534165E+02  0.24842741250E+02  0.43643180359E+02  0.00000000000E+00 0.  1.
</event>
<event>
12    1  0.1035051E+000  0.2192406E+03  0.7818608E-02  0.1135743E+00
         21   -1    0    0  501  502  0.00000000000E+00  0.00000000000E+00  0.59891559707E+03  0.59891559707E+03  0.00000000000E+00 0.  1.
         21   -1    0    0  502  503 -0.00000000000E+00 -0.00000000000E+00 -0.12877961193E+03  0.12877961193E+03  0.00000000000E+00 0.  1.
         -6    2    1    2    0  503 -0.11956051207E+03 -0.29649430880E+02  0.46176528671E+03  0.50829486252E+03  0.17309732074E+03 0.  0.
        -24    2    3    3    0    0  0.62567929207E+01  0.41124457756E+01  0.22010442393E+03  0.23371896927E+03  0.78246658043E+02 0.  0.
          6    2    1    2  501    0  0.11956051207E+03  0.29649430880E+02  0.83706984328E+01  0.21940034649E+03  0.18136327811E+03 0.  0.
         24    2    5    5    0    0  0.16302122955E+01  0.38207591019E+02 -0.33343653159E+02  0.93929334539E+02  0.79047094048E+02 0.  0.
          5    1    5    5  501    0  0.11793029978E+03 -0.85581601385E+01  0.41714351591E+02  0.12547101195E+03  0.47000000000E+01 0. -1.
        -13    1    6    6    0    0 -0.45696315283E+01  0.27750893743E+02  0.22973582950E+02  0.36314998960E+02  0.00000000000E+00 0.  1.
         14    1    6    6    0    0  0.61998438238E+01  0.10456697275E+02 -0.56317236109E+02  0.57614335580E+02  0.00000000000E+00 0. -1.
         -5    1    3    3    0  503 -0.12581730499E+03 -0.33761876656E+02  0.24166086279E+03  0.27457589325E+03  0.47000000000E+01 0.  1.
         13    1    4    4    0    0 -0.13450421185E+02 -0.33020193842E+02  0.11890303555E+03  0.12413371378E+03  0.00000000000E+00 0. -1.
        -14    1    4    4    0    0  0.19707214105E+02  0.37132639617E+02  0.10120138837E+03  0.10958525549E+03  0.00000000000E+00 0.  1.
</event>
<event>
12    1  0.1035051E+000  0.2744951E+03  0.7818608E-02  0.1099014E+00
         21   -1    0    0  503  502  0.00000000000E+00  0.00000000000E+00  0.84641548340E+02  0.84641548340E+02  0.00000000000E+00 0. -1.
         21   -1    0    0  501  503 -0.00000000000E+00 -0.00000000000E+00 -0.12117652385E+04  0.12117652385E+04  0.00000000000E+00 0. -1.
          6    2    1    2  501    0 -0.11554626025E+03 -0.17768695081E+03 -0.22483013494E+03  0.35328367625E+03  0.17128098430E+03 0.  0.
         24    2    3    3    0    0 -0.14718863215E+03 -0.16329333353E+03 -0.21300688413E+03  0.31626617799E+03  0.79518277427E+02 0.  0.
         -6    2    1    2    0  502  0.11554626025E+03  0.17768695081E+03 -0.90229355518E+03  0.94312311055E+03  0.17442462896E+03 0.  0.
        -24    2    5    5    0    0  0.29583039681E+02  0.15980430987E+02 -0.20123877125E+03  0.21852765520E+03  0.78273639380E+02 0.  0.
          5    1    3    3  501    0  0.31642371898E+02 -0.14393617278E+02 -0.11823250806E+02  0.37017498258E+02  0.47000000000E+01 0. -1.
        -11    1    4    4    0    0 -0.70378299920E+02 -0.54029908277E+02 -0.39021192597E+02  0.96927754331E+02  0.00000000000E+00 0.  1.
         12    1    4    4    0    0 -0.76810332229E+02 -0.10926342525E+03 -0.17398569153E+03  0.21933842366E+03  0.00000000000E+00 0. -1.
         -5    1    5    5    0  502  0.85963220570E+02  0.16170651982E+03 -0.70105478393E+03  0.72459545535E+03  0.47000000000E+01 0.  1.
         11    1    6    6    0    0 -0.17457960810E+02  0.29459881234E+02 -0.60428957160E+02  0.69457352824E+02  0.00000000000E+00 0. -1.
        -12    1    6    6    0    0  0.47041000491E+02 -0.13479450247E+02 -0.14080981409E+03  0.14907030238E+03  0.00000000000E+00 0.  1.
</event>
<event>
12    1  0.1035051E+000  0.3281858E+03  0.7818608E-02  0.1072104E+00
         21   -1    0    0  501  502  0.00000000000E+00  0.00000000000E+00  0.28028260771E+04  0.28028260771E+04  0.00000000000E+00 0.  1.
         21   -1    0    0  502  503 -0.00000000000E+00 -0.00000000000E+00 -0.39548872007E+02  0.39548872007E+02  0.00000000000E+00 0.  1.
         -6    2    1    2    0  503 -0.11744949151E+03  0.25135358451E+03  0.16353938637E+04  0.16677146695E+04  0.17258656343E+03 0.  0.
        -24    2    3    3    0    0 -0.48135785262E+02  0.23834831284E+03  0.12532078493E+04  0.12790480172E+04  0.79416275344E+02 0.  0.
          6    2    1    2  501    0  0.11744949151E+03 -0.25135358451E+03  0.11278833414E+04  0.11746602796E+04  0.17530810944E+03 0.  0.
         24    2    5    5    0    0  0.60866924210E+02 -0.76008428205E+02  0.67210666408E+03  0.68302832344E+03  0.72926395075E+02 0.  0.
          5    1    5    5  501    0  0.56582567305E+02 -0.17534515630E+03  0.45577667732E+03  0.49163195619E+03  0.47000000000E+01 0. -1.
        -13    1    6    6    0    0  0.61417456367E+02 -0.66587272807E+02  0.66518506657E+03  0.67132491510E+03  0.00000000000E+00 0.  1.
         14    1    6    6    0    0 -0.55053215670E+00 -0.94211553977E+01  0.69215975121E+01  0.11703408341E+02  0.00000000000E+00 0. -1.
         -5    1    3    3    0  503 -0.69313706253E+02  0.13005271663E+02  0.38218601439E+03  0.38866665223E+03  0.47000000000E+01 0.  1.
         13    1    4    4    0    0 -0.55519887352E+02  0.16537992870E+03  0.10123708834E+04  0.10272914797E+04  0.00000000000E+00 0. -1.
        -14    1    4    4    0    0  0.73841020906E+01  0.72968384140E+02  0.24083696589E+03  0.25175653753E+03  0.00000000000E+00 0.  1.
</event>
<event>
12    1  0.1035051E+000  0.2093786E+03  0.7818608E-02  0.1142106E+00
         21   -1    0    0  501  502  0.00000000000E+00  0.00000000000E+00  0.15271135890E+03  0.15271135890E+03  0.00000000000E+00 0. -1.
         21   -1    0    0  502  503 -0.00000000000E+00 -0.00000000000E+00 -0.71023167669E+03  0.71023167669E+03  0.00000000000E+00 0. -1.
         -6    2    1    2    0  503 -0.11907720181E+03 -0.90607678825E+01 -0.61186921264E+03  0.64662570418E+03  0.17169563310E+03 0.  0.
        -24    2    3    3    0    0  0.25926965079E+00 -0.36843965381E+02 -0.25640435841E+03  0.27060648649E+03  0.78275989367E+02 0.  0.
          6    2    1    2  501    0  0.11907720181E+03  0.90607678825E+01  0.54348894846E+02  0.21631733141E+03  0.17198228976E+03 0.  0.
         24    2    5    5    0    0 -0.51078622181E+01 -0.48374204659E+01 -0.39878141567E+00  0.79809134506E+02  0.79497471851E+02 0.  0.
          5    1    5    5  501    0  0.12418506402E+03  0.13898188348E+02  0.54747676261E+02  0.13650819690E+03  0.47000000000E+01 0. -1.
        -13    1    6    6    0    0 -0.54713107279E+01  0.49086510412E+01 -0.39157889372E+02  0.39841817180E+02  0.00000000000E+00 0.  1.
         14    1    6    6    0    0  0.36344850982E+00 -0.97460715071E+01  0.38759107956E+02  0.39967317326E+02  0.00000000000E+00 0. -1.
         -5    1    3    3    0  503 -0.11933647146E+03  0.27783197499E+02 -0.35546485422E+03  0.37601921769E+03  0.47000000000E+01 0.  1.
         11    1    4    4    0    0  0.31808305100E+02 -0.43030857215E+02 -0.14117669657E+03  0.15097775532E+03  0.00000000000E+00 0. -1.
        -12    1    4    4    0    0 -0.31549035449E+02  0.61868918336E+01 -0.11522766184E+03  0.11962873117E+03  0.00000000000E+00 0.  1.
</event>
<event>
12    1  0.1035051E+000  0.3751808E+03  0.7818608E-02  0.1052799E+00
         21   -1    0    0  503  502  0.00000000000E+00  0.00000000000E+00  0.33872447756E+03  0.33872447756E+03  0.00000000000E+00 0.  1.
         21   -1    0    0  501  503 -0.00000000000E+00 -0.00000000000E+00 -0.41515073427E+03  0.41515073427E+03  0.00000000000E+00 0.  1.
          6    2    1    2  501    0 -0.32773386161E+03  0.55433502926E+02 -0.50052103529E+02  0.37850477683E+03  0.17400659678E+03 0.  0.
         24    2    3    3    0    0 -0.15174779975E+03  0.17005487487E+02  0.40102748889E+02  0.17701583481E+03  0.80061188931E+02 0.  0.
         -6    2    1    2    0  502  0.32773386161E+03 -0.55433502926E+02 -0.26374153182E+02  0.37537043500E+03  0.17240942614E+03 0.  0.
        -24    2    5    5    0    0  0.18539904423E+03 -0.48672300297E+01  0.47423377684E+02  0.20719102557E+03  0.79263161656E+02 0.  0.
          5    1    3    3  501    0 -0.17598606187E+03  0.38428015440E+02 -0.90154852418E+02  0.20148894202E+03  0.47000000000E+01 0. -1.
        -13    1    4    4    0    0 -0.71575875001E+01 -0.13242107922E+02  0.24122563692E+02  0.28433827743E+02  0.00000000000E+00 0.  1.
         14    1    4    4    0    0 -0.14459021225E+03  0.30247595409E+02  0.15980185197E+02  0.14858200707E+03  0.00000000000E+00 0. -1.
         -5    1    5    5    0  502  0.14233481738E+03 -0.50566272897E+02 -0.73797530866E+02  0.16817940943E+03  0.47000000000E+01 0.  1.
         13    1    6    6    0    0  0.10544085704E+02  0.44883247239E+01  0.28924058183E+02  0.31111476081E+02  0.00000000000E+00 0. -1.
        -14    1    6    6    0    0  0.17485495852E+03 -0.93555547537E+01  0.18499319501E+02  0.17607954949E+03  0.00000000000E+00 0.  1.
</event>
<event>
12    1  0.1035051E+000  0.2442753E+03  0.7818608E-02  0.1117724E+00
         21   -1    0    0  503  502  0.00000000000E+00  0.00000000000E+00  0.24378410090E+02  0.24378410090E+02  0.00000000000E+00 0. -1.
         21   -1    0    0  501  503 -0.00000000000E+00 -0.00000000000E+00 -0.25494926099E+04  0.25494926099E+04  0.00000000000E+00 0. -1.
          6    2    1    2  501    0  0.15396503140E+03  0.65797175367E+02 -0.15605521976E+04  0.15788583176E+04  0.17156901422E+03 0.  0.
         24    2    3    3    0    0  0.47129574962E+02  0.75872193380E+02 -0.10658717413E+04  0.10726506878E+04  0.80741206681E+02 0.  0.
         -6    2    1    2    0  502 -0.15396503140E+03 -0.65797175367E+02 -0.96456200221E+03  0.99501270233E+03  0.17786489958E+03 0.  0.
        -24    2    5    5    0    0 -0.14642343196E+02 -0.16736363352E+02 -0.18845114147E+03  0.20495705056E+03  0.77453571779E+02 0.  0.
          5    1    3    3  501    0  0.10683545644E+03 -0.10075018013E+02 -0.49468045623E+03  0.50620762985E+03  0.47000000000E+01 0. -1.
        -13    1    4    4    0    0  0.44224329368E+02  0.34488578697E+02 -0.27334859644E+03  0.27904248519E+03  0.00000000000E+00 0.  1.
         14    1    4    4    0    0  0.29052455945E+01  0.41383614683E+02 -0.79252314489E+03  0.79360820258E+03  0.00000000000E+00 0. -1.
         -5    1    5    5    0  502 -0.13932268820E+03 -0.49060812015E+02 -0.77611086074E+03  0.79005565176E+03  0.47000000000E+01 0.  1.
         13    1    6    6    0    0  0.28468670146E+02 -0.19924083631E+02 -0.11033602943E+03  0.11567831983E+03  0.00000000000E+00 0. -1.
        -14    1    6    6    0    0 -0.43111013343E+02  0.31877202792E+01 -0.78115112037E+02  0.89278730729E+02  0.00000000000E+00 0.  1.
</event>
<event>
12    1  0.1035051E+000  0.1937806E+03  0.7818608E-02  0.1155132E+00
         21   -1    0    0  503  502  0.00000000000E+00  0.00000000000E+00  0.54559946419E+03  0.54559946419E+03  0.00000000000E+00 0. -1.
         21   -1    0    0  501  503 -0.00000000000E+00 -0.00000000000E+00 -0.73877678960E+02  0.73877678960E+02  0.00000000000E+00 0. -1.
          6    2    1    2  501    0  0.64115993328E+02  0.61232195720E+02  0.31744055556E+03  0.37191318252E+03  0.17230979840E+03 0.  0.
         24    2    3    3    0    0 -0.88945313295E+01 -0.19210582717E+02  0.17213374720E+03  0.19042561857E+03  0.78636696939E+02 0.  0.
         -6    2    1    2    0  502 -0.64115993328E+02 -0.61232195720E+02  0.15428122967E+03  0.24756396063E+03  0.17211907036E+03 0.  0.
        -24    2    5    5    0    0 -0.39429273807E+02 -0.96386074963E+02  0.15453891310E+03  0.20435070170E+03  0.83856964784E+02 0.  0.
          5    1    3    3  501    0  0.73010524658E+02  0.80442778438E+02  0.14530680836E+03  0.18148756395E+03  0.47000000000E+01 0. -1.
        -13    1    4    4    0    0  0.28665861940E+02  0.11292781188E+02  0.46346931002E+02  0.55653360734E+02  0.00000000000E+00 0.  1.
         14    1    4    4    0    0 -0.37560393269E+02 -0.30503363905E+02  0.12578681620E+03  0.13477225783E+03  0.00000000000E+00 0. -1.
         -5    1    5    5    0  502 -0.24686719521E+02  0.35153879243E+02 -0.25768343474E+00  0.43213258929E+02  0.47000000000E+01 0.  1.
         13    1    6    6    0    0 -0.64958216069E-01 -0.72318268263E+01 -0.10461409876E+02  0.12717886437E+02  0.00000000000E+00 0. -1.
        -14    1    6    6    0    0 -0.39364315591E+02 -0.89154248137E+02  0.16500032298E+03  0.19163281527E+03  0.00000000000E+00 0.  1.
</event>
<event>
12    1  0.1035051E+000  0.2206846E+03  0.7818608E-02  0.1133872E+00
         21   -1    0    0  501  502  0.00000000000E+00  0.00000000000E+00  0.87231047064E+03  0.87231047064E+03  0.00000000000E+00 0. -1.
         21   -1    0    0  502  503 -0.00000000000E+00 -0.00000000000E+00 -0.11847185088E+03  0.11847185088E+03  0.00000000000E+00 0. -1.
         -6    2    1    2    0  503  0.82803270241E+02 -0.10595685499E+03  0.73800017162E+03  0.76953007114E+03  0.17160722713E+03 0.  0.
        -24    2    3    3    0    0  0.51314811892E+02 -0.76645727966E+02  0.23964048738E+03  0.26929499635E+03  0.81144650681E+02 0.  0.
          6    2    1    2  501    0 -0.82803270241E+02  0.10595685499E+03  0.15838448144E+02  0.22125225037E+03  0.17498132806E+03 0.  0.
         24    2    5    5    0    0 -0.61759433869E+02  0.14098924855E+03  0.33805383378E+02  0.17636336077E+03  0.79177239146E+02 0.  0.
          5    1    5    5  501    0 -0.21043836372E+02 -0.35032393557E+02 -0.17966935234E+02  0.44888889597E+02  0.47000000000E+01 0. -1.
        -11    1    6    6    0    0 -0.50633395385E+02  0.12936081432E+03 -0.60515213887E-02  0.13891710135E+03  0.00000000000E+00 0.  1.
         12    1    6    6    0    0 -0.11126038484E+02  0.11628434230E+02  0.33811434899E+02  0.37446259425E+02  0.00000000000E+00 0. -1.
         -5    1    3    3    0  503  0.31488458350E+02 -0.29311127028E+02  0.49835968424E+03  0.50023507479E+03  0.47000000000E+01 0.  1.
         13    1    4    4    0    0 -0.79994851122E+01 -0.40944316339E+01  0.10424871049E+03  0.10463531799E+03  0.00000000000E+00 0. -1.
        -14    1    4    4    0    0  0.59314297004E+02 -0.72551296332E+02  0.13539177689E+03  0.16465967836E+03  0.00000000000E+00 0.  1.
</event>
<event>
12    1  0.1035051E+000  0.2487736E+03  0.7818608E-02  0.1114179E+00
         21   -1    0    0  503  502  0.00000000000E+00  0.00000000000E+00  0.11331089607E+04  0.11331089607E+04  0.00000000000E+00 0.  1.
         21   -1    0    0  501  503 -0.00000000000E+00 -0.00000000000E+00 -0.84800112177E+02  0.84800112177E+02  0.00000000000E+00 0.  1.
          6    2    1    2  501    0 -0.17927644621E+03 -0.36654849820E+02  0.16046865126E+03  0.29603799617E+03  0.16853689494E+03 0.  0.
         24    2    3    3    0    0 -0.57274487263E+02  0.39057656064E+02  0.54268006310E+02  0.11738322147E+03  0.77639788674E+02 0.  0.
         -6    2    1    2    0  502  0.17927644621E+03  0.36654849820E+02  0.88784019723E+03  0.92187107667E+03  0.16763783586E+03 0.  0.
        -24    2    5    5    0    0  0.63048401385E+02  0.11012809122E+01  0.37955644988E+03  0.39923595301E+03  0.10653606805E+03 0.  0.
          5    1    3    3  501    0 -0.12200195895E+03 -0.75712505884E+02  0.10620064495E+03  0.17865477470E+03  0.47000000000E+01 0. -1.
        -13    1    4    4    0    0 -0.39483004142E+02  0.13123873682E+02  0.70597977304E+02  0.81946434187E+02  0.00000000000E+00 0.  1.
         14    1    4    4    0    0 -0.17791483122E+02  0.25933782383E+02 -0.16329970994E+02  0.35436787284E+02  0.00000000000E+00 0. -1.
         -5    1    5    5    0  502  0.11622804483E+03  0.35553568908E+02  0.50828374735E+03  0.52263512366E+03  0.47000000000E+01 0.  1.
         13    1    6    6    0    0  0.90842312977E+02  0.12369492350E+02  0.25077314845E+03  0.26700655825E+03  0.00000000000E+00 0. -1.
        -14    1    6    6    0    0 -0.27793911593E+02 -0.11268211438E+02  0.12878330144E+03  0.13222939476E+03  0.00000000000E+00 0.  1.
</event>
<event>
12    1  0.1035051E+000  0.1800594E+03  0.7818608E-02  0.1169384E+00
         21   -1    0    0  503  502  0.00000000000E+00  0.00000000000E+00  0.41569049747E+03  0.41569049747E+03  0.00000000000E+00 0. -1.
         21   -1    0    0  501  503 -0.00000000000E+00 -0.00000000000E+00 -0.79713315677E+02  0.79713315677E+02  0.00000000000E+00 0. -1.
          6    2    1    2  501    0  0.41965160664E+02 -0.69664531334E+01  0.10572183414E+03  0.20310448278E+03  0.16812114243E+03 0.  0.
         24    2    3    3    0    0 -0.19580841756E+02  0.17499687635E+02  0.10825037406E+03  0.13665912198E+03  0.79170219814E+02 0.  0.
         -6    2    1    2    0  502 -0.41965160664E+02  0.69664531334E+01  0.23025534765E+03  0.29229933036E+03  0.17496218801E+03 0.  0.
        -24    2    5    5    0    0  0.70997329325E+01 -0.34934403277E+02  0.20494284310E+03  0.22283093152E+03  0.79882641192E+02 0.  0.
          5    1    3    3  501    0  0.61546002421E+02 -0.24466140768E+02 -0.25285399121E+01  0.66445360802E+02  0.47000000000E+01 0. -1.
        -11    1    4    4    0    0  0.23604113545E+02 -0.13532817793E+02  0.55213557631E+02  0.61553458716E+02  0.00000000000E+00 0.  1.
         12    1    4    4    0    0 -0.43184955301E+02  0.31032505428E+02  0.53036816425E+02  0.75105663261E+02  0.00000000000E+00 0. -1.
         -5    1    5    5    0  502 -0.49064893597E+02  0.41900856410E+02  0.25312504547E+02  0.69468398845E+02  0.47000000000E+01 0.  1.
         11    1    6    6    0    0  0.43570618902E+02 -0.19664882780E+02  0.11829413171E+03  0.12758764848E+03  0.00000000000E+00 0. -1.
        -12    1    6    6    0    0 -0.36470885969E+02 -0.15269520496E+02  0.86648711385E+02  0.95243283040E+02  0.00000000000E+00 0.  1.
</event>
<event>
12    1  0.1035051E+000  0.4099356E+03  0.7818608E-02  0.1040643E+00
         21   -1    0    0  501  502  0.00000000000E+00  0.00000000000E+00  0.15328339177E+03  0.15328339177E+03  0.00000000000E+00 0. -1.
         21   -1    0    0  502  503 -0.00000000000E+00 -0.00000000000E+00 -0.11494579751E+04  0.11494579751E+04  0.00000000000E+00 0. -1.
         -6    2    1    2    0  503 -0.32723895545E+03 -0.16998646036E+03 -0.34622071129E+03  0.53430971127E+03  0.17215503468E+03 0.  0.
        -24    2    3    3    0    0 -0.12068674208E+03 -0.13353751266E+03 -0.17278899472E+03  0.26210943033E+03  0.80297943734E+02 0.  0.
          6    2    1    2  501    0  0.32723895545E+03  0.16998646036E+03 -0.64995387206E+03  0.76843165563E+03  0.17907105542E+03 0.  0.
         24    2    5    5    0    0  0.12124174903E+03  0.13541609022E+03 -0.36358089216E+03  0.41394395039E+03  0.78239694021E+02 0.  0.
          5    1    5    5  501    0  0.20599720642E+03  0.34570370133E+02 -0.28637297990E+03  0.35448770524E+03  0.47000000000E+01 0. -1.
        -11    1    6    6    0    0  0.11206046477E+03  0.13590564793E+03 -0.36437188892E+03  0.40471566110E+03  0.00000000000E+00 0.  1.
         12    1    6    6    0    0  0.91812842599E+01 -0.48955770507E+00  0.79099675685E+00  0.92282892931E+01  0.00000000000E+00 0. -1.
         -5    1    3    3    0  503 -0.20655221337E+03 -0.36448947699E+02 -0.17343171657E+03  0.27220028095E+03  0.47000000000E+01 0.  1.
         11    1    4    4    0    0 -0.49830238958E+02 -0.62223571045E+02 -0.13076749224E+03  0.15315013070E+03  0.00000000000E+00 0. -1.
        -12    1    4    4    0    0 -0.70856503123E+02 -0.71313941613E+02 -0.42021502482E+02  0.10895929962E+03  0.00000000000E+00 0.  1.
</event>
<event>
12    1  0.1035051E+000  0.2224236E+03  0.7818608E-02  0.1132218E+00
         21   -1    0    0  501  502  0.00000000000E+00  0.00000000000E+00  0.75021857730E+03  0.75021857730E+03  0.00000000000E+00 0.  1.
         21   -1    0    0  502  503 -0.00000000000E+00 -0.00000000000E+00 -0.90359196529E+02  0.90359196529E+02  0.00000000000E+00 0.  1.
         -6    2    1    2    0  503 -0.10891961155E+02  0.13984520715E+03  0.11090962715E+03  0.24854217150E+03  0.17261792734E+03 0.  0.
        -24    2    3    3    0    0 -0.41856289073E+02  0.16050015037E+03  0.74649209659E+02  0.19636627515E+03  0.73992988262E+02 0.  0.
          6    2    1    2  501    0  0.10891961155E+02 -0.13984520715E+03  0.54894975363E+03  0.59203560234E+03  0.17171198458E+03 0.  0.
         24    2    5    5    0    0 -0.61279260792E+02 -0.60995772625E+02  0.27381035216E+03  0.29682432402E+03  0.75212620634E+02 0.  0.
          5    1    5    5  501    0  0.72171221947E+02 -0.78849434520E+02  0.27513940147E+03  0.29521127831E+03  0.47000000000E+01 0. -1.
        -13    1    6    6    0    0  0.70316242374E+01  0.10754563252E+02  0.57331767526E+02  0.58754029120E+02  0.00000000000E+00 0.  1.
         14    1    6    6    0    0 -0.68310885029E+02 -0.71750335877E+02  0.21647858463E+03  0.23807029490E+03  0.00000000000E+00 0. -1.
         -5    1    3    3    0  503  0.30964327918E+02 -0.20654943221E+02  0.36260417488E+02  0.52175896344E+02  0.47000000000E+01 0.  1.
         11    1    4    4    0    0 -0.60822249523E+02  0.13384019823E+03  0.71558287839E+02  0.16350270107E+03  0.00000000000E+00 0. -1.
        -12    1    4    4    0    0  0.18965960450E+02  0.26659952136E+02  0.30909218204E+01  0.32863574081E+02  0.00000000000E+00 0.  1.
</event>
<event>
12    1  0.1035051E+000  0.1794025E+03  0.7818608E-02  0.1168506E+00
         21   -1    0    0  503  502  0.00000000000E+00  0.00000000000E+00  0.11933616761E+04  0.11933616761E+04  0.00000000000E+00 0.  1.
         21   -1    0    0  501  503 -0.00000000000E+00 -0.00000000000E+00 -0.29900068259E+02  0.29900068259E+02  0.00000000000E+00 0.  1.
          6    2    1    2  501    0 -0.43479867506E+02 -0.18745270115E+02  0.77640053207E+03  0.79685822849E+03  0.17304151549E+03 0.  0.
         24    2    3    3    0    0 -0.39510186416E+02  0.55424750888E+02  0.43860195308E+03  0.45095806898E+03  0.79740509708E+02 0.  0.
         -6    2    1    2    0  502  0.43479867506E+02  0.18745270115E+02  0.38706107580E+03  0.42640351590E+03  0.17251608024E+03 0.  0.
        -24    2    5    5    0    0  0.78721873089E+02  0.25792905087E+02  0.36795684854E+03  0.38543121287E+03  0.79388728486E+02 0.  0.
          5    1    3    3  501    0 -0.39696810899E+01 -0.74170021003E+02  0.33779857898E+03  0.34590015951E+03  0.47000000000E+01 0. -1.
        -13    1    4    4    0    0 -0.48550708843E+02  0.54419352932E+01  0.14538127364E+03  0.15337046885E+03  0.00000000000E+00 0.  1.
         14    1    4    4    0    0  0.90405224269E+01  0.49982815595E+02  0.29322067944E+03  0.29758760013E+03  0.00000000000E+00 0. -1.
         -5    1    5    5    0  502 -0.35242005583E+02 -0.70476349714E+01  0.19104227257E+02  0.40972303026E+02  0.47000000000E+01 0.  1.
         11    1    6    6    0    0  0.22480909224E+02  0.16790306929E+02  0.24397513873E+02  0.37182581533E+02  0.00000000000E+00 0. -1.
        -12    1    6    6    0    0  0.56240963865E+02  0.90025981577E+01  0.34355933467E+03  0.34824863134E+03  0.00000000000E+00 0.  1.
</event>
<event>
12    1  0.1035051E+000  0.2361151E+03  0.7818608E-02  0.1122619E+00
         21   -1    0    0  503  502  0.00000000000E+00  0.00000000000E+00  0.59180565690E+02  0.59180565690E+02  0.00000000000E+00 0.  1.
         21   -1    0    0  501  503 -0.00000000000E+00 -0.00000000000E+00 -0.93954144596E+03  0.93954144596E+03  0.00000000000E+00 0. -1.
          6    2    1    2  501    0 -0.10444123560E+03  0.12323591114E+03 -0.41365088206E+03  0.47568418442E+03  0.17050903082E+03 0.  0.
         24    2    3    3    0    0 -0.84134892428E+02  0.13811724212E+02 -0.15510862704E+03  0.19416653331E+03  0.79828019049E+02 0.  0.
         -6    2    1    2    0  502  0.10444123560E+03 -0.12323591114E+03 -0.46670999820E+03  0.52303782722E+03  0.17220709857E+03 0.  0.
        -24    2    5    5    0    0  0.16627075799E+02 -0.11614153944E+03 -0.24918094817E+03  0.28829832399E+03  0.85202475612E+02 0.  0.
          5    1    3    3  501    0 -0.20306343168E+02  0.10942418693E+03 -0.25854225502E+03  0.28151765111E+03  0.47000000000E+01 0. -1.
        -13    1    4    4    0    0 -0.70739168658E+02  0.39036678145E+02 -0.14052811679E+03  0.16209887054E+03  0.00000000000E+00 0.  1.
         14    1    4    4    0    0 -0.13395723770E+02 -0.25224953933E+02 -0.14580510258E+02  0.32067662772E+02  0.00000000000E+00 0. -1.
         -5    1    5    5    0  502  0.87814159796E+02 -0.70943716977E+01 -0.21752905003E+03  0.23473950323E+03  0.47000000000E+01 0.  1.
         11    1    6    6    0    0 -0.14590373134E+02  0.76451488310E+01 -0.19529844031E+02  0.25548817913E+02  0.00000000000E+00 0. -1.
        -12    1    6    6    0    0  0.31217448933E+02 -0.12378668827E+03 -0.22965110414E+03  0.26274950608E+03  0.00000000000E+00 0.  1.
</event>
<event>
12    1  0.1035051E+000  0.2397212E+03  0.7818608E-02  0.1120208E+00
         21   -1    0    0  503  502  0.00000000000E+00  0.00000000000E+00  0.65446347091E+02  0.65446347091E+02  0.00000000000E+00 0.  1.
         21   -1    0    0  501  503 -0.00000000000E+00 -0.00000000000E+00 -0.92924510090E+03  0.92924510090E+03  0.00000000000E+00 0.  1.
          6    2    1    2  501    0  0.15588668318E+03 -0.12984423079E+02 -0.30843827839E+03  0.38980177607E+03  0.17983881623E+03 0.  0.
         24    2    3    3    0    0  0.12519967570E+02 -0.16867524438E+02 -0.59228866983E+02  0.10223175964E+03  0.80635048374E+02 0.  0.
         -6    2    1    2    0  502 -0.15588668318E+03  0.12984423079E+02 -0.55536047542E+03  0.60488967192E+03  0.18165077566E+03 0.  0.
        -24    2    5    5    0    0 -0.17399276302E+03 -0.25306031759E+02 -0.49128854875E+03  0.52793974764E+03  0.80262458064E+02 0.  0.
          5    1    3    3  501    0  0.14336671561E+03  0.38831013595E+01 -0.24920941140E+03  0.28757001643E+03  0.47000000000E+01 0. -1.
        -11    1    4    4    0    0  0.79405630676E+01  0.21648597218E+02  0.81744505878E+01  0.24464994293E+02  0.00000000000E+00 0.  1.
         12    1    4    4    0    0  0.45794045026E+01 -0.38516121656E+02 -0.67403317571E+02  0.77766765347E+02  0.00000000000E+00 0. -1.
         -5    1    5    5    0  502  0.18106079848E+02  0.38290454838E+02 -0.64071926675E+02  0.76949924282E+02  0.47000000000E+01 0.  1.
         13    1    6    6    0    0 -0.10126094541E+03 -0.53676202590E+02 -0.27152825445E+03  0.29472445903E+03  0.00000000000E+00 0. -1.
        -14    1    6    6    0    0 -0.72731817618E+02  0.28370170830E+02 -0.21976029430E+03  0.23321528860E+03  0.00000000000E+00 0.  1.
</event>
<event>
12    1  0.1035051E+000  0.2364506E+03  0.7818608E-02  0.1122255E+00
         21   -1    0    0  503  502  0.00000000000E+00  0.00000000000E+00  0.23767972814E+04  0.23767972814E+04  0.00000000000E+00 0.  1.
         21   -1    0    0  501  503 -0.00000000000E+00 -0.00000000000E+00 -0.28146633170E+02  0.28146633170E+02  0.00000000000E+00 0.  1.
          6    2    1    2  501    0  0.61282391390E+02 -0.14955410193E+03  0.68374905270E+03  0.72333569457E+03  0.17198778757E+03 0.  0.
         24    2    3    3    0    0  0.33492725781E+01 -0.15703808153E+03  0.53112931863E+03  0.55985135455E+03  0.81627258918E+02 0.  0.
         -6    2    1    2    0  502 -0.61282391390E+02  0.14955410193E+03  0.16649015955E+04  0.16816082200E+04  0.17258888109E+03 0.  0.
        -24    2    5    5    0    0 -0.94043061229E+02  0.15161593874E+03  0.15415484983E+04  0.15538757290E+04  0.79539413730E+02 0.  0.
          5    1    3    3  501    0  0.57933118812E+02  0.74839796022E+01  0.15261973407E+03  0.16348434003E+03  0.47000000000E+01 0. -1.
        -11    1    4    4    0    0  0.28266215648E+02 -0.13549795302E+02  0.89843707628E+02  0.95154966766E+02  0.00000000000E+00 0.  1.
         12    1    4    4    0    0 -0.24916943070E+02 -0.14348828623E+03  0.44128561100E+03  0.46469638778E+03  0.00000000000E+00 0. -1.
         -5    1    5    5    0  502  0.32760669840E+02 -0.20618368161E+01  0.12335309723E+03  0.12773249100E+03  0.47000000000E+01 0.  1.
         13    1    6    6    0    0 -0.43456029972E+02  0.16457952233E+02  0.24928704775E+03  0.25358099871E+03  0.00000000000E+00 0. -1.
        -14    1    6    6    0    0 -0.50587031258E+02  0.13515798651E+03  0.12922614505E+04  0.13002947303E+04  0.00000000000E+00 0.  1.
</event>
<event>
12    1  0.1035051E+000  0.1750193E+03  0.7818608E-02  0.1173745E+00
         21   -1    0    0  501  502  0.00000000000E+00  0.00000000000E+00  0.54783019666E+03  0.54783019666E+03  0.00000000000E+00 0. -1.
         21   -1    0    0  502  503 -0.00000000000E+00 -0.00000000000E+00 -0.12988309079E+03  0.12988309079E+03  0.00000000000E+00 0. -1.
         -6    2    1    2    0  503  0.58218565758E+01 -0.18107236797E+02  0.46587440762E+03  0.49625041617E+03  0.16989333664E+03 0.  0.
        -24    2    3    3    0    0 -0.35643602229E+02 -0.37955749978E+02  0.14656237866E+03  0.17361190391E+03  0.77132723326E+02 0.  0.
          6    2    1    2  501    0 -0.58218565758E+01  0.18107236797E+02 -0.47927301746E+02  0.18146287128E+03  0.17398270420E+03 0.  0.
         24    2    5    5    0    0 -0.50073232115E+02 -0.15825162784E+02 -0.78704070567E+02  0.11759667147E+03  0.69834676671E+02 0.  0.
          5    1    5    5  501    0  0.44251375540E+02  0.33932399581E+02  0.30776768822E+02  0.63866199805E+02  0.47000000000E+01 0. -1.
        -13    1    6    6    0    0 -0.44761412219E+02 -0.11752155903E+02 -0.84734778830E+01  0.47047816311E+02  0.00000000000E+00 0.  1.
         14    1    6    6    0    0 -0.53118198962E+01 -0.40730068802E+01 -0.70230592685E+02  0.70548855161E+02  0.00000000000E+00 0. -1.
         -5    1    3    3    0  503  0.41465458805E+02  0.19848513180E+02  0.31931202896E+03  0.32263851225E+03  0.47000000000E+01 0.  1.
         11    1    4    4    0    0 -0.58065940622E+01 -0.22585855736E+02  0.13663585485E+03  0.13861166705E+03  0.00000000000E+00 0. -1.
        -12    1    4    4    0    0 -0.29837008167E+02 -0.15369894242E+02  0.99265238085E+01  0.35000236860E+02  0.00000000000E+00 0.  1.
</event>
<event>
12    1  0.1035051E+000  0.2934343E+03  0.7818608E-02  0.1088956E+00
         21   -1    0    0  501  502  0.00000000000E+00  0.00000000000E+00  0.19177494460E+03  0.19177494460E+03  0.00000000000E+00 0. -1.
         21   -1    0    0  502  503 -0.00000000000E+00 -0.00000000000E+00 -0.73934910374E+03  0.73934910374E+03  0.00000000000E+00 0. -1.
         -6    2    1    2    0  503 -0.21095057799E+03 -0.10245448268E+03  0.21093931866E+02  0.29121227288E+03  0.17135508904E+03 0.  0.
        -24    2    3    3    0    0 -0.14503073216E+03 -0.56745356158E+02  0.79236694106E+02  0.19202849839E+03  0.79640076498E+02 0.  0.
          6    2    1    2  501    0  0.21095057799E+03  0.10245448268E+03 -0.56866809101E+03  0.63991177545E+03  0.17637067574E+03 0.  0.
         24    2    5    5    0    0  0.11644951336E+03  0.46240457266E+02 -0.17006296025E+03  0.22639199584E+03  0.81444805113E+02 0.  0.
          5    1    5    5  501    0  0.94501064623E+02  0.56214025409E+02 -0.39860513076E+03  0.41351977962E+03  0.47000000000E+01 0. -1.
        -13    1    6    6    0    0  0.73792943757E+01  0.69963971612E+00  0.91104006675E+01  0.11744908750E+02  0.00000000000E+00 0.  1.
         14    1    6    6    0    0  0.10907021899E+03  0.45540817550E+02 -0.17917336092E+03  0.21464708709E+03  0.00000000000E+00 0. -1.
         -5    1    3    3    0  503 -0.65919845823E+02 -0.45709126518E+02 -0.58142762240E+02  0.99183774486E+02  0.47000000000E+01 0.  1.
         11    1    4    4    0    0 -0.52122328523E+02 -0.47972724145E+02  0.67717013548E+02  0.97998537318E+02  0.00000000000E+00 0. -1.
        -12    1    4    4    0    0 -0.92908403642E+02 -0.87726320122E+01  0.11519680559E+02  0.94029961075E+02  0.00000000000E+00 0.  1.
</event>
<event>
12    1  0.1035051E+000  0.1749132E+03  0.7818608E-02  0.1173100E+00
         21   -1    0    0  503  502  0.00000000000E+00  0.00000000000E+00  0.56981727038E+03  0.56981727038E+03  0.00000000000E+00 0.  1.
         21   -1    0    0  501  503 -0.00000000000E+00 -0.00000000000E+00 -0.56158173905E+02  0.56158173905E+02  0.00000000000E+00 0.  1.
          6    2    1    2  501    0  0.29231120029E+02 -0.45854672599E+01  0.18762925458E+03  0.25651385055E+03  0.17239238226E+03 0.  0.
         24    2    3    3    0    0  0.30691848509E+02 -0.34411693132E+02  0.69351901572E+02  0.13443453325E+03  0.10553105368E+03 0.  0.
         -6    2    1    2    0  502 -0.29231120029E+02  0.45854672599E+01  0.32602984190E+03  0.36946159374E+03  0.17126274128E+03 0.  0.
        -24    2    5    5    0    0 -0.62770847053E+02 -0.46770641073E+02  0.18588699017E+03  0.21641103986E+03  0.78435278745E+02 0.  0.
          5    1    3    3  501    0 -0.14607284793E+01  0.29826225872E+02  0.11827735301E+03  0.12207931730E+03  0.47000000000E+01 0. -1.
        -13    1    4    4    0    0 -0.48008250588E+01 -0.14670302175E+02  0.88285368721E+02  0.89624617251E+02  0.00000000000E+00 0.  1.
         14    1    4    4    0    0  0.35492673568E+02 -0.19741390957E+02 -0.18933467149E+02  0.44809916003E+02  0.00000000000E+00 0. -1.
         -5    1    5    5    0  502  0.33539727023E+02  0.51356108333E+02  0.14014285173E+03  0.15305055388E+03  0.47000000000E+01 0.  1.
         13    1    6    6    0    0 -0.40051141230E+02 -0.52262001140E+02  0.18090099006E+03  0.19251124352E+03  0.00000000000E+00 0. -1.
        -14    1    6    6    0    0 -0.22719705823E+02  0.54913600671E+01  0.49860001155E+01  0.23899796343E+02  0.00000000000E+00 0.  1.
</event>
<event>
12    1  0.1035051E+000  0.1887148E+03  0.7818608E-02  0.1159646E+00
         21   -1    0    0  501  502  0.00000000000E+00  0.00000000000E+00  0.26926314133E+03  0.26926314133E+03  0.00000000000E+00 0.  1.
         21   -1    0    0  502  503 -0.00000000000E+00 -0.00000000000E+00 -0.14118909486E+03  0.14118909486E+03  0.00000000000E+00 0.  1.
         -6    2    1    2    0  503  0.32444854301E+02  0.72911232217E+02  0.11583465205E+03  0.22142929298E+03  0.17101037635E+03 0.  0.
        -24    2    3    3    0    0  0.26212197780E+02  0.11167181839E+03  0.54620085555E+02  0.14855582594E+03  0.76992242075E+02 0.  0.
          6    2    1    2  501    0 -0.32444854301E+02 -0.72911232217E+02  0.12239394415E+02  0.18902294321E+03  0.17091270851E+03 0.  0.
         24    2    5    5    0    0 -0.96275304331E+01 -0.22315138908E+02 -0.55746266671E+02  0.10113247138E+03  0.80805171568E+02 0.  0.
          5    1    5    5  501    0 -0.22817323867E+02 -0.50596093310E+02  0.67985661086E+02  0.87890471838E+02  0.47000000000E+01 0. -1.
        -11    1    6    6    0    0 -0.40987841629E+02 -0.86646162513E+01 -0.51923945423E+02  0.66717125572E+02  0.00000000000E+00 0.  1.
         12    1    6    6    0    0  0.31360311196E+02 -0.13650522656E+02 -0.38223212476E+01  0.34415345804E+02  0.00000000000E+00 0. -1.
         -5    1    3    3    0  503  0.62326565206E+01 -0.38760586168E+02  0.61214566496E+02  0.72873467042E+02  0.47000000000E+01 0.  1.
         13    1    4    4    0    0 -0.39320905683E+01  0.69857821464E+02  0.65534216280E+02  0.95866104851E+02  0.00000000000E+00 0. -1.
        -14    1    4    4    0    0  0.30144288348E+02  0.41813996922E+02 -0.10914130725E+02  0.52689721085E+02  0.00000000000E+00 0.  1.
</event>
<event>
12    1  0.1035051E+000  0.2158298E+03  0.7818608E-02  0.1137605E+00
         21   -1    0    0  501  502  0.00000000000E+00  0.00000000000E+00  0.22170786412E+03  0.22170786412E+03  0.00000000000E+00 0.  1.
         21   -1    0    0  502  503 -0.00000000000E+00 -0.00000000000E+00 -0.23116309413E+03  0.23116309413E+03  0.00000000000E+00 0.  1.
         -6    2    1    2    0  503  0.96059347318E+02 -0.80554570746E+02  0.68184346050E+02  0.22350140331E+03  0.17200969496E+03 0.  0.
        -24    2    3    3    0    0  0.26689089365E+02  0.23216782575E+02  0.46597159957E+02  0.96738541786E+02  0.77043647802E+02 0.  0.
          6    2    1    2  501    0 -0.96059347318E+02  0.80554570746E+02 -0.77639576057E+02  0.22936955494E+03  0.17568736975E+03 0.  0.
         24    2    5    5    0    0 -0.72576766360E+02  0.14840493259E+02  0.15237875507E+02  0.11310226549E+03  0.84096981827E+02 0.  0.
          5    1    5    5  501    0 -0.23482580958E+02  0.65714077486E+02 -0.92877451564E+02  0.11626728946E+03  0.47000000000E+01 0. -1.
        -13    1    6    6    0    0  0.42686720920E+01 -0.37806438672E+01  0.31808176444E+02  0.32315242815E+02  0.00000000000E+00 0.  1.
         14    1    6    6    0    0 -0.76845438452E+02  0.18621137127E+02 -0.16570300937E+02  0.80787022671E+02  0.00000000000E+00 0. -1.
         -5    1    3    3    0  503  0.69370257953E+02 -0.10377135332E+03  0.21587186093E+02  0.12676286152E+03  0.47000000000E+01 0.  1.
         13    1    4    4    0    0  0.24640154983E+01 -0.24717355553E+02 -0.11623986161E+01  0.24867050658E+02  0.00000000000E+00 0. -1.
        -14    1    4    4    0    0  0.24225073866E+02  0.47934138128E+02  0.47759558573E+02  0.71871491128E+02  0.00000000000E+00 0.  1.
</event>
<event>
12    1  0.1035051E+000  0.2040216E+03  0.7818608E-02  0.1146432E+00
         21   -1    0    0  503  502  0.00000000000E+00  0.00000000000E+00  0.19879850025E+03  0.19879850025E+03  0.00000000000E+00 0. -1.
         21   -1    0    0  501  503 -0.00000000000E+00 -0.00000000000E+00 -0.21939217317E+03  0.21939217317E+03  0.00000000000E+00 0. -1.
          6    2    1    2  501    0  0.47722858892E+02 -0.98235875027E+02 -0.55433383379E+02  0.21141819730E+03  0.17232827903E+03 0.  0.
         24    2    3    3    0    0 -0.16448471446E+02  0.50333683722E+01 -0.33767066028E+02  0.87830108972E+02  0.79233997021E+02 0.  0.
         -6    2    1    2    0  502 -0.47722858892E+02  0.98235875027E+02  0.34839710451E+02  0.20677247612E+03  0.17208513315E+03 0.  0.
        -24    2    5    5    0    0 -0.20443405317E+02  0.67891322094E+02 -0.45937196815E+02  0.11615261501E+03  0.79712229210E+02 0.  0.
          5    1    3    3  501    0  0.64171330338E+02 -0.10326924340E+03 -0.21666317351E+02  0.12358808833E+03  0.47000000000E+01 0. -1.
        -13    1    4    4    0    0  0.22847585882E+02 -0.10157430814E+02  0.10138304741E+02  0.26980934091E+02  0.00000000000E+00 0.  1.
         14    1    4    4    0    0 -0.39296057328E+02  0.15190799186E+02 -0.43905370768E+02  0.60849174882E+02  0.00000000000E+00 0. -1.
         -5    1    5    5    0  502 -0.27279453575E+02  0.30344552933E+02  0.80776907265E+02  0.90619861109E+02  0.47000000000E+01 0.  1.
         11    1    6    6    0    0  0.41805901549E+01  0.77630789661E+02 -0.22878091118E+02  0.81039643944E+02  0.00000000000E+00 0. -1.
        -12    1    6    6    0    0 -0.24623995472E+02 -0.97394675662E+01 -0.23059105697E+02  0.35112971065E+02  0.00000000000E+00 0.  1.
</event>
<event>
12    1  0.1035051E+000  0.2513416E+03  0.7818608E-02  0.1112710E+00
         21   -1    0    0  503  502  0.00000000000E+00  0.00000000000E+00  0.97181093794E+03  0.97181093794E+03  0.00000000000E+00 0.  1.
         21   -1    0    0  501  503 -0.00000000000E+00 -0.00000000000E+00 -0.10718429767E+03  0.10718429767E+03  0.00000000000E+00 0.  1.
          6    2    1    2  501    0  0.17779254664E+03  0.42052379022E+02  0.77321476257E+03  0.81303975559E+03  0.17260933604E+03 0.  0.
         24    2    3    3    0    0  0.13624138216E+03  0.84320024569E+02  0.67841792913E+03  0.70113987730E+03  0.75330340671E+02 0.  0.
         -6    2    1    2    0  502 -0.17779254664E+03 -0.42052379022E+02  0.91411877687E+02  0.26595548002E+03  0.17028679850E+03 0.  0.
        -24    2    5    5    0    0 -0.22549502135E+02  0.95091817694E+01  0.80509227201E+02  0.10194342190E+03  0.57548423261E+02 0.  0.
          5    1    3    3  501    0  0.41551164487E+02 -0.42267645546E+02  0.94796833446E+02  0.11189987829E+03  0.47000000000E+01 0. -1.
        -11    1    4    4    0    0  0.13775309896E+03  0.91576445683E+02  0.60037595353E+03  0.62274669590E+03  0.00000000000E+00 0.  1.
         12    1    4    4    0    0 -0.15117168053E+01 -0.72564211145E+01  0.78041975594E+02  0.78393181398E+02  0.00000000000E+00 0. -1.
         -5    1    5    5    0  502 -0.15524304451E+03 -0.51561560791E+02  0.10902650486E+02  0.16401205812E+03  0.47000000000E+01 0.  1.
         11    1    6    6    0    0 -0.35252709371E+02 -0.56188369269E+01  0.26569318860E+02  0.44500039900E+02  0.00000000000E+00 0. -1.
        -12    1    6    6    0    0  0.12703207237E+02  0.15128018696E+02  0.53939908342E+02  0.57443382001E+02  0.00000000000E+00 0.  1.
</event>
<event>
12    1  0.1035051E+000  0.4782257E+03  0.7818608E-02  0.1019675E+00
         21   -1    0    0  503  502  0.00000000000E+00  0.00000000000E+00  0.10166751439E+04  0.10166751439E+04  0.00000000000E+00 0. -1.
         21   -1    0    0  501  503 -0.00000000000E+00 -0.00000000000E+00 -0.22464010962E+03  0.22464010962E+03  0.00000000000E+00 0. -1.
          6    2    1    2  501    0 -0.38695082644E+03 -0.22188795178E+03  0.38720730619E+03  0.61474897240E+03  0.17035725954E+03 0.  0.
         24    2    3    3    0    0 -0.34085499048E+03 -0.24337505873E+03  0.33858993297E+03  0.54423471260E+03  0.78324555151E+02 0.  0.
         -6    2    1    2    0  502  0.38695082644E+03  0.22188795178E+03  0.40482772811E+03  0.62656628114E+03  0.17243726391E+03 0.  0.
        -24    2    5    5    0    0  0.32921001651E+03  0.19984159974E+03  0.40527881038E+03  0.56457969997E+03  0.78634747523E+02 0.  0.
          5    1    3    3  501    0 -0.46095835954E+02  0.21487106945E+02  0.48617373219E+02  0.70514259806E+02  0.47000000000E+01 0. -1.
        -13    1    4    4    0    0 -0.22586680811E+03 -0.18966508723E+03  0.27055331789E+03  0.40023462886E+03  0.00000000000E+00 0.  1.
         14    1    4    4    0    0 -0.11498818238E+03 -0.53709971500E+02  0.68036615077E+02  0.14400008374E+03  0.00000000000E+00 0. -1.
         -5    1    5    5    0  502  0.57740809929E+02  0.22046352041E+02 -0.45108227028E+00  0.61986581167E+02  0.47000000000E+01 0.  1.
         13    1    6    6    0    0  0.90378313544E+02  0.98168028366E+02  0.14209159600E+03  0.19492363378E+03  0.00000000000E+00 0. -1.
        -14    1    6    6    0    0  0.23883170296E+03  0.10167357137E+03  0.26318721438E+03  0.36965606619E+03  0.00000000000E+00 0.  1.
</event>
<event>
12    1  0.1035051E+000  0.2125679E+03  0.7818608E-02  0.1139773E+00
         21   -1    0    0  501  502  0.00000000000E+00  0.00000000000E+00  0.55014958987E+03  0.55014958987E+03  0.00000000000E+00 0. -1.
         21   -1    0    0  502  503 -0.00000000000E+00 -0.00000000000E+00 -0.89756355853E+02  0.89756355853E+02  0.00000000000E+00 0. -1.
         -6    2    1    2    0  503  0.80793232226E+02 -0.95136166697E+02  0.13484478443E+03  0.25173049869E+03  0.17206595100E+03 0.  0.
        -24    2    3    3    0    0  0.67176535289E+02 -0.13379501144E+03  0.95928133748E+02  0.19501615824E+03  0.80095587595E+02 0.  0.
          6    2    1    2  501    0 -0.80793232226E+02  0.95136166697E+02  0.32554844958E+03  0.38817544703E+03  0.17064567989E+03 0.  0.
         24    2    5    5    0    0 -0.27484801117E+02  0.11750009163E+03  0.17905350113E+03  0.23061658855E+03  0.81007214613E+02 0.  0.
          5    1    5    5  501    0 -0.53308431109E+02 -0.22363924931E+02  0.14649494845E+03  0.15755885848E+03  0.47000000000E+01 0. -1.
        -13    1    6    6    0    0 -0.14774259702E+02  0.94744218939E+01 -0.37059389215E+01  0.17938154957E+02  0.00000000000E+00 0.  1.
         14    1    6    6    0    0 -0.12710541414E+02  0.10802566973E+03  0.18275944006E+03  0.21267843359E+03  0.00000000000E+00 0. -1.
         -5    1    3    3    0  503  0.13616696937E+02  0.38658844740E+02  0.38916650681E+02  0.56714340447E+02  0.47000000000E+01 0.  1.
         11    1    4    4    0    0 -0.67462972246E+01  0.75905055451E+01  0.42639715972E+01  0.11014070749E+02  0.00000000000E+00 0. -1.
        -12    1    4    4    0    0  0.73922832514E+02 -0.14138551698E+03  0.91664162151E+02  0.18400208749E+03  0.00000000000E+00 0.  1.
</event>
<event>
12    1  0.1151462E+000  0.2042203E+03  0.7818608E-02  0.1146830E+00
         21   -1    0    0  501  502  0.00000000000E+00  0.00000000000E+00  0.74021738685E+03  0.74021738685E+03  0.00000000000E+00 0.  1.
         21   -1    0    0  502  503 -0.00000000000E+00 -0.00000000000E+00 -0.19665824024E+03  0.19665824024E+03  0.00000000000E+00 0.  1.
         -6    2    1    2    0  503 -0.10296724915E+03 -0.70827187305E+01  0.66803777565E+03  0.69770862875E+03  0.17283067330E+03 0.  0.
        -24    2    3    3    0    0 -0.11642878068E+03 -0.49438230663E+02  0.57900041241E+03  0.59808461420E+03  0.80398560635E+02 0.  0.
          6    2    1    2  501    0  0.10296724915E+03  0.70827187305E+01 -0.12447862904E+03  0.23916699834E+03  0.17622004626E+03 0.  0.
         24    2    5    5    0    0  0.77755388791E+02 -0.63621824224E+02 -0.79717161635E+02  0.15164300585E+03  0.80914389076E+02 0.  0.
          5    1    5    5  501    0  0.25211860363E+02  0.70704542954E+02 -0.44761467403E+02  0.87523992490E+02  0.47000000000E+01 0. -1.
        -11    1    6    6    0    0  0.19776886030E+02 -0.26773458595E+01  0.15000076747E+02  0.24965890817E+02  0.00000000000E+00 0.  1.
         12    1    6    6    0    0  0.57978502761E+02 -0.60944478364E+02 -0.94717238382E+02  0.12667711503E+03  0.00000000000E+00 0. -1.
         -5    1    3    3    0  503  0.13461531522E+02  0.42355511933E+02  0.89037363240E+02  0.99624014548E+02  0.47000000000E+01 0.  1.
         11    1    4    4    0    0 -0.74214219567E+02 -0.50858856594E+02  0.23728627844E+03  0.25376987925E+03  0.00000000000E+00 0. -1.
        -12    1    4    4    0    0 -0.42214561109E+02  0.14206259307E+01  0.34171413397E+03  0.34431473495E+03  0.00000000000E+00 0.  1.
</event>
<event>
12    1  0.1035051E+000  0.3167553E+03  0.7818608E-02  0.1077195E+00
         21   -1    0    0  503  502  0.00000000000E+00  0.00000000000E+00  0.15234468869E+03  0.15234468869E+03  0.00000000000E+00 0.  1.
         21   -1    0    0  501  503 -0.00000000000E+00 -0.00000000000E+00 -0.79812206442E+03  0.79812206442E+03  0.00000000000E+00 0.  1.
          6    2    1    2  501    0 -0.26052484201E+03 -0.51596181467E+02 -0.12380007839E+03  0.34008874557E+03  0.17262252521E+03 0.  0.
         24    2    3    3    0    0 -0.21508017912E+03 -0.99522797277E+02 -0.10510122539E+03  0.27128529368E+03  0.79907273519E+02 0.  0.
         -6    2    1    2    0  502  0.26052484201E+03  0.51596181467E+02 -0.52197729734E+03  0.61037800755E+03  0.17194666009E+03 0.  0.
        -24    2    5    5    0    0  0.99487186792E+02  0.96356531636E+02 -0.25665177421E+03  0.29675986622E+03  0.54899940527E+02 0.  0.
          5    1    3    3  501    0 -0.45444662887E+02  0.47926615811E+02 -0.18698852996E+02  0.68803451886E+02  0.47000000000E+01 0. -1.
        -11    1    4    4    0    0  0.57409282433E+01  0.17891463357E+01  0.11373279137E+01  0.61198706267E+01  0.00000000000E+00 0.  1.
         12    1    4    4    0    0 -0.22082110736E+03 -0.10131194361E+03 -0.10623855331E+03  0.26516542306E+03  0.00000000000E+00 0. -1.
         -5    1    5    5    0  502  0.16103765521E+03 -0.44760350170E+02 -0.26532552313E+03  0.31361814132E+03  0.47000000000E+01 0.  1.
         11    1    6    6    0    0  0.19838278645E+02  0.11388980241E+02 -0.12066425805E+02  0.25862420656E+02  0.00000000000E+00 0. -1.
        -12    1    6    6    0    0  0.79648908147E+02  0.84967551396E+02 -0.24458534841E+03  0.27089744557E+03  0.00000000000E+00 0.  1.
</event>
<event>
12    1  0.1035051E+000  0.2188200E+03  0.7818608E-02  0.1135358E+00
         21   -1    0    0  503  502  0.00000000000E+00  0.00000000000E+00  0.41648519673E+03  0.41648519673E+03  0.00000000000E+00 0. -1.
         21   -1    0    0  501  503 -0.00000000000E+00 -0.00000000000E+00 -0.12878099329E+03  0.12878099329E+03  0.00000000000E+00 0. -1.
          6    2    1    2  501    0  0.12667315442E+03  0.51534053826E+02  0.50326696439E+02  0.22453277261E+03  0.17082254782E+03 0.  0.
         24    2    3    3    0    0  0.15675324732E+03  0.27833700582E+02  0.53316750255E+02  0.18583459236E+03  0.79658800063E+02 0.  0.
         -6    2    1    2    0  502 -0.12667315442E+03 -0.51534053826E+02  0.23737750700E+03  0.32073341741E+03  0.16679327762E+03 0.  0.
        -24    2    5    5    0    0 -0.58399245572E+02 -0.59657856515E+02  0.22240062112E+03  0.25020881241E+03  0.78567689335E+02 0.  0.
          5    1    3    3  501    0 -0.30080092896E+02  0.23700353244E+02 -0.29900538162E+01  0.38698180246E+02  0.47000000000E+01 0. -1.
        -11    1    4    4    0    0  0.93917916788E+02  0.49328276435E+02  0.10018094511E+02  0.10655616438E+03  0.00000000000E+00 0.  1.
         12    1    4    4    0    0  0.62835330531E+02 -0.21494575853E+02  0.43298655744E+02  0.79278427982E+02  0.00000000000E+00 0. -1.
         -5    1    5    5    0  502 -0.68273908851E+02  0.81238026889E+01  0.14976885886E+02  0.70524605003E+02  0.47000000000E+01 0.  1.
         11    1    6    6    0    0 -0.81910454530E+01  0.55889721203E+01  0.11226933940E+03  0.11270640800E+03  0.00000000000E+00 0. -1.
        -12    1    6    6    0    0 -0.50208200119E+02 -0.65246828635E+02  0.11013128172E+03  0.13750240441E+03  0.00000000000E+00 0.  1.
</event>
<event>
12    1  0.1035051E+000  0.2753647E+03  0.7818608E-02  0.1098389E+00
         21   -1    0    0  503  502  0.00000000000E+00  0.00000000000E+00  0.11942368635E+03  0.11942368635E+03  0.00000000000E+00 0.  1.
         21   -1    0    0  501  503 -0.00000000000E+00 -0.00000000000E+00 -0.63289967036E+03  0.63289967036E+03  0.00000000000E+00 0.  1.
          6    2    1    2  501    0  0.22050612137E+02  0.21163363716E+03 -0.26536517293E+03  0.38241910117E+03  0.17478749401E+03 0.  0.
         24    2    3    3    0    0  0.59432607273E+02  0.16785843630E+03 -0.25932719862E+03  0.32434820567E+03  0.79009323067E+02 0.  0.
         -6    2    1    2    0  502 -0.22050612137E+02 -0.21163363716E+03 -0.24811081108E+03  0.36990425554E+03  0.17319110201E+03 0.  0.
        -24    2    5    5    0    0  0.34340263724E+02 -0.99008219188E+02 -0.19367556651E+03  0.23261004042E+03  0.74935469977E+02 0.  0.
          5    1    3    3  501    0 -0.37381995136E+02  0.43775200855E+02 -0.60379743082E+01  0.58070895499E+02  0.47000000000E+01 0. -1.
        -11    1    4    4    0    0  0.20080714726E+02 -0.22365733746E+01 -0.28260079671E+02  0.34740026876E+02  0.00000000000E+00 0.  1.
         12    1    4    4    0    0  0.39351892547E+02  0.17009500968E+03 -0.23106711895E+03  0.28960817880E+03  0.00000000000E+00 0. -1.
         -5    1    5    5    0  502 -0.56390875861E+02 -0.11262541797E+03 -0.54435244570E+02  0.13729421512E+03  0.47000000000E+01 0.  1.
         11    1    6    6    0    0  0.69078879526E+01 -0.17282894305E+02 -0.11306335028E+03  0.11458507114E+03  0.00000000000E+00 0. -1.
        -12    1    6    6    0    0  0.27432375772E+02 -0.81725324883E+02 -0.80612216233E+02  0.11802496928E+03  0.00000000000E+00 0.  1.
</event>
<event>
12    1  0.1035051E+000  0.2768990E+03  0.7818608E-02  0.1097406E+00
         21   -1    0    0  501  502  0.00000000000E+00  0.00000000000E+00  0.13756925666E+04  0.13756925666E+04  0.00000000000E+00 0.  1.
         21   -1    0    0  502  503 -0.00000000000E+00 -0.00000000000E+00 -0.58746968667E+02  0.58746968667E+02  0.00000000000E+00 0.  1.
         -6    2    1    2    0  503  0.10723049371E+03 -0.18872605361E+03  0.82123509323E+03  0.86663501795E+03  0.17179427786E+03 0.  0.
        -24    2    3    3    0    0  0.12252061402E+03 -0.11987328117E+03  0.71028314980E+03  0.73507926627E+03  0.80364609198E+02 0.  0.
          6    2    1    2  501    0 -0.10723049371E+03  0.18872605361E+03  0.49571050474E+03  0.56780451734E+03  0.17192196867E+03 0.  0.
         24    2    5    5    0    0  0.74417315244E+01  0.89261810198E+02  0.16539544364E+03  0.20424849065E+03  0.79616223388E+02 0.  0.
          5    1    5    5  501    0 -0.11467222524E+03  0.99464243415E+02  0.33031506109E+03  0.36355602669E+03  0.47000000000E+01 0. -1.
        -11    1    6    6    0    0  0.31771191282E+02  0.71060993639E+01  0.61445320722E+02  0.69537275488E+02  0.00000000000E+00 0.  1.
         12    1    6    6    0    0 -0.24329459758E+02  0.82155710834E+02  0.10395012292E+03  0.13471121516E+03  0.00000000000E+00 0. -1.
         -5    1    3    3    0  503 -0.15290120304E+02 -0.68852772441E+02  0.11095194343E+03  0.13155575169E+03  0.47000000000E+01 0.  1.
         11    1    4    4    0    0  0.11439525937E+03 -0.10055704580E+03  0.47401775738E+03  0.49788636167E+03  0.00000000000E+00 0. -1.
        -12    1    4    4    0    0  0.81253546489E+01 -0.19316235376E+02  0.23626539241E+03  0.23719290459E+03  0.00000000000E+00 0.  1.
</event>
<event>
12    1  0.1035051E+000  0.2182754E+03  0.7818608E-02  0.1135213E+00
         21   -1    0    0  501  502  0.00000000000E+00  0.00000000000E+00  0.54965959572E+03  0.54965959572E+03  0.00000000000E+00 0. -1.
         21   -1    0    0  502  503 -0.00000000000E+00 -0.00000000000E+00 -0.12634511142E+03  0.12634511142E+03  0.00000000000E+00 0. -1.
         -6    2    1    2    0  503 -0.10817374720E+03 -0.80539890063E+02  0.22147122752E+02  0.21939607357E+03  0.17162723729E+03 0.  0.
        -24    2    3    3    0    0 -0.61481834084E+02  0.18328982537E+02 -0.12454526257E+02  0.10461561865E+03  0.81690543621E+02 0.  0.
          6    2    1    2  501    0  0.10817374720E+03  0.80539890063E+02  0.40116736155E+03  0.45660863357E+03  0.17137082251E+03 0.  0.
         24    2    5    5    0    0  0.80814173837E+02 -0.13374672620E+02  0.16242057551E+03  0.19855707054E+03  0.79590541861E+02 0.  0.
          5    1    5    5  501    0  0.27359573360E+02  0.93914562683E+02  0.23874678604E+03  0.25805156303E+03  0.47000000000E+01 0. -1.
        -13    1    6    6    0    0  0.64980405842E+02 -0.17486715147E+01  0.16628306814E+03  0.17853730631E+03  0.00000000000E+00 0.  1.
         14    1    6    6    0    0  0.15833767995E+02 -0.11626001105E+02 -0.38624926294E+01  0.20019764233E+02  0.00000000000E+00 0. -1.
         -5    1    3    3    0  503 -0.46691913113E+02 -0.98868872600E+02  0.34601649009E+02  0.11478045493E+03  0.47000000000E+01 0.  1.
         13    1    4    4    0    0  0.26624735261E+01  0.30803861950E+02 -0.22852489900E+02  0.38447405257E+02  0.00000000000E+00 0. -1.
        -14    1    4    4    0    0 -0.64144307610E+02 -0.12474879414E+02  0.10397963643E+02  0.66168213389E+02  0.00000000000E+00 0.  1.
</event>
<event>
12    1  0.1035051E+000  0.1809608E+03  0.7818608E-02  0.1166880E+00
         21   -1    0    0  501  502  0.00000000000E+00  0.00000000000E+00  0.73873545819E+03  0.73873545819E+03  0.00000000000E+00 0.  1.
         21   -1    0    0  502  503 -0.00000000000E+00 -0.00000000000E+00 -0.97107516099E+02  0.97107516099E+02  0.00000000000E+00 0.  1.
         -6    2    1    2    0  503 -0.55119522493E+02 -0.27815176722E+01  0.12692851492E+02  0.18139193494E+03  0.17232535212E+03 0.  0.
        -24    2    3    3    0    0 -0.52932178851E+02  0.49266758840E+02 -0.32631318473E+02  0.11218082353E+03  0.79313965588E+02 0.  0.
          6    2    1    2  501    0  0.55119522493E+02  0.27815176722E+01  0.62893509060E+03  0.65445103935E+03  0.17233953730E+03 0.  0.
         24    2    5    5    0    0  0.73732454073E+02  0.30878660914E+02  0.59758724327E+03  0.60818368355E+03  0.79918165236E+02 0.  0.
          5    1    5    5  501    0 -0.18612931579E+02 -0.28097143241E+02  0.31347847325E+02  0.46267355794E+02  0.47000000000E+01 0. -1.
        -11    1    6    6    0    0  0.38879673338E+02  0.57102281837E+02  0.38875441503E+03  0.39484464640E+03  0.00000000000E+00 0.  1.
         12    1    6    6    0    0  0.34852780735E+02 -0.26223620923E+02  0.20883282825E+03  0.21333903715E+03  0.00000000000E+00 0. -1.
         -5    1    3    3    0  503 -0.21873436426E+01 -0.52048276513E+02  0.45324169965E+02  0.69211111414E+02  0.47000000000E+01 0.  1.
         11    1    4    4    0    0 -0.62677874232E+02  0.21376271149E+02  0.25100034896E+01  0.66270362939E+02  0.00000000000E+00 0. -1.
        -12    1    4    4    0    0  0.97456953813E+01  0.27890487691E+02 -0.35141321962E+02  0.45910460588E+02  0.00000000000E+00 0.  1.
</event>
<event>
12    1  0.1035051E+000  0.1936631E+03  0.7818608E-02  0.1155338E+00
         21   -1    0    0  501  502  0.00000000000E+00  0.00000000000E+00  0.26313963385E+02  0.26313963385E+02  0.00000000000E+00 0.  1.
         21   -1    0    0  502  503 -0.00000000000E+00 -0.00000000000E+00 -0.14983303179E+04  0.14983303179E+04  0.00000000000E+00 0.  1.
         -6    2    1    2    0  503  0.44905717804E+02 -0.74160241318E+02 -0.56355851805E+03  0.59590568665E+03  0.17317366784E+03 0.  0.
        -24    2    3    3    0    0  0.89243836177E+02 -0.69371629422E+02 -0.49515151941E+03  0.51411077845E+03  0.79736943018E+02 0.  0.
          6    2    1    2  501    0 -0.44905717804E+02  0.74160241318E+02 -0.90845783644E+03  0.92873859460E+03  0.17246295730E+03 0.  0.
         24    2    5    5    0    0  0.14355436281E+02 -0.13637081048E+02 -0.30455937898E+03  0.31560264629E+03  0.80352762798E+02 0.  0.
          5    1    5    5  501    0 -0.59261154085E+02  0.87797322366E+02 -0.60389845746E+03  0.61313594832E+03  0.47000000000E+01 0. -1.
        -13    1    6    6    0    0 -0.30080892301E+02 -0.79175882920E+01 -0.19114762860E+03  0.19366198441E+03  0.00000000000E+00 0.  1.
         14    1    6    6    0    0  0.44436328581E+02 -0.57194927560E+01 -0.11341175038E+03  0.12194066188E+03  0.00000000000E+00 0. -1.
         -5    1    3    3    0  503 -0.44338118373E+02 -0.47886118953E+01 -0.68406998643E+02  0.81794908204E+02  0.47000000000E+01 0.  1.
         11    1    4    4    0    0  0.50756943983E+01 -0.27345662283E+02 -0.24976146313E+03  0.25130526533E+03  0.00000000000E+00 0. -1.
        -12    1    4    4    0    0  0.84168141778E+02 -0.42025967139E+02 -0.24539005628E+03  0.26280551312E+03  0.00000000000E+00 0.  1.
</event>
<event>
12    1  0.1035051E+000  0.4809593E+03  0.7818608E-02  0.1019121E+00
         21   -1    0    0  503  502  0.00000000000E+00  0.00000000000E+00  0.16608683799E+03  0.16608683799E+03  0.00000000000E+00 0. -1.
         21   -1    0    0  501  503 -0.00000000000E+00 -0.00000000000E+00 -0.14499697755E+04  0.14499697755E+04  0.00000000000E+00 0. -1.
          6    2    1    2  501    0  0.16104308993E+03 -0.41929251167E+03 -0.81417290968E+03  0.94378485035E+03  0.16158969562E+03 0.  0.
         24    2    3    3    0    0  0.18183792947E+03 -0.32961617726E+03 -0.66789237531E+03  0.77088500928E+03  0.80446352539E+02 0.  0.
         -6    2    1    2    0  502 -0.16104308993E+03  0.41929251167E+03 -0.46971002786E+03  0.67227176317E+03  0.17199048265E+03 0.  0.
        -24    2    5    5    0    0 -0.38720695502E+02  0.28592674683E+03 -0.28148702656E+03  0.41112202905E+03  0.80826850964E+02 0.  0.
          5    1    3    3  501    0 -0.20794839532E+02 -0.89676334411E+02 -0.14628053437E+03  0.17289984107E+03  0.47000000000E+01 0. -1.
        -13    1    4    4    0    0  0.29164488634E+02 -0.12757259411E+03 -0.20386137896E+03  0.24224944994E+03  0.00000000000E+00 0.  1.
         14    1    4    4    0    0  0.15267344083E+03 -0.20204358315E+03 -0.46403099635E+03  0.52863555935E+03  0.00000000000E+00 0. -1.
         -5    1    5    5    0  502 -0.12232239443E+03  0.13336576485E+03 -0.18822300129E+03  0.26114973412E+03  0.47000000000E+01 0.  1.
         11    1    6    6    0    0 -0.42235267269E+02  0.29067995833E+03 -0.27595117612E+03  0.40302320973E+03  0.00000000000E+00 0. -1.
        -12    1    6    6    0    0  0.35145717672E+01 -0.47532115046E+01 -0.55358504422E+01  0.80988193234E+01  0.00000000000E+00 0.  1.
</event>
<event>
12    1  0.1035051E+000  0.2077378E+03  0.7818608E-02  0.1143787E+00
         21   -1    0    0  501  502  0.00000000000E+00  0.00000000000E+00  0.41816333487E+02  0.41816333487E+02  0.00000000000E+00 0. -1.
         21   -1    0    0  502  503 -0.00000000000E+00 -0.00000000000E+00 -0.10419270488E+04  0.10419270488E+04  0.00000000000E+00 0.  1.
         -6    2    1    2    0  503 -0.11369887795E+03  0.19181794860E+02 -0.57788712884E+03  0.61409164349E+03  0.17279941209E+03 0.  0.
        -24    2    3    3    0    0 -0.75831767811E+02 -0.54310189604E+02 -0.35875970691E+03  0.37983984125E+03  0.82883798122E+02 0.  0.
          6    2    1    2  501    0  0.11369887795E+03 -0.19181794860E+02 -0.42222358649E+03  0.46965173882E+03  0.17030743579E+03 0.  0.
         24    2    5    5    0    0  0.95634699039E+02 -0.52085503330E+02 -0.40707992885E+03  0.42890386823E+03  0.79909726515E+02 0.  0.
          5    1    5    5  501    0  0.18064178914E+02  0.32903708470E+02 -0.15143657641E+02  0.40747870591E+02  0.47000000000E+01 0. -1.
        -13    1    6    6    0    0  0.44567909802E+02 -0.28423513566E+02 -0.73071580253E+02  0.90186753729E+02  0.00000000000E+00 0.  1.
         14    1    6    6    0    0  0.51066789237E+02 -0.23661989764E+02 -0.33400834859E+03  0.33871711450E+03  0.00000000000E+00 0. -1.
         -5    1    3    3    0  503 -0.37867110143E+02  0.73491984464E+02 -0.21912742193E+03  0.23425180224E+03  0.47000000000E+01 0.  1.
         13    1    4    4    0    0 -0.47507460998E+02  0.53431825306E+01 -0.78553520848E+02  0.91957403659E+02  0.00000000000E+00 0. -1.
        -14    1    4    4    0    0 -0.28324306813E+02 -0.59653372135E+02 -0.28020618606E+03  0.28788243759E+03  0.00000000000E+00 0.  1.
</event>
<event>
12    1  0.1035051E+000  0.1941970E+03  0.7818608E-02  0.1155133E+00
         21   -1    0    0  501  502  0.00000000000E+00  0.00000000000E+00  0.65564163184E+03  0.65564163184E+03  0.00000000000E+00 0.  1.
         21   -1    0    0  502  503 -0.00000000000E+00 -0.00000000000E+00 -0.82710863041E+02  0.82710863041E+02  0.00000000000E+00 0.  1.
         -6    2    1    2    0  503 -0.50012628962E+02 -0.65358852295E+02  0.81484336592E+02  0.21059958564E+03  0.17589612199E+03 0.  0.
        -24    2    3    3    0    0 -0.23054333315E+01  0.11817926591E+02  0.88516303584E+02  0.11947456013E+03  0.79335087483E+02 0.  0.
          6    2    1    2  501    0  0.50012628962E+02  0.65358852295E+02  0.49144643221E+03  0.52775290925E+03  0.17386918893E+03 0.  0.
         24    2    5    5    0    0  0.16346426325E+02  0.10474534970E+02  0.91929316138E+02  0.12305336944E+03  0.79462009965E+02 0.  0.
          5    1    5    5  501    0  0.33666202637E+02  0.54884317325E+02  0.39951711607E+03  0.40469953981E+03  0.47000000000E+01 0. -1.
        -13    1    6    6    0    0 -0.29333106129E+02 -0.69560626422E+01  0.20359256136E+02  0.36377427521E+02  0.00000000000E+00 0.  1.
         14    1    6    6    0    0  0.45679532454E+02  0.17430597612E+02  0.71570060002E+02  0.86675941916E+02  0.00000000000E+00 0. -1.
         -5    1    3    3    0  503 -0.47707195630E+02 -0.77176778886E+02 -0.70319669921E+01  0.91125025509E+02  0.47000000000E+01 0.  1.
         13    1    4    4    0    0 -0.25225336557E+02  0.33661458050E+02  0.26145960727E+02  0.49527998393E+02  0.00000000000E+00 0. -1.
        -14    1    4    4    0    0  0.22919903226E+02 -0.21843531459E+02  0.62370342857E+02  0.69946561735E+02  0.00000000000E+00 0.  1.
</event>
<event>
12    1  0.1035051E+000  0.2136516E+03  0.7818608E-02  0.1140939E+00
         21   -1    0    0  501  502  0.00000000000E+00  0.00000000000E+00  0.61398383046E+03  0.61398383046E+03  0.00000000000E+00 0. -1.
         21   -1    0    0  502  503 -0.00000000000E+00 -0.00000000000E+00 -0.70911219156E+02  0.70911219156E+02  0.00000000000E+00 0. -1.
         -6    2    1    2    0  503 -0.78541192161E+02 -0.96593083104E+02  0.23813658359E+03  0.31256056798E+03  0.15964377108E+03 0.  0.
        -24    2    3    3    0    0 -0.56841937188E+02 -0.63820758312E+02  0.24558832714E+03  0.27228028223E+03  0.80739275750E+02 0.  0.
          6    2    1    2  501    0  0.78541192161E+02  0.96593083104E+02  0.30493602771E+03  0.37233448163E+03  0.17363191713E+03 0.  0.
         24    2    5    5    0    0 -0.21552613439E+02  0.36433583886E+02  0.10971103249E+03  0.14479805812E+03  0.84486956415E+02 0.  0.
          5    1    5    5  501    0  0.10009380560E+03  0.60159499218E+02  0.19522499522E+03  0.22753642351E+03  0.47000000000E+01 0. -1.
        -13    1    6    6    0    0 -0.49726285501E+01 -0.27686170364E+02  0.36385240289E+02  0.45990616163E+02  0.00000000000E+00 0.  1.
         14    1    6    6    0    0 -0.16579984889E+02  0.64119754251E+02  0.73325792199E+02  0.98807441955E+02  0.00000000000E+00 0. -1.
         -5    1    3    3    0  503 -0.21699254973E+02 -0.32772324792E+02 -0.74517435473E+01  0.40280285755E+02  0.47000000000E+01 0.  1.
         11    1    4    4    0    0 -0.44197675955E+01  0.26976378393E+01  0.12397172561E+03  0.12407981442E+03  0.00000000000E+00 0. -1.
        -12    1    4    4    0    0 -0.52422169592E+02 -0.66518396152E+02  0.12161660152E+03  0.14820046781E+03  0.00000000000E+00 0.  1.
</event>
<event>
12    1  0.1035051E+000  0.1839309E+03  0.7818608E-02  0.1164368E+00
         21   -1    0    0  503  502  0.00000000000E+00  0.00000000000E+00  0.22338151222E+03  0.22338151222E+03  0.00000000000E+00 0. -1.
         21   -1    0    0  501  503 -0.00000000000E+00 -0.00000000000E+00 -0.15038980279E+03  0.15038980279E+03  0.00000000000E+00 0.  1.
          6    2    1    2  501    0 -0.49669932073E+02 -0.42097356671E+02  0.39436139858E+02  0.18680456826E+03  0.17059146522E+03 0.  0.
         24    2    3    3    0    0 -0.87408428203E+02 -0.48847438830E+02  0.62350408409E+02  0.14189453149E+03  0.78868111661E+02 0.  0.
         -6    2    1    2    0  502  0.49669932073E+02  0.42097356671E+02  0.33555569576E+02  0.18696674675E+03  0.17202121540E+03 0.  0.
        -24    2    5    5    0    0  0.14497147640E+02  0.72044784393E+02  0.69052798802E+02  0.12851919355E+03  0.79676068177E+02 0.  0.
          5    1    3    3  501    0  0.37738496130E+02  0.67500821595E+01 -0.22914268551E+02  0.44910036768E+02  0.47000000000E+01 0. -1.
        -13    1    4    4    0    0 -0.76981433399E+02 -0.10869423366E+02  0.13111615501E+02  0.78842881184E+02  0.00000000000E+00 0.  1.
         14    1    4    4    0    0 -0.10426994804E+02 -0.37978015464E+02  0.49238792908E+02  0.63051650306E+02  0.00000000000E+00 0. -1.
         -5    1    5    5    0  502  0.35172784433E+02 -0.29947427722E+02 -0.35497229226E+02  0.58447553196E+02  0.47000000000E+01 0.  1.
         11    1    6    6    0    0 -0.89661524649E+01  0.51960774795E+02 -0.15898682137E+00  0.52728922653E+02  0.00000000000E+00 0. -1.
        -12    1    6    6    0    0  0.23463300105E+02  0.20084009598E+02  0.69211785623E+02  0.75790270896E+02  0.00000000000E+00 0.  1.
</event>
<event>
12    1  0.1035051E+000  0.1900101E+03  0.7818608E-02  0.1159484E+00
         21   -1    0    0  501  502  0.00000000000E+00  0.00000000000E+00  0.96933007500E+02  0.96933007500E+02  0.00000000000E+00 0.  1.
         21   -1    0    0  502  503 -0.00000000000E+00 -0.00000000000E+00 -0.38553618943E+03  0.38553618943E+03  0.00000000000E+00 0.  1.
         -6    2    1    2    0  503 -0.75811817115E+02 -0.14530887954E+01 -0.85200512220E+02  0.20412324734E+03  0.16928564541E+03 0.  0.
        -24    2    3    3    0    0 -0.10892006465E+03  0.31216311846E+02 -0.68976134995E+02  0.15463823740E+03  0.79481058490E+02 0.  0.
          6    2    1    2  501    0  0.75811817115E+02  0.14530887954E+01 -0.20340266971E+03  0.27834594959E+03  0.17422479309E+03 0.  0.
         24    2    5    5    0    0  0.48887669648E+02  0.15538490093E+00 -0.22480283303E+03  0.24360907088E+03  0.80118894705E+02 0.  0.
          5    1    5    5  501    0  0.26924147467E+02  0.12977038945E+01  0.21400163320E+02  0.34736878708E+02  0.47000000000E+01 0. -1.
        -11    1    6    6    0    0 -0.14056599927E+01 -0.31025737473E+02 -0.11200947164E+03  0.11623551094E+03  0.00000000000E+00 0.  1.
         12    1    6    6    0    0  0.50293329641E+02  0.31181122374E+02 -0.11279336139E+03  0.12737355994E+03  0.00000000000E+00 0. -1.
         -5    1    3    3    0  503  0.33108247531E+02 -0.32669400641E+02 -0.16224377225E+02  0.49485009944E+02  0.47000000000E+01 0.  1.
         13    1    4    4    0    0 -0.10203843336E+03  0.16593470069E+02 -0.83516149625E+02  0.13289895553E+03  0.00000000000E+00 0. -1.
        -14    1    4    4    0    0 -0.68816312812E+01  0.14622841777E+02  0.14540014630E+02  0.21739281868E+02  0.00000000000E+00 0.  1.
</event>
<event>
12    1  0.1035051E+000  0.2573308E+03  0.7818608E-02  0.1109100E+00
         21   -1    0    0  501  502  0.00000000000E+00  0.00000000000E+00  0.46984396502E+02  0.46984396502E+02  0.00000000000E+00 0. -1.
         21   -1    0    0  502  503 -0.00000000000E+00 -0.00000000000E+00 -0.15884486507E+04  0.15884486507E+04  0.00000000000E+00 0. -1.
         -6    2    1    2    0  503 -0.18728967507E+03 -0.26457914855E+02 -0.48400769931E+03  0.54711623049E+03  0.17115861949E+03 0.  0.
        -24    2    3    3    0    0 -0.32664510966E+02 -0.35775150398E+02 -0.11717611553E+03  0.14889110182E+03  0.78047975536E+02 0.  0.
          6    2    1    2  501    0  0.18728967507E+03  0.26457914855E+02 -0.10574565549E+04  0.10883168168E+04  0.17447545506E+03 0.  0.
         24    2    5    5    0    0  0.41036421744E+02 -0.21202763503E+02 -0.55037671211E+03  0.55839832173E+03  0.82222961468E+02 0.  0.
          5    1    5    5  501    0  0.14625325333E+03  0.47660678358E+02 -0.50707984283E+03  0.52991849503E+03  0.47000000000E+01 0. -1.
        -11    1    6    6    0    0  0.23938172365E+02  0.21372064538E+01 -0.49785464660E+03  0.49843440179E+03  0.00000000000E+00 0.  1.
         12    1    6    6    0    0  0.17098249380E+02 -0.23339969957E+02 -0.52522065505E+02  0.59963919938E+02  0.00000000000E+00 0. -1.
         -5    1    3    3    0  503 -0.15462516410E+03  0.93172355434E+01 -0.36683158377E+03  0.39822512867E+03  0.47000000000E+01 0.  1.
         13    1    4    4    0    0  0.15640989692E+02 -0.10783611817E+02  0.76538135161E+00  0.19013486029E+02  0.00000000000E+00 0. -1.
        -14    1    4    4    0    0 -0.48305500658E+02 -0.24991538582E+02 -0.11794149689E+03  0.12987761579E+03  0.00000000000E+00 0.  1.
</event>
<event>
12    1  0.1035051E+000  0.2758079E+03  0.7818608E-02  0.1098088E+00
         21   -1    0    0  503  502  0.00000000000E+00  0.00000000000E+00  0.13428250599E+03  0.13428250599E+03  0.00000000000E+00 0. -1.
         21   -1    0    0  501  503 -0.00000000000E+00 -0.00000000000E+00 -0.64274114850E+03  0.64274114850E+03  0.00000000000E+00 0.  1.
          6    2    1    2  501    0 -0.21173971439E+03  0.41211432186E+02 -0.38942543060E+03  0.47720241212E+03  0.17186589930E+03 0.  0.
         24    2    3    3    0    0 -0.19526215741E+03  0.37962073207E+02 -0.40206102241E+03  0.45566601506E+03  0.80062615606E+02 0.  0.
         -6    2    1    2    0  502  0.21173971439E+03 -0.41211432186E+02 -0.11903321190E+03  0.29982124238E+03  0.17085603019E+03 0.  0.
        -24    2    5    5    0    0  0.20167987204E+03  0.82746228785E+01 -0.12071831708E+03  0.24907678796E+03  0.81994475761E+02 0.  0.
          5    1    3    3  501    0 -0.16477556980E+02  0.32493589798E+01  0.12635591813E+02  0.21536397059E+02  0.47000000000E+01 0. -1.
        -13    1    4    4    0    0 -0.17050375476E+03  0.42228651043E+01 -0.34552072153E+03  0.38532315267E+03  0.00000000000E+00 0.  1.
         14    1    4    4    0    0 -0.24758402651E+02  0.33739208102E+02 -0.56540300879E+02  0.70342862387E+02  0.00000000000E+00 0. -1.
         -5    1    5    5    0  502  0.10059842352E+02 -0.49486055065E+02  0.16851051797E+01  0.50744454411E+02  0.47000000000E+01 0.  1.
         13    1    6    6    0    0  0.74429456977E+02  0.42117642245E+02 -0.38045849258E+02  0.93600889419E+02  0.00000000000E+00 0. -1.
        -14    1    6    6    0    0  0.12725041506E+03 -0.33843019366E+02 -0.82672467826E+02  0.15547589855E+03  0.00000000000E+00 0.  1.
</event>
<event>
12    1  0.1035051E+000  0.2446306E+03  0.7818608E-02  0.1116905E+00
         21   -1    0    0  503  502  0.00000000000E+00  0.00000000000E+00  0.36206600509E+03  0.36206600509E+03  0.00000000000E+00 0.  1.
         21   -1    0    0  501  503 -0.00000000000E+00 -0.00000000000E+00 -0.49177775227E+03  0.49177775227E+03  0.00000000000E+00 0.  1.
          6    2    1    2  501    0  0.15649366152E+03 -0.71088665639E+02 -0.41301952409E+03  0.47953451276E+03  0.17269729926E+03 0.  0.
         24    2    3    3    0    0  0.10296760810E+03  0.19198189216E+02 -0.18243303061E+03  0.22613961239E+03  0.82984425353E+02 0.  0.
         -6    2    1    2    0  502 -0.15649366152E+03  0.71088665639E+02  0.28330777691E+03  0.37430924459E+03  0.17406966897E+03 0.  0.
        -24    2    5    5    0    0 -0.11154048057E+03  0.11162871423E+03  0.16376193979E+03  0.24022874195E+03  0.77392679807E+02 0.  0.
          5    1    3    3  501    0  0.53526053420E+02 -0.90286854855E+02 -0.23058649348E+03  0.25339490037E+03  0.47000000000E+01 0. -1.
        -13    1    4    4    0    0  0.47315982991E+02  0.28497383018E+02 -0.15265519336E+03  0.16234072547E+03  0.00000000000E+00 0.  1.
         14    1    4    4    0    0  0.55651625104E+02 -0.92991938024E+01 -0.29777837248E+02  0.63798886928E+02  0.00000000000E+00 0. -1.
         -5    1    5    5    0  502 -0.44953180950E+02 -0.40540048595E+02  0.11954583712E+03  0.13408050264E+03  0.47000000000E+01 0.  1.
         11    1    6    6    0    0 -0.87881466579E+02  0.47389357883E+02  0.61818925867E+02  0.11743288723E+03  0.00000000000E+00 0. -1.
        -12    1    6    6    0    0 -0.23659013987E+02  0.64239356350E+02  0.10194301393E+03  0.12279585472E+03  0.00000000000E+00 0.  1.
</event>
<event>
12    1  0.1035051E+000  0.2029989E+03  0.7818608E-02  0.1147388E+00
         21   -1    0    0  503  502  0.00000000000E+00  0.00000000000E+00  0.92370430804E+03  0.92370430804E+03  0.00000000000E+00 0.  1.
         21   -1    0    0  501  503 -0.00000000000E+00 -0.00000000000E+00 -0.69064413506E+02  0.69064413506E+02  0.00000000000E+00 0.  1.
          6    2    1    2  501    0  0.85626713704E+02 -0.69277248836E+02  0.13046332913E+03  0.24067814036E+03  0.16962905321E+03 0.  0.
         24    2    3    3    0    0  0.83981257446E+02 -0.81326553021E+02  0.37158532142E+02  0.14646684380E+03  0.80030744058E+02 0.  0.
         -6    2    1    2    0  502 -0.85626713704E+02  0.69277248836E+02  0.72417656540E+03  0.75209058118E+03  0.17052059443E+03 0.  0.
        -24    2    5    5    0    0 -0.62302099176E+02 -0.14697325605E+02  0.26650188056E+03  0.28616786877E+03  0.82287507161E+02 0.  0.
          5    1    3    3  501    0  0.16454562576E+01  0.12049304185E+02  0.93304796992E+02  0.94211296559E+02  0.47000000000E+01 0. -1.
        -13    1    4    4    0    0  0.17596464062E+02  0.14185321001E+02  0.17310215558E+02  0.28469324580E+02  0.00000000000E+00 0.  1.
         14    1    4    4    0    0  0.66384793384E+02 -0.95511874022E+02  0.19848316584E+02  0.11799751922E+03  0.00000000000E+00 0. -1.
         -5    1    5    5    0  502 -0.23324614528E+02  0.83974574441E+02  0.45767468484E+03  0.46592271241E+03  0.47000000000E+01 0.  1.
         11    1    6    6    0    0 -0.55025649089E+02  0.21310025002E+02  0.21470957330E+03  0.22267047422E+03  0.00000000000E+00 0. -1.
        -12    1    6    6    0    0 -0.72764500867E+01 -0.36007350607E+02  0.51792307260E+02  0.63497394552E+02  0.00000000000E+00 0.  1.
</event>
<event>
12    1  0.1035051E+000  0.2428063E+03  0.7818608E-02  0.1118835E+00
         21   -1    0    0  501  502  0.00000000000E+00  0.00000000000E+00  0.72371997334E+02  0.72371997334E+02  0.00000000000E+00 0.  1.
         21   -1    0    0  502  503 -0.00000000000E+00 -0.00000000000E+00 -0.80603182308E+03  0.80603182308E+03  0.00000000000E+00 0.  1.
         -6    2    1    2    0  503 -0.52393724735E+02 -0.15906927350E+03 -0.41034164345E+03  0.47406540618E+03  0.16825459524E+03 0.  0.
        -24    2    3    3    0    0 -0.95088114663E+02 -0.14486405515E+03 -0.34999616074E+03  0.39864480923E+03  0.79956409182E+02 0.  0.
          6    2    1    2  501    0  0.52393724735E+02  0.15906927350E+03 -0.32331818229E+03  0.40433841423E+03  0.17580321403E+03 0.  0.
         24    2    5    5    0    0  0.60986935431E+02  0.98272169257E+02 -0.30782949837E+03  0.34083943405E+03  0.89642033645E+02 0.  0.
          5    1    5    5  501    0 -0.85932106960E+01  0.60797104246E+02 -0.15488683926E+02  0.63498980185E+02  0.47000000000E+01 0. -1.
        -11    1    6    6    0    0 -0.61828850650E+01  0.65595887334E+02 -0.97805585594E+02  0.11792786387E+03  0.00000000000E+00 0.  1.
         12    1    6    6    0    0  0.67169820496E+02  0.32676281923E+02 -0.21002391277E+03  0.22291157018E+03  0.00000000000E+00 0. -1.
         -5    1    3    3    0  503  0.42694389928E+02 -0.14205218352E+02 -0.60345482709E+02  0.75420596942E+02  0.47000000000E+01 0.  1.
         11    1    4    4    0    0 -0.17972258977E+02 -0.34601843961E+02 -0.16708478840E+03  0.17157393803E+03  0.00000000000E+00 0. -1.
        -12    1    4    4    0    0 -0.77115855686E+02 -0.11026221119E+03 -0.18291137235E+03  0.22707087120E+03  0.00000000000E+00 0.  1.
</event>
<event>
12    1  0.1035051E+000  0.2856018E+03  0.7818608E-02  0.1092940E+00
         21   -1    0    0  503  502  0.00000000000E+00  0.00000000000E+00  0.43028181979E+03  0.43028181979E+03  0.00000000000E+00 0. -1.
         21   -1    0    0  501  503 -0.00000000000E+00 -0.00000000000E+00 -0.31891401464E+03  0.31891401464E+03  0.00000000000E+00 0.  1.
          6    2    1    2  501    0  0.13872675727E+03 -0.17697672425E+03  0.29560123313E+03  0.41103342691E+03  0.17607531031E+03 0.  0.
         24    2    3    3    0    0  0.11136445940E+03 -0.17795300053E+03  0.16664527482E+03  0.27911914549E+03  0.77894393526E+02 0.  0.
         -6    2    1    2    0  502 -0.13872675727E+03  0.17697672425E+03 -0.18423342798E+03  0.33816240752E+03  0.17275990206E+03 0.  0.
        -24    2    5    5    0    0 -0.55946145576E+02  0.10612600093E+03 -0.19836149859E+02  0.14087832372E+03  0.71137402066E+02 0.  0.
          5    1    3    3  501    0  0.27362297873E+02  0.97627627327E+00  0.12895595831E+03  0.13191428143E+03  0.47000000000E+01 0. -1.
        -11    1    4    4    0    0  0.32848691922E+02 -0.31263590521E+02  0.25312869655E+01  0.45418675310E+02  0.00000000000E+00 0.  1.
         12    1    4    4    0    0  0.78515767477E+02 -0.14668941001E+03  0.16411398786E+03  0.23370047018E+03  0.00000000000E+00 0. -1.
         -5    1    5    5    0  502 -0.82780611695E+02  0.70850723321E+02 -0.16439727812E+03  0.19728408380E+03  0.47000000000E+01 0.  1.
         11    1    6    6    0    0  0.69152906085E+01 -0.49690076211E+01  0.62885174379E+01  0.10585732497E+02  0.00000000000E+00 0. -1.
        -12    1    6    6    0    0 -0.62861436185E+02  0.11109500855E+03 -0.26124667297E+02  0.13029259122E+03  0.00000000000E+00 0.  1.
</event>
<event>
12    1  0.1035051E+000  0.2666772E+03  0.7818608E-02  0.1103200E+00
         21   -1    0    0  501  502  0.00000000000E+00  0.00000000000E+00  0.51698122581E+02  0.51698122581E+02  0.00000000000E+00 0.  1.
         21   -1    0    0  502  503 -0.00000000000E+00 -0.00000000000E+00 -0.17769176242E+04  0.17769176242E+04  0.00000000000E+00 0. -1.
         -6    2    1    2    0  503  0.24120632041E+02 -0.20229968749E+03 -0.12971540674E+04  0.13242778170E+04  0.17203515187E+03 0.  0.
        -24    2    3    3    0    0  0.45219545166E+02 -0.36073418719E+02 -0.43892741967E+03  0.44983433369E+03  0.79671508241E+02 0.  0.
          6    2    1    2  501    0 -0.24120632041E+02  0.20229968749E+03 -0.42806543419E+03  0.50433792979E+03  0.17207487623E+03 0.  0.
         24    2    5    5    0    0 -0.52389190903E+02  0.17754103803E+03 -0.24552165415E+03  0.31790718185E+03  0.80738132947E+02 0.  0.
          5    1    5    5  501    0  0.28268558861E+02  0.24758649457E+02 -0.18254378004E+03  0.18643074793E+03  0.47000000000E+01 0. -1.
        -13    1    6    6    0    0 -0.12106265049E+02  0.90530036713E+02 -0.60617343518E+02  0.10962076234E+03  0.00000000000E+00 0.  1.
         14    1    6    6    0    0 -0.40282925853E+02  0.87011001317E+02 -0.18490431063E+03  0.20828641951E+03  0.00000000000E+00 0. -1.
         -5    1    3    3    0  503 -0.21098913124E+02 -0.16622626877E+03 -0.85822664775E+03  0.87444348329E+03  0.47000000000E+01 0.  1.
         13    1    4    4    0    0  0.54906527317E+02 -0.29865294287E+02 -0.17802718366E+03  0.18868052540E+03  0.00000000000E+00 0. -1.
        -14    1    4    4    0    0 -0.96869821515E+01 -0.62081244324E+01 -0.26090023601E+03  0.26115380829E+03  0.00000000000E+00 0.  1.
</event>
<event>
12    1  0.1035051E+000  0.1975761E+03  0.7818608E-02  0.1152363E+00
         21   -1    0    0  503  502  0.00000000000E+00  0.00000000000E+00  0.40328030934E+03  0.40328030934E+03  0.00000000000E+00 0. -1.
         21   -1    0    0  501  503 -0.00000000000E+00 -0.00000000000E+00 -0.10998268660E+03  0.10998268660E+03  0.00000000000E+00 0. -1.
          6    2    1    2  501    0  0.90344217613E+02 -0.23409711863E+02  0.24054469591E+03  0.31128451341E+03  0.17414420832E+03 0.  0.
         24    2    3    3    0    0  0.25722689510E+02 -0.72013044179E+02  0.97182776922E+02  0.14662439188E+03  0.78782516308E+02 0.  0.
         -6    2    1    2    0  502 -0.90344217613E+02  0.23409711863E+02  0.52752926829E+02  0.20197848252E+03  0.17117927400E+03 0.  0.
        -24    2    5    5    0    0 -0.12482598485E+03  0.43872407783E+02  0.45390936797E+02  0.16094187578E+03  0.79596705811E+02 0.  0.
          5    1    3    3  501    0  0.64621528103E+02  0.48603332315E+02  0.14336191899E+03  0.16466012153E+03  0.47000000000E+01 0. -1.
        -13    1    4    4    0    0  0.34285106993E+02 -0.58821434861E+02  0.24654248379E+02  0.72410370277E+02  0.00000000000E+00 0.  1.
         14    1    4    4    0    0 -0.85624174822E+01 -0.13191609318E+02  0.72528528543E+02  0.74214021601E+02  0.00000000000E+00 0. -1.
         -5    1    5    5    0  502  0.34481767239E+02 -0.20462695919E+02  0.73619900315E+01  0.41036606749E+02  0.47000000000E+01 0.  1.
         11    1    6    6    0    0 -0.78874006723E+02  0.11639557239E+01  0.56766047299E+02  0.97184607091E+02  0.00000000000E+00 0. -1.
        -12    1    6    6    0    0 -0.45951978129E+02  0.42708452059E+02 -0.11375110502E+02  0.63757268685E+02  0.00000000000E+00 0.  1.
</event>
<event>
12    1  0.1035051E+000  0.1742245E+03  0.7818608E-02  0.1174489E+00
         21   -1    0    0  501  502  0.00000000000E+00  0.00000000000E+00  0.40957142643E+02  0.40957142643E+02  0.00000000000E+00 0. -1.
         21   -1    0    0  502  503 -0.00000000000E+00 -0.00000000000E+00 -0.72871390322E+03  0.72871390322E+03  0.00000000000E+00 0. -1.
         -6    2    1    2    0  503  0.23373960148E+02  0.76728819925E+01 -0.32000899467E+03  0.36436234859E+03  0.17247883716E+03 0.  0.
        -24    2    3    3    0    0  0.77772697458E+02  0.26592567775E+02 -0.19062584256E+03  0.22266101768E+03  0.80523039019E+02 0.  0.
          6    2    1    2  501    0 -0.23373960148E+02 -0.76728819925E+01 -0.36774776591E+03  0.40530869727E+03  0.16861644529E+03 0.  0.
         24    2    5    5    0    0 -0.46192569090E+02 -0.12694648534E+02 -0.37016281294E+03  0.38135395859E+03  0.78201189952E+02 0.  0.
          5    1    5    5  501    0  0.22818608941E+02  0.50217665411E+01  0.24150470296E+01  0.23954738683E+02  0.47000000000E+01 0. -1.
        -11    1    6    6    0    0 -0.56615997172E+02 -0.31414891118E+02 -0.20973973511E+03  0.21950631654E+03  0.00000000000E+00 0.  1.
         12    1    6    6    0    0  0.10423428083E+02  0.18720242584E+02 -0.16042307783E+03  0.16184764205E+03  0.00000000000E+00 0. -1.
         -5    1    3    3    0  503 -0.54398737310E+02 -0.18919685782E+02 -0.12938315211E+03  0.14170133091E+03  0.47000000000E+01 0.  1.
         13    1    4    4    0    0  0.52824696305E+02 -0.10003352930E+02 -0.16005713846E+03  0.16884550092E+03  0.00000000000E+00 0. -1.
        -14    1    4    4    0    0  0.24948001154E+02  0.36595920705E+02 -0.30568704098E+02  0.53815516759E+02  0.00000000000E+00 0.  1.
</event>
<event>
12    1  0.1035051E+000  0.2195409E+03  0.7818608E-02  0.1134380E+00
         21   -1    0    0  503  502  0.00000000000E+00  0.00000000000E+00  0.40191831978E+02  0.40191831978E+02  0.00000000000E+00 0.  1.
         21   -1    0    0  501  503 -0.00000000000E+00 -0.00000000000E+00 -0.13946126379E+04  0.13946126379E+04  0.00000000000E+00 0.  1.
          6    2    1    2  501    0  0.49035320799E+02 -0.12581620858E+03 -0.94990986534E+03  0.97494973208E+03  0.17310126162E+03 0.  0.
         24    2    3    3    0    0  0.14745634029E+02 -0.67524685376E+02 -0.83363702640E+03  0.84035720862E+03  0.80452031825E+02 0.  0.
         -6    2    1    2    0  502 -0.49035320799E+02  0.12581620858E+03 -0.40451094061E+03  0.45985473783E+03  0.17205550791E+03 0.  0.
        -24    2    5    5    0    0  0.19941751587E+02  0.61694472551E+02 -0.12274451849E+03  0.16272877097E+03  0.84914985033E+02 0.  0.
          5    1    3    3  501    0  0.34289686770E+02 -0.58291523209E+02 -0.11627283894E+03  0.13459252346E+03  0.47000000000E+01 0. -1.
        -11    1    4    4    0    0 -0.23906791132E+01 -0.33330061899E+02 -0.94549988505E+02  0.10028114827E+03  0.00000000000E+00 0.  1.
         12    1    4    4    0    0  0.17136313142E+02 -0.34194623478E+02 -0.73908703790E+03  0.74007606034E+03  0.00000000000E+00 0. -1.
         -5    1    5    5    0  502 -0.68977072385E+02  0.64121736033E+02 -0.28176642212E+03  0.29712596686E+03  0.47000000000E+01 0.  1.
         13    1    6    6    0    0 -0.31288754340E+02  0.85783850283E+01 -0.45682000420E+02  0.56030527395E+02  0.00000000000E+00 0. -1.
        -14    1    6    6    0    0  0.51230505926E+02  0.53116087523E+02 -0.77062518073E+02  0.10669824358E+03  0.00000000000E+00 0.  1.
</event>
<event>
12    1  0.1035051E+000  0.1894057E+03  0.7818608E-02  0.1159287E+00
         21   -1    0    0  503  502  0.00000000000E+00  0.00000000000E+00  0.10508341738E+04  0.10508341738E+04  0.00000000000E+00 0. -1.
         21   -1    0    0  501  503 -0.00000000000E+00 -0.00000000000E+00 -0.95448402461E+02  0.95448402461E+02  0.00000000000E+00 0. -1.
          6    2    1    2  501    0 -0.16161597333E+02 -0.74422953762E+02  0.93846643110E+03  0.95738904260E+03  0.17342019292E+03 0.  0.
         24    2    3    3    0    0 -0.30922317479E+02 -0.69430125346E+02  0.93355783943E+03  0.94038929357E+03  0.83815582568E+02 0.  0.
         -6    2    1    2    0  502  0.16161597333E+02  0.74422953762E+02  0.16919340285E+02  0.18889353371E+03  0.17203060695E+03 0.  0.
        -24    2    5    5    0    0 -0.15652753913E+02  0.10424506118E+03 -0.21011766924E+02  0.13090758774E+03  0.74721219827E+02 0.  0.
          5    1    3    3  501    0  0.14760720146E+02 -0.49928284160E+01  0.49085916724E+01  0.16999749028E+02  0.47000000000E+01 0. -1.
        -11    1    4    4    0    0 -0.21884818564E+02 -0.24699547008E+02  0.76651905620E+03  0.76722908992E+03  0.00000000000E+00 0.  1.
         12    1    4    4    0    0 -0.90374989143E+01 -0.44730578338E+02  0.16703878323E+03  0.17316020365E+03  0.00000000000E+00 0. -1.
         -5    1    5    5    0  502  0.31814351245E+02 -0.29822107418E+02  0.37931107210E+02  0.57985945971E+02  0.47000000000E+01 0.  1.
         11    1    6    6    0    0 -0.21428404657E+02  0.55072336450E+01  0.13774140834E+02  0.26062100918E+02  0.00000000000E+00 0. -1.
        -12    1    6    6    0    0  0.57756507441E+01  0.98737827535E+02 -0.34785907758E+02  0.10484548682E+03  0.00000000000E+00 0.  1.
</event>
<event>
12    1  0.1035051E+000  0.2771131E+03  0.7818608E-02  0.1097403E+00
         21   -1    0    0  501  502  0.00000000000E+00  0.00000000000E+00  0.22177638275E+03  0.22177638275E+03  0.00000000000E+00 0. -1.
         21   -1    0    0  502  503 -0.00000000000E+00 -0.00000000000E+00 -0.46635049423E+03  0.46635049423E+03  0.00000000000E+00 0. -1.
         -6    2    1    2    0  503 -0.56921899458E+02  0.20917549826E+03  0.53287195496E+02  0.28129396887E+03  0.17114987587E+03 0.  0.
        -24    2    3    3    0    0 -0.38856152837E+02  0.23073596127E+03  0.52665670844E+02  0.25276852306E+03  0.79808326172E+02 0.  0.
          6    2    1    2  501    0  0.56921899458E+02 -0.20917549826E+03 -0.29786130698E+03  0.40683290811E+03  0.17261855409E+03 0.  0.
         24    2    5    5    0    0  0.16714333079E+02 -0.63470659427E+02 -0.67104110249E+02  0.13093886632E+03  0.91291464893E+02 0.  0.
          5    1    5    5  501    0  0.40207566379E+02 -0.14570483883E+03 -0.23075719673E+03  0.27589404179E+03  0.47000000000E+01 0. -1.
        -11    1    6    6    0    0  0.39886553590E+02 -0.61977974601E+02 -0.16887320465E+02  0.75613412073E+02  0.00000000000E+00 0.  1.
         12    1    6    6    0    0 -0.23172220510E+02 -0.14926848264E+01 -0.50216789784E+02  0.55325454246E+02  0.00000000000E+00 0. -1.
         -5    1    3    3    0  503 -0.18065746621E+02 -0.21560463008E+02  0.62152465142E+00  0.28525445816E+02  0.47000000000E+01 0.  1.
         13    1    4    4    0    0 -0.30574496790E+02  0.47258313395E+02  0.39239384103E+02  0.68613973094E+02  0.00000000000E+00 0. -1.
        -14    1    4    4    0    0 -0.82816560477E+01  0.18347764787E+03  0.13426286741E+02  0.18415454996E+03  0.00000000000E+00 0.  1.
</event>
<event>
12    1  0.1035051E+000  0.1998579E+03  0.7818608E-02  0.1150196E+00
         21   -1    0    0  503  502  0.00000000000E+00  0.00000000000E+00  0.71691087668E+03  0.71691087668E+03  0.00000000000E+00 0. -1.
         21   -1    0    0  501  503 -0.00000000000E+00 -0.00000000000E+00 -0.77495794505E+02  0.77495794505E+02  0.00000000000E+00 0. -1.
          6    2    1    2  501    0  0.17829619426E+02  0.99316356013E+02  0.53149685200E+03  0.56727338969E+03  0.17067091454E+03 0.  0.
         24    2    3    3    0    0  0.43416734708E+01  0.98947228972E+02  0.53826664733E+03  0.55146260003E+03  0.67606296665E+02 0.  0.
         -6    2    1    2    0  502 -0.17829619426E+02 -0.99316356013E+02  0.10791823018E+03  0.22713328149E+03  0.17251535948E+03 0.  0.
        -24    2    5    5    0    0  0.46922612557E+02 -0.95247474097E+02  0.55207569926E+02  0.14340806993E+03  0.79020161057E+02 0.  0.
          5    1    3    3  501    0  0.13487945955E+02  0.36912704111E+00 -0.67697953368E+01  0.15810789663E+02  0.47000000000E+01 0. -1.
        -11    1    4    4    0    0  0.14901325956E+02  0.18753297212E+02  0.27522736190E+03  0.27626768977E+03  0.00000000000E+00 0.  1.
         12    1    4    4    0    0 -0.10559652486E+02  0.80193931759E+02  0.26303928543E+03  0.27519491026E+03  0.00000000000E+00 0. -1.
         -5    1    5    5    0  502 -0.64752231983E+02 -0.40688819158E+01  0.52710660250E+02  0.83725211560E+02  0.47000000000E+01 0.  1.
         13    1    6    6    0    0  0.19710897658E+02  0.79699732787E+01  0.24281229741E+02  0.32274108481E+02  0.00000000000E+00 0. -1.
        -14    1    6    6    0    0  0.27211714899E+02 -0.10321744738E+03  0.30926340185E+02  0.11113396145E+03  0.00000000000E+00 0.  1.
</event>
<event>
12    1  0.1035051E+000  0.2364482E+03  0.7818608E-02  0.1122220E+00
         21   -1    0    0  501  502  0.00000000000E+00  0.00000000000E+00  0.10767575356E+04  0.10767575356E+04  0.00000000000E+00 0. -1.
         21   -1    0    0  502  503 -0.00000000000E+00 -0.00000000000E+00 -0.58595011710E+02  0.58595011710E+02  0.00000000000E+00 0. -1.
         -6    2    1    2    0  503 -0.14883430976E+03  0.62989908565E+02  0.70113992926E+03  0.73986415022E+03  0.17228575110E+03 0.  0.
        -24    2    3    3    0    0 -0.16368809646E+03  0.11508799690E+02  0.53172544233E+03  0.56211630092E+03  0.79476690546E+02 0.  0.
          6    2    1    2  501    0  0.14883430976E+03 -0.62989908565E+02  0.31702259461E+03  0.39548839707E+03  0.17259306585E+03 0.  0.
         24    2    5    5    0    0  0.82545168494E+02  0.25342328012E+02  0.11562489026E+03  0.16574950270E+03  0.81534311594E+02 0.  0.
          5    1    5    5  501    0  0.66289141270E+02 -0.88332236577E+02  0.20139770434E+03  0.22973889437E+03  0.47000000000E+01 0. -1.
        -11    1    6    6    0    0  0.54095518129E+02 -0.21604659767E+02  0.84539626215E+02  0.10266467165E+03  0.00000000000E+00 0.  1.
         12    1    6    6    0    0  0.28449650365E+02  0.46946987779E+02  0.31085264046E+02  0.63084831047E+02  0.00000000000E+00 0. -1.
         -5    1    3    3    0  503  0.14853786697E+02  0.51481108875E+02  0.16941448693E+03  0.17774784930E+03  0.47000000000E+01 0.  1.
         13    1    4    4    0    0 -0.42540072188E+02 -0.31007686284E+02  0.18657584215E+03  0.19385994744E+03  0.00000000000E+00 0. -1.
        -14    1    4    4    0    0 -0.12114802427E+03  0.42516485974E+02  0.34514960019E+03  0.36825635347E+03  0.00000000000E+00 0.  1.
</event>
<event>
12    1  0.1035051E+000  0.2668680E+03  0.7818608E-02  0.1103912E+00
         21   -1    0    0  503  502  0.00000000000E+00  0.00000000000E+00  0.65953899349E+03  0.65953899349E+03  0.00000000000E+00 0.  1.
         21   -1    0    0  501  503 -0.00000000000E+00 -0.00000000000E+00 -0.10898601229E+03  0.10898601229E+03  0.00000000000E+00 0.  1.
          6    2    1    2  501    0  0.15197200986E+03  0.12679643844E+03  0.20589946791E+03  0.33262989344E+03  0.17051459335E+03 0.  0.
         24    2    3    3    0    0  0.87637405420E+01  0.66116304336E+02  0.11151205518E+03  0.15063604531E+03  0.76210962796E+02 0.  0.
         -6    2    1    2    0  502 -0.15197200986E+03 -0.12679643844E+03  0.34465351329E+03  0.43589511233E+03  0.17901306140E+03 0.  0.
        -24    2    5    5    0    0 -0.95134512600E+02 -0.14363018997E+03  0.31862247534E+03  0.37098300851E+03  0.80174209399E+02 0.  0.
          5    1    3    3  501    0  0.14320826932E+03  0.60680134100E+02  0.94387412735E+02  0.18199384813E+03  0.47000000000E+01 0. -1.
        -13    1    4    4    0    0  0.15275108342E+02  0.68853575295E+02  0.12024613826E+03  0.13940329096E+03  0.00000000000E+00 0.  1.
         14    1    4    4    0    0 -0.65113678005E+01 -0.27372709592E+01 -0.87340830823E+01  0.11232754347E+02  0.00000000000E+00 0. -1.
         -5    1    5    5    0  502 -0.56837497260E+02  0.16833751537E+02  0.26031037949E+02  0.64912103819E+02  0.47000000000E+01 0.  1.
         11    1    6    6    0    0 -0.31394070835E+02  0.74875908683E+00  0.66422543646E+02  0.73471781169E+02  0.00000000000E+00 0. -1.
        -12    1    6    6    0    0 -0.63740441765E+02 -0.14437894906E+03  0.25219993170E+03  0.29751122734E+03  0.00000000000E+00 0.  1.
</event>
<event>
12    1  0.1035051E+000  0.2466682E+03  0.7818608E-02  0.1115490E+00
         21   -1    0    0  503  502  0.00000000000E+00  0.00000000000E+00  0.94461902599E+02  0.94461902599E+02  0.00000000000E+00 0.  1.
         21   -1    0    0  501  503 -0.00000000000E+00 -0.00000000000E+00 -0.67210592780E+03  0.67210592780E+03  0.00000000000E+00 0.  1.
          6    2    1    2  501    0 -0.13780136525E+03 -0.11077774149E+03 -0.36861142174E+03  0.44353078446E+03  0.17200073330E+03 0.  0.
         24    2    3    3    0    0 -0.98744335504E+02 -0.73341468573E+02 -0.12253960945E+03  0.19153802086E+03  0.80879186107E+02 0.  0.
         -6    2    1    2    0  502  0.13780136525E+03  0.11077774149E+03 -0.20903260346E+03  0.32303704594E+03  0.17145664018E+03 0.  0.
        -24    2    5    5    0    0  0.29998397220E+02  0.19275317821E+02 -0.26616862754E+02  0.92186951911E+02  0.80737444887E+02 0.  0.
          5    1    3    3  501    0 -0.39057029747E+02 -0.37436272918E+02 -0.24607181229E+03  0.25199276360E+03  0.47000000000E+01 0. -1.
        -13    1    4    4    0    0  0.52017791793E+01 -0.30267525185E+01  0.82937922966E+01  0.10247279058E+02  0.00000000000E+00 0.  1.
         14    1    4    4    0    0 -0.10394611468E+03 -0.70314716055E+02 -0.13083340174E+03  0.18129074180E+03  0.00000000000E+00 0. -1.
         -5    1    5    5    0  502  0.10780296803E+03  0.91502423670E+02 -0.18241574071E+03  0.23085009403E+03  0.47000000000E+01 0.  1.
         11    1    6    6    0    0  0.54782938443E+02 -0.75179459573E+00 -0.82439569873E+01  0.55404858690E+02  0.00000000000E+00 0. -1.
        -12    1    6    6    0    0 -0.24784541224E+02  0.20027112417E+02 -0.18372905766E+02  0.36782093221E+02  0.00000000000E+00 0.  1.
</event>
<event>
12    1  0.1035051E+000  0.1735540E+03  0.7818608E-02  0.1174434E+00
         21   -1    0    0  503  502  0.00000000000E+00  0.00000000000E+00  0.55971819494E+03  0.55971819494E+03  0.00000000000E+00 0.  1.
         21   -1    0    0  501  503 -0.00000000000E+00 -0.00000000000E+00 -0.62980444852E+02  0.62980444852E+02  0.00000000000E+00 0.  1.
          6    2    1    2  501    0 -0.20765384586E+02 -0.61208644586E+01  0.12827414911E+03  0.21581296575E+03  0.17219846885E+03 0.  0.
         24    2    3    3    0    0  0.38334687695E+02  0.40925136830E+02  0.68656705615E+02  0.11946736725E+03  0.80089284591E+02 0.  0.
         -6    2    1    2    0  502  0.20765384586E+02  0.61208644586E+01  0.36846360098E+03  0.40688567405E+03  0.17123627046E+03 0.  0.
        -24    2    5    5    0    0 -0.45659674903E+02 -0.28010651127E+02  0.18216859274E+03  0.20612420120E+03  0.80202167373E+02 0.  0.
          5    1    3    3  501    0 -0.59100072280E+02 -0.47046001288E+02  0.59617443494E+02  0.96345598496E+02  0.47000000000E+01 0. -1.
        -13    1    4    4    0    0 -0.20625638264E+02  0.97336430172E-01  0.34116420551E+02  0.39866735249E+02  0.00000000000E+00 0.  1.
         14    1    4    4    0    0  0.58960325958E+02  0.40827800400E+02  0.34540285064E+02  0.79600632001E+02  0.00000000000E+00 0. -1.
         -5    1    5    5    0  502  0.66425059489E+02  0.34131515586E+02  0.18629500824E+03  0.20076147285E+03  0.47000000000E+01 0.  1.
         13    1    6    6    0    0  0.11368116892E+02 -0.35680591217E+02  0.89847757380E+02  0.97339396842E+02  0.00000000000E+00 0. -1.
        -14    1    6    6    0    0 -0.57027791796E+02  0.76699400903E+01  0.92320835357E+02  0.10878480436E+03  0.00000000000E+00 0.  1.
</event>
<event>
12    1  0.1035051E+000  0.4685149E+03  0.7818608E-02  0.1022752E+00
         21   -1    0    0  501  502  0.00000000000E+00  0.00000000000E+00  0.12473972997E+04  0.12473972997E+04  0.00000000000E+00 0.  1.
         21   -1    0    0  502  503 -0.00000000000E+00 -0.00000000000E+00 -0.23088233302E+03  0.23088233302E+03  0.00000000000E+00 0. -1.
         -6    2    1    2    0  503 -0.17157139675E+03  0.39576561097E+03  0.14314202188E+03  0.48989370321E+03  0.18286344360E+03 0.  0.
        -24    2    3    3    0    0 -0.79680078939E+01  0.86889033766E+02  0.51191746273E+02  0.12844142147E+03  0.79141711658E+02 0.  0.
          6    2    1    2  501    0  0.17157139675E+03 -0.39576561097E+03  0.87337294479E+03  0.98838592950E+03  0.16750905026E+03 0.  0.
         24    2    5    5    0    0  0.25964022296E+02 -0.11852778703E+03  0.32823484110E+03  0.35968889545E+03  0.83156622388E+02 0.  0.
          5    1    5    5  501    0  0.14560737445E+03 -0.27723782394E+03  0.54513810369E+03  0.62869703404E+03  0.47000000000E+01 0. -1.
        -13    1    6    6    0    0 -0.27263365245E+02 -0.69782422461E+02  0.16582092593E+03  0.18196004244E+03  0.00000000000E+00 0.  1.
         14    1    6    6    0    0  0.53227387541E+02 -0.48745364571E+02  0.16241391517E+03  0.17772885301E+03  0.00000000000E+00 0. -1.
         -5    1    3    3    0  503 -0.16360338885E+03  0.30887657721E+03  0.91950275609E+02  0.36145228174E+03  0.47000000000E+01 0.  1.
         13    1    4    4    0    0 -0.15134244383E+02  0.85074245708E+02  0.10455863865E+02  0.87040207519E+02  0.00000000000E+00 0. -1.
        -14    1    4    4    0    0  0.71662364888E+01  0.18147880585E+01  0.40735882407E+02  0.41401213951E+02  0.00000000000E+00 0.  1.
</event>
<event>
12    1  0.1035051E+000  0.2164783E+03  0.7818608E-02  0.1136620E+00
         21   -1    0    0  501  502  0.00000000000E+00  0.00000000000E+00  0.44327215441E+03  0.44327215441E+03  0.00000000000E+00 0.  1.
         21   -1    0    0  502  503 -0.00000000000E+00 -0.00000000000E+00 -0.12507956010E+03  0.12507956010E+03  0.00000000000E+00 0. -1.
         -6    2    1    2    0  503 -0.94137116544E+02  0.91959011344E+02  0.46814832093E+02  0.22148249819E+03  0.17188546193E+03 0.  0.
        -24    2    3    3    0    0  0.21028492918E+02  0.21394718094E+02  0.32847315301E+02  0.85616319143E+02  0.73152419675E+02 0.  0.
          6    2    1    2  501    0  0.94137116544E+02 -0.91959011344E+02  0.27137776222E+03  0.34686921633E+03  0.17133040282E+03 0.  0.
         24    2    5    5    0    0  0.12490370225E+03 -0.81791059634E+02  0.16998612683E+03  0.24032193215E+03  0.81047118929E+02 0.  0.
          5    1    5    5  501    0 -0.30766585708E+02 -0.10167951710E+02  0.10139163539E+03  0.10654728417E+03  0.47000000000E+01 0. -1.
        -13    1    6    6    0    0  0.55683192543E+02 -0.78780195011E+02  0.72294585946E+02  0.12055473535E+03  0.00000000000E+00 0.  1.
         14    1    6    6    0    0  0.69220509709E+02 -0.30108646229E+01  0.97691540885E+02  0.11976719681E+03  0.00000000000E+00 0. -1.
         -5    1    3    3    0  503 -0.11516560946E+03  0.70564293249E+02  0.13967516792E+02  0.13586617905E+03  0.47000000000E+01 0.  1.
         13    1    4    4    0    0  0.29600657679E+02  0.31063595431E+02  0.48868979321E+02  0.65033245621E+02  0.00000000000E+00 0. -1.
        -14    1    4    4    0    0 -0.85721647602E+01 -0.96688773370E+01 -0.16021664020E+02  0.20583073522E+02  0.00000000000E+00 0.  1.
</event>
<event>
12    1  0.1035051E+000  0.3883346E+03  0.7818608E-02  0.1047898E+00
         21   -1    0    0  503  502  0.00000000000E+00  0.00000000000E+00  0.30941803119E+03  0.30941803119E+03  0.00000000000E+00 0.  1.
         21   -1    0    0  501  503 -0.00000000000E+00 -0.00000000000E+00 -0.67189462773E+03  0.67189462773E+03  0.00000000000E+00 0.  1.
          6    2    1    2  501    0 -0.28250530789E+03 -0.20265561459E+03  0.75908122472E+02  0.39568401826E+03  0.17298916770E+03 0.  0.
         24    2    3    3    0    0 -0.15737706696E+03 -0.46662508855E+02  0.70123123409E+02  0.19556784718E+03  0.79903688759E+02 0.  0.
         -6    2    1    2    0  502  0.28250530789E+03  0.20265561459E+03 -0.43838471901E+03  0.58562864065E+03  0.17291962232E+03 0.  0.
        -24    2    5    5    0    0  0.97337800278E+02  0.14416135702E+03 -0.19698380080E+03  0.27578177951E+03  0.83641065962E+02 0.  0.
          5    1    3    3  501    0 -0.12512824093E+03 -0.15599310573E+03  0.57849990637E+01  0.20011617108E+03  0.47000000000E+01 0. -1.
        -11    1    4    4    0    0 -0.16202778446E+03 -0.47798895591E+02  0.51896436486E+02  0.17672288328E+03  0.00000000000E+00 0.  1.
         12    1    4    4    0    0  0.46507175003E+01  0.11363867367E+01  0.18226686923E+02  0.18844963896E+02  0.00000000000E+00 0. -1.
         -5    1    5    5    0  502  0.18516750761E+03  0.58494257569E+02 -0.24140091822E+03  0.30984686114E+03  0.47000000000E+01 0.  1.
         13    1    6    6    0    0  0.10128213848E+03  0.91456577557E+02 -0.11614222599E+03  0.17919652288E+03  0.00000000000E+00 0. -1.
        -14    1    6    6    0    0 -0.39443382066E+01  0.52704779459E+02 -0.80841574803E+02  0.96585256630E+02  0.00000000000E+00 0.  1.
</event>
<event>
12    1  0.1035051E+000  0.1813879E+03  0.7818608E-02  0.1169482E+00
         21   -1    0    0  501  502  0.00000000000E+00  0.00000000000E+00  0.12900406825E+04  0.12900406825E+04  0.00000000000E+00 0. -1.
         21   -1    0    0  502  503 -0.00000000000E+00 -0.00000000000E+00 -0.42617062924E+02  0.42617062924E+02  0.00000000000E+00 0. -1.
         -6    2    1    2    0  503 -0.53263240316E+02 -0.21601464028E+02  0.10539438087E+04  0.10674483960E+04  0.15920091109E+03 0.  0.
        -24    2    3    3    0    0 -0.26946463256E+02 -0.42366470849E+02  0.99306257458E+03  0.99778942000E+03  0.83002529379E+02 0.  0.
          6    2    1    2  501    0  0.53263240316E+02  0.21601464028E+02  0.19347981086E+03  0.26520934947E+03  0.17204059351E+03 0.  0.
         24    2    5    5    0    0  0.12290034841E+02 -0.23967534475E+02  0.28983414509E+02  0.89606127387E+02  0.80397338783E+02 0.  0.
          5    1    5    5  501    0  0.40973205475E+02  0.45568998504E+02  0.16449639636E+03  0.17560322208E+03  0.47000000000E+01 0. -1.
        -13    1    6    6    0    0  0.29368265116E+02 -0.11063063306E+01  0.47307726973E+02  0.55693266568E+02  0.00000000000E+00 0.  1.
         14    1    6    6    0    0 -0.17078230275E+02 -0.22861228145E+02 -0.18324312464E+02  0.33912860819E+02  0.00000000000E+00 0. -1.
         -5    1    3    3    0  503 -0.26316777060E+02  0.20765006820E+02  0.60881234137E+02  0.69658975970E+02  0.47000000000E+01 0.  1.
         11    1    4    4    0    0 -0.17533655597E+02  0.10891818577E+02  0.66042154583E+02  0.69192680050E+02  0.00000000000E+00 0. -1.
        -12    1    4    4    0    0 -0.94128076584E+01 -0.53258289426E+02  0.92702042000E+03  0.92859673995E+03  0.00000000000E+00 0.  1.
</event>
<event>
12    1  0.1035051E+000  0.2493893E+03  0.7818608E-02  0.1113707E+00
         21   -1    0    0  503  502  0.00000000000E+00  0.00000000000E+00  0.13543954964E+03  0.13543954964E+03  0.00000000000E+00 0.  1.
         21   -1    0    0  501  503 -0.00000000000E+00 -0.00000000000E+00 -0.46264708946E+03  0.46264708946E+03  0.00000000000E+00 0.  1.
          6    2    1    2  501    0 -0.17944637798E+03  0.19780058842E+02 -0.19003277849E+03  0.31346070801E+03  0.17190958457E+03 0.  0.
         24    2    3    3    0    0 -0.70094875753E+02 -0.61009119204E+01 -0.18270483671E+02  0.10815130343E+03  0.80077344654E+02 0.  0.
         -6    2    1    2    0  502  0.17944637798E+03 -0.19780058842E+02 -0.13717476133E+03  0.28462593109E+03  0.17205450360E+03 0.  0.
        -24    2    5    5    0    0  0.19455845456E+03  0.13273232306E+02 -0.10401557402E+03  0.23520410780E+03  0.80452232741E+02 0.  0.
          5    1    3    3  501    0 -0.10935150223E+03  0.25880970762E+02 -0.17176229482E+03  0.20530940458E+03  0.47000000000E+01 0. -1.
        -11    1    4    4    0    0 -0.71123664668E+00 -0.14682852016E+01 -0.36281793822E+02  0.36318456491E+02  0.00000000000E+00 0.  1.
         12    1    4    4    0    0 -0.69383639106E+02 -0.46326267188E+01  0.18011310151E+02  0.71832846938E+02  0.00000000000E+00 0. -1.
         -5    1    5    5    0  502 -0.15112076580E+02 -0.33053291148E+02 -0.33159187314E+02  0.49421823293E+02  0.47000000000E+01 0.  1.
         11    1    6    6    0    0  0.66606275946E+02 -0.27160315740E+02 -0.60928507238E+02  0.94267500979E+02  0.00000000000E+00 0. -1.
        -12    1    6    6    0    0  0.12795217861E+03  0.40433548046E+02 -0.43087066777E+02  0.14093660682E+03  0.00000000000E+00 0.  1.
</event>
<event>
12    1  0.1035051E+000  0.1869214E+03  0.7818608E-02  0.1161749E+00
         21   -1    0    0  501  502  0.00000000000E+00  0.00000000000E+00  0.53946174538E+02  0.53946174538E+02  0.00000000000E+00 0. -1.
         21   -1    0    0  502  503 -0.00000000000E+00 -0.00000000000E+00 -0.10906589718E+04  0.10906589718E+04  0.00000000000E+00 0. -1.
         -6    2    1    2    0  503 -0.32969550486E+02 -0.54557307301E+02 -0.15238391875E+03  0.24116479002E+03  0.17571598166E+03 0.  0.
        -24    2    3    3    0    0 -0.44891345582E+02 -0.33316673095E+02 -0.11529454182E+02  0.98142540248E+02  0.79836058760E+02 0.  0.
          6    2    1    2  501    0  0.32969550486E+02  0.54557307301E+02 -0.88432887855E+03  0.90344035636E+03  0.17350337467E+03 0.  0.
         24    2    5    5    0    0  0.56266045285E+02 -0.23584357830E+02 -0.54929837857E+03  0.55859782357E+03  0.81121698816E+02 0.  0.
          5    1    5    5  501    0 -0.23296494799E+02  0.78141665131E+02 -0.33503049998E+03  0.34484253279E+03  0.47000000000E+01 0. -1.
        -11    1    6    6    0    0 -0.16545793805E+02 -0.21899517926E+02 -0.19201248546E+03  0.19396429246E+03  0.00000000000E+00 0.  1.
         12    1    6    6    0    0  0.72811839091E+02 -0.16848399038E+01 -0.35728589311E+03  0.36463353111E+03  0.00000000000E+00 0. -1.
         -5    1    3    3    0  503  0.11921795095E+02 -0.21240634206E+02 -0.14085446457E+03  0.14302224977E+03  0.47000000000E+01 0.  1.
         13    1    4    4    0    0  0.48913415377E+01 -0.37094369293E+02 -0.26697070434E+02  0.45963583684E+02  0.00000000000E+00 0. -1.
        -14    1    4    4    0    0 -0.49782687119E+02  0.37776961981E+01  0.15167616252E+02  0.52178956564E+02  0.00000000000E+00 0.  1.
</event>
<event>
12    1  0.1035051E+000  0.2019235E+03  0.7818608E-02  0.1149565E+00
         21   -1    0    0  501  502  0.00000000000E+00  0.00000000000E+00  0.52398036561E+03  0.52398036561E+03  0.00000000000E+00 0.  1.
         21   -1    0    0  502  503 -0.00000000000E+00 -0.00000000000E+00 -0.18782459730E+03  0.18782459730E+03  0.00000000000E+00 0.  1.
         -6    2    1    2    0  503  0.93543106318E+02  0.21061361792E+02  0.44247926715E+03  0.48359939522E+03  0.16996052335E+03 0.  0.
        -24    2    3    3    0    0  0.20063270304E+02  0.49960329513E+02  0.13600772954E+03  0.16708505115E+03  0.80751114436E+02 0.  0.
          6    2    1    2  501    0 -0.93543106318E+02 -0.21061361792E+02 -0.10632349885E+03  0.22820556768E+03  0.17770537700E+03 0.  0.
         24    2    5    5    0    0 -0.12654471706E+03 -0.47678057709E+02 -0.67522782845E+02  0.17054153751E+03  0.78983081790E+02 0.  0.
          5    1    5    5  501    0  0.33001610747E+02  0.26616695917E+02 -0.38800716003E+02  0.57664030173E+02  0.47000000000E+01 0. -1.
        -11    1    6    6    0    0 -0.19392900928E+02 -0.28819667422E+02 -0.49174998540E+02  0.60206630185E+02  0.00000000000E+00 0.  1.
         12    1    6    6    0    0 -0.10715181614E+03 -0.18858390287E+02 -0.18347784304E+02  0.11033490732E+03  0.00000000000E+00 0. -1.
         -5    1    3    3    0  503  0.73479836013E+02 -0.28898967721E+02  0.30647153761E+03  0.31651434407E+03  0.47000000000E+01 0.  1.
         13    1    4    4    0    0  0.22705686591E+02 -0.17911868454E+02  0.45754176003E+02  0.54127884282E+02  0.00000000000E+00 0. -1.
        -14    1    4    4    0    0 -0.26424162866E+01  0.67872197967E+02  0.90253553540E+02  0.11295716687E+03  0.00000000000E+00 0.  1.
</event>
<event>
12    1  0.1035051E+000  0.2854111E+03  0.7818608E-02  0.1092807E+00
         21   -1    0    0  501  502  0.00000000000E+00  0.00000000000E+00  0.27300790292E+03  0.27300790292E+03  0.00000000000E+00 0.  1.
         21   -1    0    0  502  503 -0.00000000000E+00 -0.00000000000E+00 -0.41581068070E+03  0.41581068070E+03  0.00000000000E+00 0.  1.
         -6    2    1    2    0  503 -0.93315164411E+01  0.22710254190E+03  0.11188313825E+03  0.30629483740E+03  0.17215123890E+03 0.  0.
        -24    2    3    3    0    0  0.57754473504E+02  0.96869714315E+02  0.61121856566E+02  0.15118224234E+03  0.80005426615E+02 0.  0.
          6    2    1    2  501    0  0.93315164411E+01 -0.22710254190E+03 -0.25468591602E+03  0.38252374622E+03  0.17261766672E+03 0.  0.
         24    2    5    5    0    0  0.66111855525E+02 -0.18853689953E+03 -0.17862191501E+03  0.27996089754E+03  0.80965274704E+02 0.  0.
          5    1    5    5  501    0 -0.56780339084E+02 -0.38565642373E+02 -0.76064001018E+02  0.10256284868E+03  0.47000000000E+01 0. -1.
        -11    1    6    6    0    0 -0.18153494625E+02 -0.52495215646E+02 -0.45283391447E+02  0.71665072202E+02  0.00000000000E+00 0.  1.
         12    1    6    6    0    0  0.84265350150E+02 -0.13604168388E+03 -0.13333852356E+03  0.20829582534E+03  0.00000000000E+00 0. -1.
         -5    1    3    3    0  503 -0.67085989945E+02  0.13023282759E+03  0.50761281686E+02  0.15511259506E+03  0.47000000000E+01 0.  1.
         11    1    4    4    0    0 -0.79671637290E+01  0.44938522490E+02 -0.29346917645E+01  0.45733564449E+02  0.00000000000E+00 0. -1.
        -12    1    4    4    0    0  0.65721637233E+02  0.51931191825E+02  0.64056548331E+02  0.10544867789E+03  0.00000000000E+00 0.  1.
</event>
<event>
12    1  0.1035051E+000  0.1914131E+03  0.7818608E-02  0.1158350E+00
         21   -1    0    0  501  502  0.00000000000E+00  0.00000000000E+00  0.28435000317E+03  0.28435000317E+03  0.00000000000E+00 0.  1.
         21   -1    0    0  502  503 -0.00000000000E+00 -0.00000000000E+00 -0.21310912023E+03  0.21310912023E+03  0.00000000000E+00 0.  1.
         -6    2    1    2    0  503 -0.45274213855E+02 -0.58599516588E+02 -0.12362373481E+03  0.22786359228E+03  0.17650872810E+03 0.  0.
        -24    2    3    3    0    0 -0.56806879533E+02 -0.51768631947E+02 -0.63421303638E+01  0.10972499527E+03  0.78053437804E+02 0.  0.
          6    2    1    2  501    0  0.45274213855E+02  0.58599516588E+02  0.19486461775E+03  0.26959553112E+03  0.17095576435E+03 0.  0.
         24    2    5    5    0    0 -0.80647412100E+01  0.61794068560E+02  0.48042650209E+02  0.11328164996E+03  0.81492877103E+02 0.  0.
          5    1    5    5  501    0  0.53338955065E+02 -0.31945519726E+01  0.14682196755E+03  0.15631388116E+03  0.47000000000E+01 0. -1.
        -11    1    6    6    0    0  0.28595453641E+02  0.23309238108E+02 -0.61196879684E+01  0.37396137915E+02  0.00000000000E+00 0.  1.
         12    1    6    6    0    0 -0.36660194851E+02  0.38484830453E+02  0.54162338178E+02  0.75885512046E+02  0.00000000000E+00 0. -1.
         -5    1    3    3    0  503  0.11532665678E+02 -0.68308846411E+01 -0.11728160445E+03  0.11813859702E+03  0.47000000000E+01 0.  1.
         11    1    4    4    0    0 -0.72860701126E+02 -0.46819977844E+02 -0.19029491184E+02  0.88673071609E+02  0.00000000000E+00 0. -1.
        -12    1    4    4    0    0  0.16053821593E+02 -0.49486541025E+01  0.12687360820E+02  0.21051923659E+02  0.00000000000E+00 0.  1.
</event>
<event>
12    1  0.1035051E+000  0.2229004E+03  0.7818608E-02  0.1132008E+00
         21   -1    0    0  501  502  0.00000000000E+00  0.00000000000E+00  0.23674005448E+03  0.23674005448E+03  0.00000000000E+00 0.  1.
         21   -1    0    0  502  503 -0.00000000000E+00 -0.00000000000E+00 -0.50758208856E+03  0.50758208856E+03  0.00000000000E+00 0. -1.
         -6    2    1    2    0  503  0.14011152247E+03  0.20302581165E+02  0.15007384644E+03  0.26871313611E+03  0.17216607274E+03 0.  0.
        -24    2    3    3    0    0  0.73053231118E+02 -0.49278591481E+02  0.11589879665E+03  0.16610525116E+03  0.79957921705E+02 0.  0.
          6    2    1    2  501    0 -0.14011152247E+03 -0.20302581165E+02 -0.42091588052E+03  0.47560900693E+03  0.17026542651E+03 0.  0.
         24    2    5    5    0    0 -0.93562921117E+02 -0.68984369124E+02 -0.17794099263E+03  0.22342737612E+03  0.68876208905E+02 0.  0.
          5    1    5    5  501    0 -0.46548601354E+02  0.48681787959E+02 -0.24297488790E+03  0.25218163080E+03  0.47000000000E+01 0. -1.
        -13    1    6    6    0    0 -0.39745023020E+01 -0.39264741860E+02 -0.39219906692E+02  0.55639174174E+02  0.00000000000E+00 0.  1.
         14    1    6    6    0    0 -0.89588418815E+02 -0.29719627264E+02 -0.13872108594E+03  0.16778820195E+03  0.00000000000E+00 0. -1.
         -5    1    3    3    0  503  0.67058291353E+02  0.69581172646E+02  0.34175049793E+02  0.10260788495E+03  0.47000000000E+01 0.  1.
         11    1    4    4    0    0  0.31358374551E+02 -0.92318003430E+01 -0.40622324888E+01  0.32940484587E+02  0.00000000000E+00 0. -1.
        -12    1    4    4    0    0  0.41694856566E+02 -0.40046791138E+02  0.11996102914E+03  0.13316476657E+03  0.00000000000E+00 0.  1.
</event>
<event>
12    1  0.1035051E+000  0.2090041E+03  0.7818608E-02  0.1143460E+00
         21   -1    0    0  503  502  0.00000000000E+00  0.00000000000E+00  0.14517880533E+03  0.14517880533E+03  0.00000000000E+00 0. -1.
         21   -1    0    0  501  503 -0.00000000000E+00 -0.00000000000E+00 -0.29458711045E+03  0.29458711045E+03  0.00000000000E+00 0. -1.
          6    2    1    2  501    0  0.53441724344E+02  0.10724368586E+03 -0.89423827401E+02  0.22232427470E+03  0.16454250563E+03 0.  0.
         24    2    3    3    0    0  0.28477019008E+02  0.17205034781E+02 -0.95574768119E+02  0.12856863876E+03  0.79299462407E+02 0.  0.
         -6    2    1    2    0  502 -0.53441724344E+02 -0.10724368586E+03 -0.59984477716E+02  0.21744164108E+03  0.17124690845E+03 0.  0.
        -24    2    5    5    0    0 -0.81886078176E+02 -0.30481223022E+02 -0.66322924551E+02  0.13519917715E+03  0.79029440240E+02 0.  0.
          5    1    3    3  501    0  0.24964705336E+02  0.90038651075E+02  0.61509407184E+01  0.93755635946E+02  0.47000000000E+01 0. -1.
        -13    1    4    4    0    0  0.10350015211E+02  0.30381601959E+02 -0.17927014002E+01  0.32146202432E+02  0.00000000000E+00 0.  1.
         14    1    4    4    0    0  0.18127003797E+02 -0.13176567178E+02 -0.93782066719E+02  0.96422436327E+02  0.00000000000E+00 0. -1.
         -5    1    5    5    0  502  0.28444353833E+02 -0.76762462834E+02  0.63384468345E+01  0.82242463932E+02  0.47000000000E+01 0.  1.
         13    1    6    6    0    0  0.13969620905E+02 -0.85516406385E+01  0.37004897642E+00  0.16383461236E+02  0.00000000000E+00 0. -1.
        -14    1    6    6    0    0 -0.95855699081E+02 -0.21929582383E+02 -0.66692973527E+02  0.11881571591E+03  0.00000000000E+00 0.  1.
</event>
<event>
12    1  0.1035051E+000  0.1760248E+03  0.7818608E-02  0.1172371E+00
         21   -1    0    0  501  502  0.00000000000E+00  0.00000000000E+00  0.95684381622E+02  0.95684381622E+02  0.00000000000E+00 0.  1.
         21   -1    0    0  502  503 -0.00000000000E+00 -0.00000000000E+00 -0.47278718856E+03  0.47278718856E+03  0.00000000000E+00 0.  1.
         -6    2    1    2    0  503  0.65153675390E+01 -0.11609782687E+02 -0.34970826520E+03  0.39032780008E+03  0.17286608602E+03 0.  0.
        -24    2    3    3    0    0  0.10798295088E+02  0.59387885025E+02 -0.24371787898E+03  0.26259736416E+03  0.76911943578E+02 0.  0.
          6    2    1    2  501    0 -0.65153675390E+01  0.11609782687E+02 -0.27394541742E+02  0.17814377011E+03  0.17552066785E+03 0.  0.
         24    2    5    5    0    0  0.60241425146E+02 -0.24370080683E+02  0.47255281555E+01  0.95652504945E+02  0.70029571966E+02 0.  0.
          5    1    5    5  501    0 -0.66756792685E+02  0.35979863370E+02 -0.32120069897E+02  0.82491265161E+02  0.47000000000E+01 0. -1.
        -11    1    6    6    0    0  0.56342452426E+02 -0.44660786880E+02 -0.64092746411E+01  0.72181276183E+02  0.00000000000E+00 0.  1.
         12    1    6    6    0    0  0.38989727204E+01  0.20290706197E+02  0.11134802797E+02  0.23471228761E+02  0.00000000000E+00 0. -1.
         -5    1    3    3    0  503 -0.42829275486E+01 -0.70997667712E+02 -0.10599038622E+03  0.12773043592E+03  0.47000000000E+01 0.  1.
         13    1    4    4    0    0  0.51151596850E+01 -0.18743580122E+02 -0.49271641451E+02  0.52963962330E+02  0.00000000000E+00 0. -1.
        -14    1    4    4    0    0  0.56831354027E+01  0.78131465147E+02 -0.19444623752E+03  0.20963340183E+03  0.00000000000E+00 0.  1.
</event>
<event>
12    1  0.1035051E+000  0.2651249E+03  0.7818608E-02  0.1104759E+00
         21   -1    0    0  503  502  0.00000000000E+00  0.00000000000E+00  0.55927170092E+03  0.55927170092E+03  0.00000000000E+00 0. -1.
         21   -1    0    0  501  503 -0.00000000000E+00 -0.00000000000E+00 -0.12563944541E+03  0.12563944541E+03  0.00000000000E+00 0.  1.
          6    2    1    2  501    0  0.19161679724E+03 -0.48072405366E+02  0.26237200665E+03  0.37300170166E+03  0.17681415788E+03 0.  0.
         24    2    3    3    0    0  0.59706523735E+02 -0.26102034556E+01  0.18961761744E+03  0.21557736045E+03  0.83349117295E+02 0.  0.
         -6    2    1    2    0  502 -0.19161679724E+03  0.48072405366E+02  0.17126024886E+03  0.31190944467E+03  0.17008667113E+03 0.  0.
        -24    2    5    5    0    0 -0.17687910712E+03  0.11507980488E+02  0.66560477225E+02  0.19993494375E+03  0.64226415549E+02 0.  0.
          5    1    3    3  501    0  0.13191027350E+03 -0.45462201911E+02  0.72754389208E+02  0.15742434122E+03  0.47000000000E+01 0. -1.
        -11    1    4    4    0    0  0.10850331754E+02 -0.31330717355E+02  0.25139313717E+02  0.41609237476E+02  0.00000000000E+00 0.  1.
         12    1    4    4    0    0  0.48856191981E+02  0.28720513899E+02  0.16447830373E+03  0.17396812297E+03  0.00000000000E+00 0. -1.
         -5    1    5    5    0  502 -0.14737690120E+02  0.36564424878E+02  0.10469977163E+03  0.11197450092E+03  0.47000000000E+01 0.  1.
         11    1    6    6    0    0 -0.36547257152E+02 -0.11677917861E+02  0.39655637684E+02  0.55178305257E+02  0.00000000000E+00 0. -1.
        -12    1    6    6    0    0 -0.14033184997E+03  0.23185898350E+02  0.26904839542E+02  0.14475663849E+03  0.00000000000E+00 0.  1.
</event>
<event>
12    1  0.1035051E+000  0.2514637E+03  0.7818608E-02  0.1113048E+00
         21   -1    0    0  503  502  0.00000000000E+00  0.00000000000E+00  0.33805634368E+02  0.33805634368E+02  0.00000000000E+00 0. -1.
         21   -1    0    0  501  503 -0.00000000000E+00 -0.00000000000E+00 -0.18834971047E+04  0.18834971047E+04  0.00000000000E+00 0. -1.
          6    2    1    2  501    0 -0.16567398365E+03 -0.62453124605E+02 -0.78576018745E+03  0.82501700595E+03  0.17856574781E+03 0.  0.
         24    2    3    3    0    0 -0.17098624313E+03 -0.99066201187E+02 -0.69194435882E+03  0.72406039557E+03  0.80162666947E+02 0.  0.
         -6    2    1    2    0  502  0.16567398365E+03  0.62453124605E+02 -0.10639312829E+04  0.10922857331E+04  0.17259804881E+03 0.  0.
        -24    2    5    5    0    0  0.56954061368E+02  0.19565803199E+01 -0.24203710115E+03  0.26101442402E+03  0.79366100443E+02 0.  0.
          5    1    3    3  501    0  0.53122594834E+01  0.36613076582E+02 -0.93815828633E+02  0.10095661038E+03  0.47000000000E+01 0. -1.
        -11    1    4    4    0    0 -0.97695809829E+02 -0.57366094340E+02 -0.25471713042E+03  0.27877617647E+03  0.00000000000E+00 0.  1.
         12    1    4    4    0    0 -0.73290433303E+02 -0.41700106847E+02 -0.43722722840E+03  0.44528421910E+03  0.00000000000E+00 0. -1.
         -5    1    5    5    0  502  0.10871992228E+03  0.60496544285E+02 -0.82189418175E+03  0.83127130912E+03  0.47000000000E+01 0.  1.
         13    1    6    6    0    0  0.23235782249E+02 -0.36420085694E+02 -0.77477734773E+02  0.88708080828E+02  0.00000000000E+00 0. -1.
        -14    1    6    6    0    0  0.33718279119E+02  0.38376666014E+02 -0.16455936638E+03  0.17230634319E+03  0.00000000000E+00 0.  1.
</event>
<event>
12    1  0.1035051E+000  0.3552294E+03  0.7818608E-02  0.1060493E+00
         21   -1    0    0  501  502  0.00000000000E+00  0.00000000000E+00  0.15781489500E+03  0.15781489500E+03  0.00000000000E+00 0. -1.
         21   -1    0    0  502  503 -0.00000000000E+00 -0.00000000000E+00 -0.80478927215E+03  0.80478927215E+03  0.00000000000E+00 0. -1.
         -6    2    1    2    0  503  0.17357339963E+03 -0.25681862276E+03 -0.28453353266E+03  0.45513429152E+03  0.17350608651E+03 0.  0.
        -24    2    3    3    0    0  0.58298728826E+02 -0.20465062998E+03 -0.20369911041E+03  0.30491430943E+03  0.78732371850E+02 0.  0.
          6    2    1    2  501    0 -0.17357339963E+03  0.25681862276E+03 -0.36244084449E+03  0.50746987563E+03  0.17343234664E+03 0.  0.
         24    2    5    5    0    0 -0.13847817516E+02  0.75243942674E+02 -0.13608178229E+03  0.17619636164E+03  0.81691452580E+02 0.  0.
          5    1    5    5  501    0 -0.15972558212E+03  0.18157468009E+03 -0.22635906220E+03  0.33127351399E+03  0.47000000000E+01 0. -1.
        -13    1    6    6    0    0 -0.29621784626E+02  0.74702406069E+02 -0.13860151790E+03  0.16021323404E+03  0.00000000000E+00 0.  1.
         14    1    6    6    0    0  0.15773967110E+02  0.54153660497E+00  0.25197356122E+01  0.15983127599E+02  0.00000000000E+00 0. -1.
         -5    1    3    3    0  503  0.11527467081E+03 -0.52167992774E+02 -0.80834422250E+02  0.15021998209E+03  0.47000000000E+01 0.  1.
         11    1    4    4    0    0 -0.79817364342E+01 -0.16514667885E+02 -0.49509119063E+02  0.52797682168E+02  0.00000000000E+00 0. -1.
        -12    1    4    4    0    0  0.66280465261E+02 -0.18813596210E+03 -0.15418999134E+03  0.25211662726E+03  0.00000000000E+00 0.  1.
</event>
<event>
12    1  0.1035051E+000  0.1776183E+03  0.7818608E-02  0.1170204E+00
         21   -1    0    0  501  502  0.00000000000E+00  0.00000000000E+00  0.33425570902E+02  0.33425570902E+02  0.00000000000E+00 0. -1.
         21   -1    0    0  502  503 -0.00000000000E+00 -0.00000000000E+00 -0.10688051628E+04  0.10688051628E+04  0.00000000000E+00 0. -1.
         -6    2    1    2    0  503 -0.16451764056E+02 -0.35993577059E+02 -0.32841139621E+03  0.37336618440E+03  0.17315329729E+03 0.  0.
        -24    2    3    3    0    0 -0.43262543497E+02 -0.79832277917E+02 -0.27852438933E+03  0.30159256081E+03  0.71675637567E+02 0.  0.
          6    2    1    2  501    0  0.16451764056E+02  0.35993577059E+02 -0.70696819569E+03  0.72886454931E+03  0.17283895215E+03 0.  0.
         24    2    5    5    0    0  0.10733474218E+02  0.23462081578E+02 -0.15259617568E+03  0.17430151070E+03  0.80185703576E+02 0.  0.
          5    1    5    5  501    0  0.57182898380E+01  0.12531495481E+02 -0.55437202001E+03  0.55456303861E+03  0.47000000000E+01 0. -1.
        -13    1    6    6    0    0  0.16477824602E+02 -0.18266057876E+02 -0.11694182384E+02  0.27238235544E+02  0.00000000000E+00 0.  1.
         14    1    6    6    0    0 -0.57443503844E+01  0.41728139454E+02 -0.14090199330E+03  0.14706327515E+03  0.00000000000E+00 0. -1.
         -5    1    3    3    0  503  0.26810779441E+02  0.43838700859E+02 -0.49887006883E+02  0.71773623588E+02  0.47000000000E+01 0.  1.
         13    1    4    4    0    0 -0.54067642101E+02 -0.63697903514E+02 -0.15078573049E+03  0.17238639550E+03  0.00000000000E+00 0. -1.
        -14    1    4    4    0    0  0.10805098604E+02 -0.16134374404E+02 -0.12773865884E+03  0.12920616531E+03  0.00000000000E+00 0.  1.
</event>
<event>
12    1  0.1035051E+000  0.2023748E+03  0.7818608E-02  0.1148052E+00
         21   -1    0    0  503  502  0.00000000000E+00  0.00000000000E+00  0.18536329422E+04  0.18536329422E+04  0.00000000000E+00 0.  1.
         21   -1    0    0  501  503 -0.00000000000E+00 -0.00000000000E+00 -0.30116100496E+02  0.30116100496E+02  0.00000000000E+00 0.  1.
          6    2    1    2  501    0 -0.15066188465E+02 -0.10293243711E+03  0.14002143422E+04  0.14145576685E+04  0.17190438264E+03 0.  0.
         24    2    3    3    0    0 -0.33493113953E+01 -0.21343233589E+02  0.34850203640E+03  0.35960982737E+03  0.86016318560E+02 0.  0.
         -6    2    1    2    0  502  0.15066188465E+02  0.10293243711E+03  0.42330249948E+03  0.46919137417E+03  0.17358992738E+03 0.  0.
        -24    2    5    5    0    0  0.15885583287E+02  0.14038748874E+03  0.36677803026E+03  0.40121595273E+03  0.80542650114E+02 0.  0.
          5    1    3    3  501    0 -0.11716877069E+02 -0.81589203517E+02  0.10517123058E+04  0.10549478411E+04  0.47000000000E+01 0. -1.
        -11    1    4    4    0    0 -0.23287115620E+02 -0.29790385261E+02  0.64372481318E+02  0.74656367169E+02  0.00000000000E+00 0.  1.
         12    1    4    4    0    0  0.19937804224E+02  0.84471516726E+01  0.28412955508E+03  0.28495346020E+03  0.00000000000E+00 0. -1.
         -5    1    5    5    0  502 -0.81939482236E+00 -0.37455051631E+02  0.56524469220E+02  0.67975421449E+02  0.47000000000E+01 0.  1.
         13    1    6    6    0    0  0.43319345396E+02  0.91051120608E+02  0.18270734536E+03  0.20868360332E+03  0.00000000000E+00 0. -1.
        -14    1    6    6    0    0 -0.27433762109E+02  0.49336368129E+02  0.18407068491E+03  0.19253234940E+03  0.00000000000E+00 0.  1.
</event>
<event>
12    1  0.1035051E+000  0.1760553E+03  0.7818608E-02  0.1171752E+00
         21   -1    0    0  501  502  0.00000000000E+00  0.00000000000E+00  0.11220162749E+03  0.11220162749E+03  0.00000000000E+00 0. -1.
         21   -1    0    0  502  503 -0.00000000000E+00 -0.00000000000E+00 -0.27660711626E+03  0.27660711626E+03  0.00000000000E+00 0. -1.
         -6    2    1    2    0  503 -0.30604752889E+02  0.17147685450E+02 -0.92963261981E+02  0.19909200932E+03  0.17252468253E+03 0.  0.
        -24    2    3    3    0    0 -0.11706084895E+02 -0.11205922670E+01  0.18982180715E+02  0.84006120688E+02  0.80984053849E+02 0.  0.
          6    2    1    2  501    0  0.30604752889E+02 -0.17147685450E+02 -0.71442226787E+02  0.18971673443E+03  0.17221426637E+03 0.  0.
         24    2    5    5    0    0  0.18387873773E+02 -0.35232858186E+02 -0.11151275130E+03  0.14384667292E+03  0.81714768619E+02 0.  0.
          5    1    5    5  501    0  0.12216879117E+02  0.18085172736E+02  0.40070524513E+02  0.45870061510E+02  0.47000000000E+01 0. -1.
        -11    1    6    6    0    0  0.22426750460E+02 -0.50851214757E+02 -0.35062481044E+02  0.65712881199E+02  0.00000000000E+00 0.  1.
         12    1    6    6    0    0 -0.40388766877E+01  0.15618356571E+02 -0.76450270256E+02  0.78133791723E+02  0.00000000000E+00 0. -1.
         -5    1    3    3    0  503 -0.18898667995E+02  0.18268277717E+02 -0.11194544270E+03  0.11508588864E+03  0.47000000000E+01 0.  1.
         13    1    4    4    0    0 -0.35479210724E+02 -0.24036845046E+02 -0.50715549393E+01  0.43153968333E+02  0.00000000000E+00 0. -1.
        -14    1    4    4    0    0  0.23773125830E+02  0.22916252779E+02  0.24053735654E+02  0.40852152355E+02  0.00000000000E+00 0.  1.
</event>
<event>
12    1  0.1035051E+000  0.2586454E+03  0.7818608E-02  0.1110168E+00
         21   -1    0    0  501  502  0.00000000000E+00  0.00000000000E+00  0.59741205332E+03  0.59741205332E+03  0.00000000000E+00 0. -1.
         21   -1    0    0  502  503 -0.00000000000E+00 -0.00000000000E+00 -0.10804387601E+03  0.10804387601E+03  0.00000000000E+00 0. -1.
         -6    2    1    2    0  503  0.68753005639E+02  0.16324151100E+03  0.18859046609E+03  0.30876378806E+03  0.16850503322E+03 0.  0.
        -24    2    3    3    0    0 -0.35516934596E+02  0.90960821561E+02  0.86179032592E+02  0.14564754052E+03  0.65200128054E+02 0.  0.
          6    2    1    2  501    0 -0.68753005639E+02 -0.16324151100E+03  0.30077771123E+03  0.39669214127E+03  0.18847455179E+03 0.  0.
         24    2    5    5    0    0 -0.63348443697E+01 -0.19552657209E+02  0.18427995405E+03  0.20140688583E+03  0.78633297915E+02 0.  0.
          5    1    5    5  501    0 -0.62418161270E+02 -0.14368885380E+03  0.11649775718E+03  0.19528525543E+03  0.47000000000E+01 0. -1.
        -11    1    6    6    0    0 -0.15742377696E+02 -0.48356287188E+02  0.11011824539E+03  0.12129377946E+03  0.00000000000E+00 0.  1.
         12    1    6    6    0    0  0.94075333264E+01  0.28803629979E+02  0.74161708652E+02  0.80113106377E+02  0.00000000000E+00 0. -1.
         -5    1    3    3    0  503  0.10426994023E+03  0.72280689443E+02  0.10241143349E+03  0.16311624755E+03  0.47000000000E+01 0.  1.
         13    1    4    4    0    0 -0.20498917109E+02  0.43419482235E+01  0.42717448384E+02  0.47579812037E+02  0.00000000000E+00 0. -1.
        -14    1    4    4    0    0 -0.15018017486E+02  0.86618873338E+02  0.43461584208E+02  0.98067728481E+02  0.00000000000E+00 0.  1.
</event>
<event>
12    1  0.1035051E+000  0.2615661E+03  0.7818608E-02  0.1107256E+00
         21   -1    0    0  501  502  0.00000000000E+00  0.00000000000E+00  0.62553001047E+03  0.62553001047E+03  0.00000000000E+00 0.  1.
         21   -1    0    0  502  503 -0.00000000000E+00 -0.00000000000E+00 -0.10814141302E+03  0.10814141302E+03  0.00000000000E+00 0.  1.
         -6    2    1    2    0  503 -0.99189604696E+02  0.15959059966E+03  0.21679036731E+03  0.33972764979E+03  0.18195899399E+03 0.  0.
        -24    2    3    3    0    0 -0.89792506137E+01  0.15042816656E+03  0.14645458409E+03  0.22487526381E+03  0.80066714914E+02 0.  0.
          6    2    1    2  501    0  0.99189604696E+02 -0.15959059966E+03  0.30059823014E+03  0.39394377369E+03  0.17182742415E+03 0.  0.
         24    2    5    5    0    0  0.20194104571E+02 -0.68328872863E+02  0.22134560032E+03  0.24947211159E+03  0.90364943167E+02 0.  0.
          5    1    5    5  501    0  0.78995500125E+02 -0.91261726798E+02  0.79252629823E+02  0.14447166211E+03  0.47000000000E+01 0. -1.
        -13    1    6    6    0    0  0.29621513585E+02 -0.11587549901E+02  0.16812819030E+03  0.17111047237E+03  0.00000000000E+00 0.  1.
         14    1    6    6    0    0 -0.94274090146E+01 -0.56741322961E+02  0.53217410012E+02  0.78361639215E+02  0.00000000000E+00 0. -1.
         -5    1    3    3    0  503 -0.90210354082E+02  0.91624331048E+01  0.70335783223E+02  0.11485238598E+03  0.47000000000E+01 0.  1.
         11    1    4    4    0    0  0.29672035242E+02  0.35619749640E+02  0.22411276330E+02  0.51492344543E+02  0.00000000000E+00 0. -1.
        -12    1    4    4    0    0 -0.38651285856E+02  0.11480841692E+03  0.12404330776E+03  0.17338291926E+03  0.00000000000E+00 0.  1.
</event>
<event>
12    1  0.1035051E+000  0.1958039E+03  0.7818608E-02  0.1154023E+00
         21   -1    0    0  503  502  0.00000000000E+00  0.00000000000E+00  0.10714006021E+04  0.10714006021E+04  0.00000000000E+00 0. -1.
         21   -1    0    0  501  503 -0.00000000000E+00 -0.00000000000E+00 -0.37374252527E+02  0.37374252527E+02  0.00000000000E+00 0. -1.
          6    2    1    2  501    0  0.81631556143E+02 -0.46400414308E+02  0.38747450484E+03  0.43413782777E+03  0.17182098880E+03 0.  0.
         24    2    3    3    0    0  0.56761993207E+02 -0.85573949479E+02  0.35115382042E+03  0.37502485850E+03  0.82400328874E+02 0.  0.
         -6    2    1    2    0  502 -0.81631556143E+02  0.46400414308E+02  0.64655184475E+03  0.67463702687E+03  0.16819369987E+03 0.  0.
        -24    2    5    5    0    0 -0.39772261906E+01  0.49464131008E+01  0.15024388559E+03  0.17056132869E+03  0.80483888802E+02 0.  0.
          5    1    3    3  501    0  0.24869562937E+02  0.39173535172E+02  0.36320684426E+02  0.59112969268E+02  0.47000000000E+01 0. -1.
        -11    1    4    4    0    0  0.56674076454E+02 -0.26819863884E+02  0.25278914941E+03  0.26044886274E+03  0.00000000000E+00 0.  1.
         12    1    4    4    0    0  0.87916752229E-01 -0.58754085595E+02  0.98364671005E+02  0.11457599576E+03  0.00000000000E+00 0. -1.
         -5    1    5    5    0  502 -0.77654329953E+02  0.41454001207E+02  0.49630795916E+03  0.50407569818E+03  0.47000000000E+01 0.  1.
         13    1    6    6    0    0  0.28398251964E+02 -0.23154640336E+02  0.54674975986E+02  0.65817559077E+02  0.00000000000E+00 0. -1.
        -14    1    6    6    0    0 -0.32375478155E+02  0.28101053437E+02  0.95568909604E+02  0.10474376961E+03  0.00000000000E+00 0.  1.
</event>
<event>
12    1  0.1035051E+000  0.2144461E+03  0.7818608E-02  0.1138857E+00
         21   -1    0    0  501  502  0.00000000000E+00  0.00000000000E+00  0.23815783891E+03  0.23815783891E+03  0.00000000000E+00 0.  1.
         21   -1    0    0  502  503 -0.00000000000E+00 -0.00000000000E+00 -0.25221547047E+03  0.25221547047E+03  0.00000000000E+00 0.  1.
         -6    2    1    2    0  503 -0.12201450875E+03  0.17260797700E+02  0.11511018816E+03  0.24338754572E+03  0.17550403560E+03 0.  0.
        -24    2    3    3    0    0 -0.57532978002E+02 -0.34287905504E+02  0.26473611317E+01  0.10379845563E+03  0.79255326938E+02 0.  0.
          6    2    1    2  501    0  0.12201450875E+03 -0.17260797700E+02 -0.12916781972E+03  0.24698576366E+03  0.17068147620E+03 0.  0.
         24    2    5    5    0    0  0.15031604750E+03 -0.23829255135E+02 -0.13277860499E+03  0.21733362210E+03  0.80255827307E+02 0.  0.
          5    1    5    5  501    0 -0.28301538747E+02  0.65684574347E+01  0.36107852774E+01  0.29652141556E+02  0.47000000000E+01 0. -1.
        -11    1    6    6    0    0  0.29880800763E+02 -0.14962510672E+01  0.77597757155E+01  0.30908172716E+02  0.00000000000E+00 0.  1.
         12    1    6    6    0    0  0.12043524674E+03 -0.22333004067E+02 -0.14053838071E+03  0.18642544939E+03  0.00000000000E+00 0. -1.
         -5    1    3    3    0  503 -0.64481530750E+02  0.51548703204E+02  0.11246282703E+03  0.13958909010E+03  0.47000000000E+01 0.  1.
         11    1    4    4    0    0 -0.62637688567E+02 -0.20112139051E+02  0.30205660175E+02  0.72390331349E+02  0.00000000000E+00 0. -1.
        -12    1    4    4    0    0  0.51047105657E+01 -0.14175766453E+02 -0.27558299043E+02  0.31408124278E+02  0.00000000000E+00 0.  1.
</event>
<event>
12    1  0.1035051E+000  0.1757078E+03  0.7818608E-02  0.1172141E+00
         21   -1    0    0  501  502  0.00000000000E+00  0.00000000000E+00  0.80838501455E+02  0.80838501455E+02  0.00000000000E+00 0. -1.
         21   -1    0    0  502  503 -0.00000000000E+00 -0.00000000000E+00 -0.38688091366E+03  0.38688091366E+03  0.00000000000E+00 0. -1.
         -6    2    1    2    0  503 -0.23439763241E+02  0.23440872539E+02 -0.18191933140E+03  0.25259209064E+03  0.17207331028E+03 0.  0.
        -24    2    3    3    0    0 -0.55340103903E+02  0.64745054830E+02 -0.92156104700E+02  0.14865367581E+03  0.79691395227E+02 0.  0.
          6    2    1    2  501    0  0.23439763241E+02 -0.23440872539E+02 -0.12412308080E+03  0.21512732447E+03  0.17255239651E+03 0.  0.
         24    2    5    5    0    0  0.12418954335E+02 -0.11294272263E+02  0.10872203577E+02  0.79058169516E+02  0.76486589307E+02 0.  0.
          5    1    5    5  501    0  0.11020808906E+02 -0.12146600276E+02 -0.13499528438E+03  0.13606915496E+03  0.47000000000E+01 0. -1.
        -13    1    6    6    0    0  0.31472472607E+02 -0.35158726201E+02  0.18831436745E+01  0.47224980573E+02  0.00000000000E+00 0.  1.
         14    1    6    6    0    0 -0.19053518272E+02  0.23864453938E+02  0.89890599027E+01  0.31833188942E+02  0.00000000000E+00 0. -1.
         -5    1    3    3    0  503  0.31900340662E+02 -0.41304182292E+02 -0.89763226703E+02  0.10393841483E+03  0.47000000000E+01 0.  1.
         13    1    4    4    0    0 -0.20737159766E+02 -0.98464538434E+01  0.27054262977E+01  0.23114968741E+02  0.00000000000E+00 0. -1.
        -14    1    4    4    0    0 -0.34602944137E+02  0.74591508674E+02 -0.94861530998E+02  0.12553870707E+03  0.00000000000E+00 0.  1.
</event>
<event>
12    1  0.1035051E+000  0.3437556E+03  0.7818608E-02  0.1065454E+00
         21   -1    0    0  503  502  0.00000000000E+00  0.00000000000E+00  0.19908608969E+04  0.19908608969E+04  0.00000000000E+00 0.  1.
         21   -1    0    0  501  503 -0.00000000000E+00 -0.00000000000E+00 -0.59186985779E+02  0.59186985779E+02  0.00000000000E+00 0.  1.
          6    2    1    2  501    0  0.12914641108E+03  0.26836871224E+03  0.89806846314E+03  0.96077833157E+03  0.16693554662E+03 0.  0.
         24    2    3    3    0    0  0.63356058108E+02  0.21334826531E+03  0.49237883466E+03  0.54609557960E+03  0.79069544266E+02 0.  0.
         -6    2    1    2    0  502 -0.12914641108E+03 -0.26836871224E+03  0.10336054479E+04  0.10892695511E+04  0.17166062933E+03 0.  0.
        -24    2    5    5    0    0 -0.74583833630E+02 -0.11219734613E+03  0.31026172009E+03  0.34723531393E+03  0.78479523280E+02 0.  0.
          5    1    3    3  501    0  0.65790352968E+02  0.55020446932E+02  0.40568962848E+03  0.41468275197E+03  0.47000000000E+01 0. -1.
        -11    1    4    4    0    0  0.58613945910E+02  0.64371680899E+02  0.17499718906E+03  0.19545670655E+03  0.00000000000E+00 0.  1.
         12    1    4    4    0    0  0.47421121972E+01  0.14897658441E+03  0.31738164560E+03  0.35063887305E+03  0.00000000000E+00 0. -1.
         -5    1    5    5    0  502 -0.54562577445E+02 -0.15617136612E+03  0.72334372786E+03  0.74203423714E+03  0.47000000000E+01 0.  1.
         11    1    6    6    0    0 -0.65123256309E+02 -0.52454784797E+02  0.24195049518E+03  0.25599333015E+03  0.00000000000E+00 0. -1.
        -12    1    6    6    0    0 -0.94605773217E+01 -0.59742561329E+02  0.68311224904E+02  0.91241983787E+02  0.00000000000E+00 0.  1.
</event>
<event>
12    1  0.1035051E+000  0.3983177E+03  0.7818608E-02  0.1044378E+00
         21   -1    0    0  503  502  0.00000000000E+00  0.00000000000E+00  0.15961675946E+04  0.15961675946E+04  0.00000000000E+00 0. -1.
         21   -1    0    0  501  503 -0.00000000000E+00 -0.00000000000E+00 -0.99634463555E+02  0.99634463555E+02  0.00000000000E+00 0. -1.
          6    2    1    2  501    0 -0.31808712169E+03 -0.16612645874E+03  0.70364192787E+03  0.80855981324E+03  0.17285714232E+03 0.  0.
         24    2    3    3    0    0 -0.32251954968E+03 -0.16836604646E+03  0.70825602611E+03  0.80031105129E+03  0.80654787690E+02 0.  0.
         -6    2    1    2    0  502  0.31808712169E+03  0.16612645874E+03  0.79289120319E+03  0.88724224493E+03  0.17246716736E+03 0.  0.
        -24    2    5    5    0    0  0.51031272815E+02  0.15231959416E+02  0.20158343535E+03  0.22109290533E+03  0.73552620530E+02 0.  0.
          5    1    3    3  501    0  0.44324279955E+01  0.22395877233E+01 -0.46140982361E+01  0.82487619458E+01  0.47000000000E+01 0. -1.
        -13    1    4    4    0    0 -0.30613114014E+03 -0.13334617590E+03  0.62967651452E+03  0.71273416540E+03  0.00000000000E+00 0.  1.
         14    1    4    4    0    0 -0.16388409541E+02 -0.35019870561E+02  0.78579511584E+02  0.87576885890E+02  0.00000000000E+00 0. -1.
         -5    1    5    5    0  502  0.26705584887E+03  0.15089449932E+03  0.59130776783E+03  0.66614933960E+03  0.47000000000E+01 0.  1.
         11    1    6    6    0    0 -0.14988725811E+02  0.14921319825E+02  0.26051705577E+02  0.33555909319E+02  0.00000000000E+00 0. -1.
        -12    1    6    6    0    0  0.66019998626E+02  0.31063959091E+00  0.17553172978E+03  0.18753699601E+03  0.00000000000E+00 0.  1.
</event>
<event>
12    1  0.1035051E+000  0.2635848E+03  0.7818608E-02  0.1106347E+00
         21   -1    0    0  501  502  0.00000000000E+00  0.00000000000E+00  0.80639732559E+02  0.80639732559E+02  0.00000000000E+00 0. -1.
         21   -1    0    0  502  503 -0.00000000000E+00 -0.00000000000E+00 -0.11735764728E+04  0.11735764728E+04  0.00000000000E+00 0. -1.
         -6    2    1    2    0  503  0.17184389834E+03  0.78649856840E+02 -0.89106346377E+03  0.92923141470E+03  0.18374112282E+03 0.  0.
        -24    2    3    3    0    0  0.73940800976E+02 -0.63842569694E+01 -0.21235060264E+03  0.23822558632E+03  0.78426084632E+02 0.  0.
          6    2    1    2  501    0 -0.17184389834E+03 -0.78649856840E+02 -0.20187327650E+03  0.32498479069E+03  0.17072249130E+03 0.  0.
         24    2    5    5    0    0 -0.14251465201E+03 -0.81963894518E+02 -0.22351477503E+03  0.28808449266E+03  0.77493962442E+02 0.  0.
          5    1    5    5  501    0 -0.29329246335E+02  0.33140376782E+01  0.21641498526E+02  0.36900298030E+02  0.47000000000E+01 0. -1.
        -13    1    6    6    0    0 -0.12124889335E+03 -0.29985829050E+02 -0.14225497094E+03  0.18930642049E+03  0.00000000000E+00 0.  1.
         14    1    6    6    0    0 -0.21265758658E+02 -0.51978065468E+02 -0.81259804089E+02  0.98778072170E+02  0.00000000000E+00 0. -1.
         -5    1    3    3    0  503  0.97903097366E+02  0.85034113810E+02 -0.67871286113E+03  0.69100582837E+03  0.47000000000E+01 0.  1.
         11    1    4    4    0    0 -0.61939713544E+01  0.18778622166E+02 -0.19014084455E+02  0.27432414025E+02  0.00000000000E+00 0. -1.
        -12    1    4    4    0    0  0.80134772331E+02 -0.25162879135E+02 -0.19333651819E+03  0.21079317230E+03  0.00000000000E+00 0.  1.
</event>
<event>
12    1  0.1035051E+000  0.6005388E+03  0.7818608E-02  0.9904350E-01
         21   -1    0    0  503  502  0.00000000000E+00  0.00000000000E+00  0.17056683603E+04  0.17056683603E+04  0.00000000000E+00 0.  1.
         21   -1    0    0  501  503 -0.00000000000E+00 -0.00000000000E+00 -0.21598690315E+03  0.21598690315E+03  0.00000000000E+00 0.  1.
          6    2    1    2  501    0  0.19058745102E+02 -0.57478695659E+03  0.88480942408E+03  0.10692955665E+04  0.17251669574E+03 0.  0.
         24    2    3    3    0    0  0.73410071960E+02 -0.31614580698E+03  0.44591674822E+03  0.55694980243E+03  0.77550797255E+02 0.  0.
         -6    2    1    2    0  502 -0.19058745102E+02  0.57478695659E+03  0.60487203305E+03  0.85235969695E+03  0.17292656065E+03 0.  0.
        -24    2    5    5    0    0  0.14707810622E+02  0.38951587431E+03  0.31792718318E+03  0.50910324605E+03  0.78546071192E+02 0.  0.
          5    1    3    3  501    0 -0.54351326858E+02 -0.25864114961E+03  0.43889267586E+03  0.51234576404E+03  0.47000000000E+01 0. -1.
        -13    1    4    4    0    0  0.20978637254E+02 -0.27298679355E+02  0.20487463295E+02  0.40063165974E+02  0.00000000000E+00 0.  1.
         14    1    4    4    0    0  0.52431434706E+02 -0.28884712762E+03  0.42542928492E+03  0.51688663646E+03  0.00000000000E+00 0. -1.
         -5    1    5    5    0  502 -0.33766555725E+02  0.18527108228E+03  0.28694484987E+03  0.34325645090E+03  0.47000000000E+01 0.  1.
         13    1    6    6    0    0 -0.60994303172E+00  0.73766620503E+02  0.24341315248E+02  0.77681310230E+02  0.00000000000E+00 0. -1.
        -14    1    6    6    0    0  0.15317753654E+02  0.31574925381E+03  0.29358586793E+03  0.43142193582E+03  0.00000000000E+00 0.  1.
</event>
<event>
12    1  0.1035051E+000  0.2367357E+03  0.7818608E-02  0.1122965E+00
         21   -1    0    0  503  502  0.00000000000E+00  0.00000000000E+00  0.73954904150E+02  0.73954904150E+02  0.00000000000E+00 0.  1.
         21   -1    0    0  501  503 -0.00000000000E+00 -0.00000000000E+00 -0.88235759798E+03  0.88235759798E+03  0.00000000000E+00 0.  1.
          6    2    1    2  501    0  0.43332271119E+02  0.14815993904E+03 -0.60059261427E+03  0.64556585758E+03  0.17948463696E+03 0.  0.
         24    2    3    3    0    0  0.46049931342E+02  0.17374565392E+03 -0.43033253985E+03  0.47330849946E+03  0.80787946996E+02 0.  0.
         -6    2    1    2    0  502 -0.43332271119E+02 -0.14815993904E+03 -0.20781007956E+03  0.31074664455E+03  0.17189937369E+03 0.  0.
        -24    2    5    5    0    0  0.33121335324E+02 -0.88479347730E+02 -0.15849251688E+03  0.20183732949E+03  0.81809607276E+02 0.  0.
          5    1    3    3  501    0 -0.27176602230E+01 -0.25585714888E+02 -0.17026007443E+03  0.17225735812E+03  0.47000000000E+01 0. -1.
        -11    1    4    4    0    0  0.46108158998E+01  0.17706712518E+02 -0.13928087893E+03  0.14047758016E+03  0.00000000000E+00 0.  1.
         12    1    4    4    0    0  0.41439115442E+02  0.15603894141E+03 -0.29105166092E+03  0.33283091931E+03  0.00000000000E+00 0. -1.
         -5    1    5    5    0  502 -0.76453606442E+02 -0.59680591306E+02 -0.49317562684E+02  0.10890931506E+03  0.47000000000E+01 0.  1.
         11    1    6    6    0    0  0.45557342391E+02 -0.22601647456E+02 -0.36368262231E+02  0.62521647540E+02  0.00000000000E+00 0. -1.
        -12    1    6    6    0    0 -0.12436007067E+02 -0.65877700274E+02 -0.12212425465E+03  0.13931568195E+03  0.00000000000E+00 0.  1.
</event>
<event>
12    1  0.1035051E+000  0.2673122E+03  0.7818608E-02  0.1103037E+00
         21   -1    0    0  501  502  0.00000000000E+00  0.00000000000E+00  0.12018259275E+03  0.12018259275E+03  0.00000000000E+00 0. -1.
         21   -1    0    0  502  503 -0.00000000000E+00 -0.00000000000E+00 -0.68546537523E+03  0.68546537523E+03  0.00000000000E+00 0. -1.
         -6    2    1    2    0  503 -0.94951339469E+02  0.17986411594E+03 -0.43123447012E+03  0.50660824880E+03  0.17123636430E+03 0.  0.
        -24    2    3    3    0    0 -0.10708470308E+03  0.13834296428E+03 -0.22538452217E+03  0.29620978013E+03  0.79599884472E+02 0.  0.
          6    2    1    2  501    0  0.94951339469E+02 -0.17986411594E+03 -0.13404831236E+03  0.29903971919E+03  0.17346165725E+03 0.  0.
         24    2    5    5    0    0  0.14052131992E+02 -0.87030439993E+02 -0.18743811547E+01  0.11833329636E+03  0.78914484248E+02 0.  0.
          5    1    5    5  501    0  0.80899207477E+02 -0.92833675943E+02 -0.13217393121E+03  0.18070642283E+03  0.47000000000E+01 0. -1.
        -11    1    6    6    0    0  0.24024654544E+02 -0.99399825711E+02 -0.37726814518E+01  0.10233153230E+03  0.00000000000E+00 0.  1.
         12    1    6    6    0    0 -0.99725225518E+01  0.12369385718E+02  0.18983002971E+01  0.16001764062E+02  0.00000000000E+00 0. -1.
         -5    1    3    3    0  503  0.12133363615E+02  0.41521151657E+02 -0.20584994795E+03  0.21039846867E+03  0.47000000000E+01 0.  1.
         11    1    4    4    0    0 -0.99110613396E+02  0.82065300530E+02 -0.18926582691E+03  0.22886498307E+03  0.00000000000E+00 0. -1.
        -12    1    4    4    0    0 -0.79740896870E+01  0.56277663749E+02 -0.36118695261E+02  0.67344797058E+02  0.00000000000E+00 0.  1.
</event>
<event>
12    1  0.1035051E+000  0.1717705E+03  0.7818608E-02  0.1176159E+00
         21   -1    0    0  503  502  0.00000000000E+00  0.00000000000E+00  0.49335533825E+03  0.49335533825E+03  0.00000000000E+00 0.  1.
         21   -1    0    0  501  503 -0.00000000000E+00 -0.00000000000E+00 -0.62392360434E+02  0.62392360434E+02  0.00000000000E+00 0.  1.
          6    2    1    2  501    0 -0.51139259898E+00 -0.72086160862E+00  0.27382938688E+03  0.32294719108E+03  0.17120623219E+03 0.  0.
         24    2    3    3    0    0  0.42511219916E+02  0.17234922571E+02  0.25735958833E+03  0.27328131106E+03  0.79652187025E+02 0.  0.
         -6    2    1    2    0  502  0.51139259898E+00  0.72086160862E+00  0.15713359094E+03  0.23280050761E+03  0.17176824438E+03 0.  0.
        -24    2    5    5    0    0  0.52540824848E+00 -0.64622619274E+02  0.80440126985E+02  0.13193550821E+03  0.82219251528E+02 0.  0.
          5    1    3    3  501    0 -0.43022612515E+02 -0.17955784180E+02  0.16469798551E+02  0.49665880013E+02  0.47000000000E+01 0. -1.
        -11    1    4    4    0    0  0.16979090105E+02  0.19370441697E+02  0.24208681729E+03  0.24345334382E+03  0.00000000000E+00 0.  1.
         12    1    4    4    0    0  0.25532129812E+02 -0.21355191259E+01  0.15272771038E+02  0.29827967243E+02  0.00000000000E+00 0. -1.
         -5    1    5    5    0  502 -0.14015649504E-01  0.65343480883E+02  0.76693463954E+02  0.10086499940E+03  0.47000000000E+01 0.  1.
         13    1    6    6    0    0 -0.33053388745E+01 -0.29142352451E+02  0.90274005265E+02  0.94918902216E+02  0.00000000000E+00 0. -1.
        -14    1    6    6    0    0  0.38307471230E+01 -0.35480266823E+02 -0.98338782792E+01  0.37016605995E+02  0.00000000000E+00 0.  1.
</event>
<event>
12    1  0.1035051E+000  0.2545375E+03  0.7818608E-02  0.1111206E+00
         21   -1    0    0  503  502  0.00000000000E+00  0.00000000000E+00  0.10442345209E+04  0.10442345209E+04  0.00000000000E+00 0. -1.
         21   -1    0    0  501  503 -0.00000000000E+00 -0.00000000000E+00 -0.62772684203E+02  0.62772684203E+02  0.00000000000E+00 0. -1.
          6    2    1    2  501    0 -0.12861663132E+03  0.13538103322E+03  0.58188078319E+03  0.63324104605E+03  0.16594792724E+03 0.  0.
         24    2    3    3    0    0 -0.81324378168E+02  0.15845599647E+03  0.47267039311E+03  0.51192323846E+03  0.83223459745E+02 0.  0.
         -6    2    1    2    0  502  0.12861663132E+03 -0.13538103322E+03  0.39958105346E+03  0.47376615900E+03  0.17297136503E+03 0.  0.
        -24    2    5    5    0    0  0.28297560920E+02 -0.45220262605E+00  0.11131937636E+03  0.14001986360E+03  0.80078725058E+02 0.  0.
          5    1    3    3  501    0 -0.47292253156E+02 -0.23074963257E+02  0.10921039008E+03  0.12131780759E+03  0.47000000000E+01 0. -1.
        -13    1    4    4    0    0 -0.33227645412E+02  0.35113198924E+02  0.23450130373E+03  0.23943240092E+03  0.00000000000E+00 0.  1.
         14    1    4    4    0    0 -0.48096732756E+02  0.12334279755E+03  0.23816908938E+03  0.27249083754E+03  0.00000000000E+00 0. -1.
         -5    1    5    5    0  502  0.10031907040E+03 -0.13492883059E+03  0.28826167710E+03  0.33374629540E+03  0.47000000000E+01 0.  1.
         13    1    6    6    0    0  0.96802618188E+01 -0.31214857943E+02  0.12721760679E+02  0.35070187055E+02  0.00000000000E+00 0. -1.
        -14    1    6    6    0    0  0.18617299101E+02  0.30762655317E+02  0.98597615683E+02  0.10494967654E+03  0.00000000000E+00 0.  1.
</event>
<event>
12    1  0.1035051E+000  0.2489686E+03  0.7818608E-02  0.1114884E+00
         21   -1    0    0  503  502  0.00000000000E+00  0.00000000000E+00  0.15867229883E+04  0.15867229883E+04  0.00000000000E+00 0.  1.
         21   -1    0    0  501  503 -0.00000000000E+00 -0.00000000000E+00 -0.38451106658E+02  0.38451106658E+02  0.00000000000E+00 0.  1.
          6    2    1    2  501    0  0.81329645162E+02 -0.15073484134E+03  0.85291552235E+03  0.88851014113E+03  0.18069277535E+03 0.  0.
         24    2    3    3    0    0  0.10970476610E+03 -0.10960583338E+03  0.45046075373E+03  0.48293810861E+03  0.79156501184E+02 0.  0.
         -6    2    1    2    0  502 -0.81329645162E+02  0.15073484134E+03  0.69535635930E+03  0.73666395383E+03  0.17267834513E+03 0.  0.
        -24    2    5    5    0    0 -0.10814444263E+03  0.15911693038E+03  0.65300557859E+03  0.68562503333E+03  0.81559687620E+02 0.  0.
          5    1    3    3  501    0 -0.28375120939E+02 -0.41129007957E+02  0.40245476861E+03  0.40557203252E+03  0.47000000000E+01 0. -1.
        -13    1    4    4    0    0  0.49658366122E+00  0.59591470773E+01  0.74465097768E+02  0.74704811189E+02  0.00000000000E+00 0.  1.
         14    1    4    4    0    0  0.10920818244E+03 -0.11556498046E+03  0.37599565597E+03  0.40823329743E+03  0.00000000000E+00 0. -1.
         -5    1    5    5    0  502  0.26814797465E+02 -0.83820890372E+01  0.42350780710E+02  0.51038920506E+02  0.47000000000E+01 0.  1.
         11    1    6    6    0    0 -0.83582231303E+02  0.61584344962E+02  0.26020483646E+03  0.28015206201E+03  0.00000000000E+00 0. -1.
        -12    1    6    6    0    0 -0.24562211324E+02  0.97532585416E+02  0.39280074214E+03  0.40547297131E+03  0.00000000000E+00 0.  1.
</event>
<event>
12    1  0.1269403E+000  0.2375490E+03  0.7818608E-02  0.1121715E+00
         21   -1    0    0  503  502  0.00000000000E+00  0.00000000000E+00  0.49100214190E+03  0.49100214190E+03  0.00000000000E+00 0.  1.
         21   -1    0    0  501  503 -0.00000000000E+00 -0.00000000000E+00 -0.82619494314E+03  0.82619494314E+03  0.00000000000E+00 0.  1.
          6    2    1    2  501    0  0.14559982885E+03 -0.56696589353E+02  0.44374133837E+03  0.50332485885E+03  0.17892938482E+03 0.  0.
         24    2    3    3    0    0  0.76174395191E+02 -0.54586046894E+02  0.40601774807E+03  0.42414465619E+03  0.79158717924E+02 0.  0.
         -6    2    1    2    0  502 -0.14559982885E+03  0.56696589353E+02 -0.77893413961E+03  0.81387222618E+03  0.17673650810E+03 0.  0.
        -24    2    5    5    0    0 -0.52517413871E+01 -0.57012707704E+01 -0.21826113325E+03  0.23252259931E+03  0.79804458689E+02 0.  0.
          5    1    3    3  501    0  0.69425433663E+02 -0.21105424590E+01  0.37723590295E+02  0.79180202661E+02  0.47000000000E+01 0. -1.
        -13    1    4    4    0    0 -0.84960904105E+01 -0.28257388355E+02  0.58859373639E+02  0.65841395900E+02  0.00000000000E+00 0.  1.
         14    1    4    4    0    0  0.84670485601E+02 -0.26328658539E+02  0.34715837444E+03  0.35830326029E+03  0.00000000000E+00 0. -1.
         -5    1    5    5    0  502 -0.14034808747E+03  0.62397860123E+02 -0.56067300636E+03  0.58134962687E+03  0.47000000000E+01 0.  1.
         13    1    6    6    0    0 -0.88468105653E+01 -0.14026578355E+02 -0.22206889694E+03  0.22268723795E+03  0.00000000000E+00 0. -1.
        -14    1    6    6    0    0  0.35950691782E+01  0.83253075844E+01  0.38077636905E+01  0.98353613606E+01  0.00000000000E+00 0.  1.
</event>
<event>
12    1  0.1035051E+000  0.2208084E+03  0.7818608E-02  0.1133481E+00
         21   -1    0    0  503  502  0.00000000000E+00  0.00000000000E+00  0.26551907777E+03  0.26551907777E+03  0.00000000000E+00 0. -1.
         21   -1    0    0  501  503 -0.00000000000E+00 -0.00000000000E+00 -0.20562181799E+03  0.20562181799E+03  0.00000000000E+00 0.  1.
          6    2    1    2  501    0  0.58238162620E+02  0.12628499369E+03  0.10847363844E+03  0.24505243051E+03  0.17013106785E+03 0.  0.
         24    2    3    3    0    0  0.10507782900E+03  0.87810443388E+02  0.71690120156E+02  0.17399356347E+03  0.79889064868E+02 0.  0.
         -6    2    1    2    0  502 -0.58238162620E+02 -0.12628499369E+03 -0.48576378660E+02  0.22608846526E+03  0.17151310837E+03 0.  0.
        -24    2    5    5    0    0  0.31544010860E+02 -0.56159351682E+02 -0.45515994598E+02  0.11202751535E+03  0.79558538385E+02 0.  0.
          5    1    3    3  501    0 -0.46839666383E+02  0.38474550299E+02  0.36783518279E+02  0.71058867037E+02  0.47000000000E+01 0. -1.
        -13    1    4    4    0    0  0.74071374900E+02  0.11674233004E+02  0.45520098344E+02  0.87720782310E+02  0.00000000000E+00 0.  1.
         14    1    4    4    0    0  0.31006454103E+02  0.76136210384E+02  0.26170021812E+02  0.86272781162E+02  0.00000000000E+00 0. -1.
         -5    1    5    5    0  502 -0.89782173480E+02 -0.70125642006E+02 -0.30603840619E+01  0.11406094990E+03  0.47000000000E+01 0.  1.
         13    1    6    6    0    0 -0.90851012421E+01 -0.58055146885E+02 -0.39759224792E+02  0.70948820289E+02  0.00000000000E+00 0. -1.
        -14    1    6    6    0    0  0.40629112102E+02  0.18957952036E+01 -0.57567698058E+01  0.41078695065E+02  0.00000000000E+00 0.  1.
</event>
<event>
12    1  0.1035051E+000  0.1863938E+03  0.7818608E-02  0.1162200E+00
         21   -1    0    0  501  502  0.00000000000E+00  0.00000000000E+00  0.53286065059E+03  0.53286065059E+03  0.00000000000E+00 0. -1.
         21   -1    0    0  502  503 -0.00000000000E+00 -0.00000000000E+00 -0.10000589397E+03  0.10000589397E+03  0.00000000000E+00 0. -1.
         -6    2    1    2    0  503  0.64103828899E+02  0.50287980683E+01  0.40416641174E+03  0.44427788208E+03  0.17290968289E+03 0.  0.
        -24    2    3    3    0    0 -0.21364576124E+02  0.13274226131E+02  0.11495269026E+03  0.14255035262E+03  0.80460125788E+02 0.  0.
          6    2    1    2  501    0 -0.64103828899E+02 -0.50287980683E+01  0.28688344883E+02  0.18858866248E+03  0.17495162987E+03 0.  0.
         24    2    5    5    0    0 -0.32240782634E+02 -0.67496667647E+02 -0.56451966301E+01  0.11036864893E+03  0.80957409873E+02 0.  0.
          5    1    5    5  501    0 -0.31863046266E+02  0.62467869578E+02  0.34333541514E+02  0.78220013551E+02  0.47000000000E+01 0. -1.
        -11    1    6    6    0    0 -0.58646856695E+02 -0.46255175219E+02  0.49643530902E+01  0.74857463464E+02  0.00000000000E+00 0.  1.
         12    1    6    6    0    0  0.26406074061E+02 -0.21241492428E+02 -0.10609549720E+02  0.35511185465E+02  0.00000000000E+00 0. -1.
         -5    1    3    3    0  503  0.85468405023E+02 -0.82454280627E+01  0.28921372148E+03  0.30172752946E+03  0.47000000000E+01 0.  1.
         13    1    4    4    0    0 -0.11156914262E+02  0.35058125386E+02  0.14979127974E+02  0.39723081027E+02  0.00000000000E+00 0. -1.
        -14    1    4    4    0    0 -0.10207661862E+02 -0.21783899255E+02  0.99973562282E+02  0.10282727159E+03  0.00000000000E+00 0.  1.
</event>
<event>
12    1  0.1035051E+000  0.1986304E+03  0.7818608E-02  0.1151182E+00
         21   -1    0    0  503  502  0.00000000000E+00  0.00000000000E+00  0.89883054659E+02  0.89883054659E+02  0.00000000000E+00 0. -1.
         21   -1    0    0  501  503 -0.00000000000E+00 -0.00000000000E+00 -0.53365444248E+03  0.53365444248E+03  0.00000000000E+00 0. -1.
          6    2    1    2  501    0 -0.11955223911E+02 -0.96148143887E+02 -0.35583748473E+03  0.40752218934E+03  0.17339730769E+03 0.  0.
         24    2    3    3    0    0  0.38800265045E+02 -0.22840047876E+01 -0.20158809310E+03  0.21990139869E+03  0.78792059362E+02 0.  0.
         -6    2    1    2    0  502  0.11955223911E+02  0.96148143887E+02 -0.87933903086E+02  0.21601530779E+03  0.17188033319E+03 0.  0.
        -24    2    5    5    0    0  0.20484226777E+02 -0.36242840500E-01 -0.76133785161E+02  0.11862170984E+03  0.88629295051E+02 0.  0.
          5    1    3    3  501    0 -0.50755488956E+02 -0.93864139099E+02 -0.15424939163E+03  0.18762079065E+03  0.47000000000E+01 0. -1.
        -11    1    4    4    0    0 -0.39451560919E+01 -0.30616376678E+02 -0.11680451515E+03  0.12081482333E+03  0.00000000000E+00 0.  1.
         12    1    4    4    0    0  0.42745421137E+02  0.28332371891E+02 -0.84783577957E+02  0.99086575359E+02  0.00000000000E+00 0. -1.
         -5    1    5    5    0  502 -0.85290028652E+01  0.96184386727E+02 -0.11800117925E+02  0.97393597957E+02  0.47000000000E+01 0.  1.
         11    1    6    6    0    0  0.28845866037E+02  0.31029502903E+02 -0.75346401228E+02  0.86440697683E+02  0.00000000000E+00 0. -1.
        -12    1    6    6    0    0 -0.83616392604E+01 -0.31065745743E+02 -0.78738393247E+00  0.32181012153E+02  0.00000000000E+00 0.  1.
</event>
<event>
12    1  0.1035051E+000  0.3120251E+03  0.7818608E-02  0.1079491E+00
         21   -1    0    0  503  502  0.00000000000E+00  0.00000000000E+00  0.15313306761E+03  0.15313306761E+03  0.00000000000E+00 0.  1.
         21   -1    0    0  501  503 -0.00000000000E+00 -0.00000000000E+00 -0.83731369402E+03  0.83731369402E+03  0.00000000000E+00 0.  1.
          6    2    1    2  501    0  0.20322443576E+03 -0.16017700381E+03 -0.98375095665E+02  0.32716557297E+03  0.17436401249E+03 0.  0.
         24    2    3    3    0    0  0.31794801505E+02 -0.66460582813E+02 -0.31481899020E+02  0.12060401599E+03  0.90145994014E+02 0.  0.
         -6    2    1    2    0  502 -0.20322443576E+03  0.16017700381E+03 -0.58580553074E+03  0.66328118865E+03  0.17267591476E+03 0.  0.
        -24    2    5    5    0    0 -0.17434116209E+03  0.17530487327E+03 -0.57066293302E+03  0.62702537259E+03  0.79862352604E+02 0.  0.
          5    1    3    3  501    0  0.17142963426E+03 -0.93716420994E+02 -0.66893196644E+02  0.20656155698E+03  0.47000000000E+01 0. -1.
        -11    1    4    4    0    0  0.61939388845E+01 -0.41064351123E+02 -0.61142337404E+02  0.73912321269E+02  0.00000000000E+00 0.  1.
         12    1    4    4    0    0  0.25600862621E+02 -0.25396231690E+02  0.29660438384E+02  0.46691694723E+02  0.00000000000E+00 0. -1.
         -5    1    5    5    0  502 -0.28883273671E+02 -0.15127869464E+02 -0.15142597722E+02  0.36255816061E+02  0.47000000000E+01 0.  1.
         13    1    6    6    0    0 -0.68542088428E+02  0.67575607420E+02 -0.32229930615E+03  0.33636486640E+03  0.00000000000E+00 0. -1.
        -14    1    6    6    0    0 -0.10579907367E+03  0.10772926585E+03 -0.24836362687E+03  0.29066050619E+03  0.00000000000E+00 0.  1.
</event>
<event>
12    1  0.1035051E+000  0.2100568E+03  0.7818608E-02  0.1141931E+00
         21   -1    0    0  503  502  0.00000000000E+00  0.00000000000E+00  0.30034741654E+02  0.30034741654E+02  0.00000000000E+00 0. -1.
         21   -1    0    0  501  503 -0.00000000000E+00 -0.00000000000E+00 -0.14556238836E+04  0.14556238836E+04  0.00000000000E+00 0. -1.
          6    2    1    2  501    0 -0.11543607188E+03 -0.35385168141E+02 -0.69762202860E+03  0.72856046664E+03  0.17189026135E+03 0.  0.
         24    2    3    3    0    0 -0.14253401088E+03 -0.43801492798E+02 -0.50275569855E+03  0.53158303289E+03  0.87078777018E+02 0.  0.
         -6    2    1    2    0  502  0.11543607188E+03  0.35385168141E+02 -0.72796711337E+03  0.75709815864E+03  0.16936323936E+03 0.  0.
        -24    2    5    5    0    0  0.12904726285E+02  0.26518318381E+02 -0.49407083912E+03  0.50151870922E+03  0.80902833450E+02 0.  0.
          5    1    3    3  501    0  0.27097938995E+02  0.84163246567E+01 -0.19486633006E+03  0.19697743375E+03  0.47000000000E+01 0. -1.
        -13    1    4    4    0    0 -0.40960949883E+02  0.26059709614E+02 -0.16686499025E+03  0.17378386821E+03  0.00000000000E+00 0.  1.
         14    1    4    4    0    0 -0.10157306100E+03 -0.69861202412E+02 -0.33589070830E+03  0.35779916468E+03  0.00000000000E+00 0. -1.
         -5    1    5    5    0  502  0.10253134560E+03  0.88668497606E+01 -0.23389627425E+03  0.25557944942E+03  0.47000000000E+01 0.  1.
         11    1    6    6    0    0 -0.26194874032E+01  0.50250375357E+01  0.98638329251E+00  0.57520142985E+01  0.00000000000E+00 0. -1.
        -12    1    6    6    0    0  0.15524213688E+02  0.21493280845E+02 -0.49505722241E+03  0.49576669492E+03  0.00000000000E+00 0.  1.
</event>
<event>
12    1  0.1035051E+000  0.3174991E+03  0.7818608E-02  0.1076833E+00
         21   -1    0    0  503  502  0.00000000000E+00  0.00000000000E+00  0.48155694613E+03  0.48155694613E+03  0.00000000000E+00 0.  1.
         21   -1    0    0  501  503 -0.00000000000E+00 -0.00000000000E+00 -0.25804352475E+03  0.25804352475E+03  0.00000000000E+00 0. -1.
          6    2    1    2  501    0  0.18833826799E+03  0.18930641644E+03 -0.49194459721E+02  0.32106102935E+03  0.17132386641E+03 0.  0.
         24    2    3    3    0    0  0.40272800712E+02  0.75142113044E+02  0.12435469369E+02  0.12414173387E+03  0.89377254156E+02 0.  0.
         -6    2    1    2    0  502 -0.18833826799E+03 -0.18930641644E+03  0.27270788110E+03  0.41853944153E+03  0.17174822622E+03 0.  0.
        -24    2    5    5    0    0 -0.10818343300E+03 -0.85574612052E+02  0.63226843467E+02  0.17137658036E+03  0.79659457428E+02 0.  0.
          5    1    3    3  501    0  0.14806546728E+03  0.11416430340E+03 -0.61629929090E+02  0.19691929547E+03  0.47000000000E+01 0. -1.
        -11    1    4    4    0    0  0.25720118796E+02  0.91477445601E+02  0.25851639044E+02  0.98478194571E+02  0.00000000000E+00 0.  1.
         12    1    4    4    0    0  0.14552681915E+02 -0.16335332557E+02 -0.13416169676E+02  0.25663539301E+02  0.00000000000E+00 0. -1.
         -5    1    5    5    0  502 -0.80154834988E+02 -0.10373180439E+03  0.20948103763E+03  0.24716286117E+03  0.47000000000E+01 0.  1.
         11    1    6    6    0    0 -0.13940032549E+02 -0.24119496677E+02 -0.17502427773E+02  0.32899994002E+02  0.00000000000E+00 0. -1.
        -12    1    6    6    0    0 -0.94243400453E+02 -0.61455115375E+02  0.80729271240E+02  0.13847658636E+03  0.00000000000E+00 0.  1.
</event>
<event>
12    1  0.1035051E+000  0.3971828E+03  0.7818608E-02  0.1044810E+00
         21   -1    0    0  501  502  0.00000000000E+00  0.00000000000E+00  0.43171030066E+03  0.43171030066E+03  0.00000000000E+00 0.  1.
         21   -1    0    0  502  503 -0.00000000000E+00 -0.00000000000E+00 -0.57615182278E+03  0.57615182278E+03  0.00000000000E+00 0.  1.
         -6    2    1    2    0  503 -0.12395520119E+03  0.33494175678E+03  0.23296101022E+03  0.45996903753E+03  0.17248133484E+03 0.  0.
        -24    2    3    3    0    0 -0.15270904669E+03  0.24171947117E+03  0.19537985227E+03  0.35531908962E+03  0.79561379387E+02 0.  0.
          6    2    1    2  501    0  0.12395520119E+03 -0.33494175678E+03 -0.37740253235E+03  0.54789308591E+03  0.17379093714E+03 0.  0.
         24    2    5    5    0    0  0.69170768528E+02 -0.81116147303E+02 -0.89950620750E+02  0.16049217527E+03  0.79386394150E+02 0.  0.
          5    1    5    5  501    0  0.54784432665E+02 -0.25382560948E+03 -0.28745191159E+03  0.38740091064E+03  0.47000000000E+01 0. -1.
        -11    1    6    6    0    0  0.80923778628E+02 -0.78839762746E+02 -0.59321089101E+02  0.12760626062E+03  0.00000000000E+00 0.  1.
         12    1    6    6    0    0 -0.11753010100E+02 -0.22763845568E+01 -0.30629531649E+02  0.32885914646E+02  0.00000000000E+00 0. -1.
         -5    1    3    3    0  503  0.28753845502E+02  0.93222285605E+02  0.37581157952E+02  0.10464994791E+03  0.47000000000E+01 0.  1.
         11    1    4    4    0    0 -0.88661045420E+02  0.20273638052E+03  0.15495686955E+03  0.27013783959E+03  0.00000000000E+00 0. -1.
        -12    1    4    4    0    0 -0.64048001274E+02  0.38983090658E+02  0.40422982725E+02  0.85181250031E+02  0.00000000000E+00 0.  1.
</event>
<event>
12    1  0.1035051E+000  0.1952555E+03  0.7818608E-02  0.1153870E+00
         21   -1    0    0  501  502  0.00000000000E+00  0.00000000000E+00  0.11169173638E+03  0.11169173638E+03  0.00000000000E+00 0.  1.
         21   -1    0    0  502  503 -0.00000000000E+00 -0.00000000000E+00 -0.53665398578E+03  0.53665398578E+03  0.00000000000E+00 0.  1.
         -6    2    1    2    0  503  0.86386714842E+02  0.31901917238E+02 -0.16754777290E+02  0.19597307568E+03  0.17217527989E+03 0.  0.
        -24    2    3    3    0    0  0.41995741655E+02 -0.42362889200E+02 -0.46311350301E+02  0.10442253781E+03  0.72118434108E+02 0.  0.
          6    2    1    2  501    0 -0.86386714842E+02 -0.31901917238E+02 -0.40820747210E+03  0.45237264648E+03  0.17183502023E+03 0.  0.
         24    2    5    5    0    0 -0.12324322693E+03 -0.10486090139E+02 -0.35372262974E+03  0.38303486326E+03  0.79354625680E+02 0.  0.
          5    1    5    5  501    0  0.36856512090E+02 -0.21415827098E+02 -0.54484842366E+02  0.69337783217E+02  0.47000000000E+01 0. -1.
        -11    1    6    6    0    0 -0.92041062115E+02  0.19515021407E+02 -0.17018069921E+03  0.19445787091E+03  0.00000000000E+00 0.  1.
         12    1    6    6    0    0 -0.31202164818E+02 -0.30001111546E+02 -0.18354193053E+03  0.18857699235E+03  0.00000000000E+00 0. -1.
         -5    1    3    3    0  503  0.44390973187E+02  0.74264806437E+02  0.29556573011E+02  0.91550537867E+02  0.47000000000E+01 0.  1.
         11    1    4    4    0    0  0.16126995115E+02 -0.21508154527E+02  0.17779366223E+02  0.32230211695E+02  0.00000000000E+00 0. -1.
        -12    1    4    4    0    0  0.25868746540E+02 -0.20854734673E+02 -0.64090716524E+02  0.72192326119E+02  0.00000000000E+00 0.  1.
</event>
<event>
12    1  0.1035051E+000  0.1746102E+03  0.7818608E-02  0.1173309E+00
         21   -1    0    0  501  502  0.00000000000E+00  0.00000000000E+00  0.13269353639E+03  0.13269353639E+03  0.00000000000E+00 0. -1.
         21   -1    0    0  502  503 -0.00000000000E+00 -0.00000000000E+00 -0.70505731503E+03  0.70505731503E+03  0.00000000000E+00 0. -1.
         -6    2    1    2    0  503 -0.21811614608E+02  0.19619587604E+02  0.58279362874E+02  0.18338132514E+03  0.17138130447E+03 0.  0.
        -24    2    3    3    0    0  0.48134167315E+02 -0.13440171557E+02  0.37687047608E+02  0.10318473211E+03  0.82031939569E+02 0.  0.
          6    2    1    2  501    0  0.21811614608E+02 -0.19619587604E+02 -0.63064314152E+03  0.65436952629E+03  0.17212794729E+03 0.  0.
         24    2    5    5    0    0  0.35804425512E+01 -0.36449038347E+02 -0.62223237265E+03  0.62775304493E+03  0.74561436936E+02 0.  0.
          5    1    5    5  501    0  0.18231172057E+02  0.16829450743E+02 -0.84107688661E+01  0.26616481357E+02  0.47000000000E+01 0. -1.
        -13    1    6    6    0    0 -0.24298539395E+02 -0.42901329784E+02 -0.27842371134E+03  0.28275555901E+03  0.00000000000E+00 0.  1.
         14    1    6    6    0    0  0.27878981947E+02  0.64522914361E+01 -0.34380866131E+03  0.34499748592E+03  0.00000000000E+00 0. -1.
         -5    1    3    3    0  503 -0.69945781923E+02  0.33059759161E+02  0.20592315266E+02  0.80196593024E+02  0.47000000000E+01 0.  1.
         13    1    4    4    0    0  0.24580287313E+02 -0.27055871060E+02  0.58464897238E+02  0.68951830231E+02  0.00000000000E+00 0. -1.
        -14    1    4    4    0    0  0.23553880003E+02  0.13615699503E+02 -0.20777849629E+02  0.34232901883E+02  0.00000000000E+00 0.  1.
</event>
<event>
12    1  0.1035051E+000  0.1996172E+03  0.7818608E-02  0.1150105E+00
         21   -1    0    0  503  502  0.00000000000E+00  0.00000000000E+00  0.49121855893E+03  0.49121855893E+03  0.00000000000E+00 0. -1.
         21   -1    0    0  501  503 -0.00000000000E+00 -0.00000000000E+00 -0.84624956581E+02  0.84624956581E+02  0.00000000000E+00 0. -1.
          6    2    1    2  501    0 -0.31715522761E+02  0.94228075903E+02  0.14391942446E+03  0.24592724371E+03  0.17286585489E+03 0.  0.
         24    2    3    3    0    0 -0.80941649546E+02  0.29019134993E+02  0.83038298521E+02  0.14392715043E+03  0.80162365127E+02 0.  0.
         -6    2    1    2    0  502  0.31715522761E+02 -0.94228075903E+02  0.26267417789E+03  0.32991627180E+03  0.17309597915E+03 0.  0.
        -24    2    5    5    0    0  0.49151216313E+02 -0.62032249118E+02  0.26899407425E+03  0.29246489316E+03  0.83150825349E+02 0.  0.
          5    1    3    3  501    0  0.49226126786E+02  0.65208940910E+02  0.60881125937E+02  0.10200009328E+03  0.47000000000E+01 0. -1.
        -11    1    4    4    0    0 -0.35237895326E+02 -0.10403351525E+02  0.74370106820E+02  0.82950899805E+02  0.00000000000E+00 0.  1.
         12    1    4    4    0    0 -0.45703754220E+02  0.39422486518E+02  0.86681917012E+01  0.60976250626E+02  0.00000000000E+00 0. -1.
         -5    1    5    5    0  502 -0.17435693553E+02 -0.32195826784E+02 -0.63198963593E+01  0.37451378639E+02  0.47000000000E+01 0.  1.
         13    1    6    6    0    0 -0.16361687381E+01  0.17575790298E+02  0.23168625606E+02  0.29126803209E+02  0.00000000000E+00 0. -1.
        -14    1    6    6    0    0  0.50787385051E+02 -0.79608039416E+02  0.24582544864E+03  0.26333808995E+03  0.00000000000E+00 0.  1.
</event>
<event>
12    1  0.1035051E+000  0.2137604E+03  0.7818608E-02  0.1138967E+00
         21   -1    0    0  501  502  0.00000000000E+00  0.00000000000E+00  0.75089515315E+02  0.75089515315E+02  0.00000000000E+00 0.  1.
         21   -1    0    0  502  503 -0.00000000000E+00 -0.00000000000E+00 -0.61422368196E+03  0.61422368196E+03  0.00000000000E+00 0.  1.
         -6    2    1    2    0  503  0.12744483640E+03  0.95882138466E+01 -0.22508456143E+03  0.31041356369E+03  0.17134585073E+03 0.  0.
        -24    2    3    3    0    0  0.23595274567E+02  0.35134024377E+02 -0.16285977567E+03  0.18659379996E+03  0.80639959091E+02 0.  0.
          6    2    1    2  501    0 -0.12744483640E+03 -0.95882138466E+01 -0.31404960522E+03  0.37889963358E+03  0.16912615889E+03 0.  0.
         24    2    5    5    0    0 -0.74490552608E+02 -0.52370584449E+02 -0.27408254650E+03  0.29981775709E+03  0.80485555423E+02 0.  0.
          5    1    5    5  501    0 -0.52954283790E+02  0.42782370602E+02 -0.39967058725E+02  0.79081876490E+02  0.47000000000E+01 0. -1.
        -13    1    6    6    0    0 -0.80898013744E+02 -0.19458418657E+02 -0.22889564573E+03  0.24354945148E+03  0.00000000000E+00 0.  1.
         14    1    6    6    0    0  0.64074611355E+01 -0.32912165792E+02 -0.45186900768E+02  0.56268305611E+02  0.00000000000E+00 0. -1.
         -5    1    3    3    0  503  0.10384956183E+03 -0.25545810530E+02 -0.62224785758E+02  0.12381976373E+03  0.47000000000E+01 0.  1.
         11    1    4    4    0    0  0.56519358210E+01  0.60063332701E+02 -0.10575084716E+03  0.12174888085E+03  0.00000000000E+00 0. -1.
        -12    1    4    4    0    0  0.17943338746E+02 -0.24929308324E+02 -0.57108928512E+02  0.64844919112E+02  0.00000000000E+00 0.  1.
</event>
<event>
12    1  0.1035051E+000  0.1873205E+03  0.7818608E-02  0.1161389E+00
         21   -1    0    0  503  502  0.00000000000E+00  0.00000000000E+00  0.16347830371E+03  0.16347830371E+03  0.00000000000E+00 0.  1.
         21   -1    0    0  501  503 -0.00000000000E+00 -0.00000000000E+00 -0.25964196211E+03  0.25964196211E+03  0.00000000000E+00 0.  1.
          6    2    1    2  501    0 -0.70305487020E+02  0.25246724986E+02  0.42104432982E+02  0.19199415351E+03  0.17178100325E+03 0.  0.
         24    2    3    3    0    0 -0.83693491786E+02  0.28031535297E+02  0.85799998792E+02  0.14596822265E+03  0.78451989730E+02 0.  0.
         -6    2    1    2    0  502  0.70305487020E+02 -0.25246724986E+02 -0.13826809138E+03  0.23112611231E+03  0.16947258206E+03 0.  0.
        -24    2    5    5    0    0  0.59845297417E+02 -0.46820887963E+02 -0.21087326156E+02  0.11142531109E+03  0.78722737849E+02 0.  0.
          5    1    3    3  501    0  0.13388004766E+02 -0.27848103102E+01 -0.43695565810E+02  0.46025930860E+02  0.47000000000E+01 0. -1.
        -11    1    4    4    0    0 -0.64194188981E+02 -0.16576849812E+02  0.65572455594E+02  0.93249304454E+02  0.00000000000E+00 0.  1.
         12    1    4    4    0    0 -0.19499302805E+02  0.44608385109E+02  0.20227543198E+02  0.52718918196E+02  0.00000000000E+00 0. -1.
         -5    1    5    5    0  502  0.10460189604E+02  0.21574162977E+02 -0.11718076522E+03  0.11970080122E+03  0.47000000000E+01 0.  1.
         11    1    6    6    0    0  0.73166394894E+01 -0.45978031802E+02 -0.33606633734E+02  0.57418798775E+02  0.00000000000E+00 0. -1.
        -12    1    6    6    0    0  0.52528657927E+02 -0.84285616060E+00  0.12519307578E+02  0.54006512315E+02  0.00000000000E+00 0.  1.
</event>
<event>
12    1  0.1035051E+000  0.1827688E+03  0.7818608E-02  0.1165266E+00
         21   -1    0    0  503  502  0.00000000000E+00  0.00000000000E+00  0.10128297114E+03  0.10128297114E+03  0.00000000000E+00 0. -1.
         21   -1    0    0  501  503 -0.00000000000E+00 -0.00000000000E+00 -0.48547485785E+03  0.48547485785E+03  0.00000000000E+00 0. -1.
          6    2    1    2  501    0 -0.62106078864E+02  0.58007749772E+01 -0.35851570202E+03  0.40219428489E+03  0.17127731952E+03 0.  0.
         24    2    3    3    0    0 -0.45966881148E+02  0.53582476305E+02 -0.12894951640E+03  0.16710645393E+03  0.79451577936E+02 0.  0.
         -6    2    1    2    0  502  0.62106078864E+02 -0.58007749772E+01 -0.25676184693E+02  0.18456354410E+03  0.17179528901E+03 0.  0.
        -24    2    5    5    0    0  0.59384417305E+02 -0.90122501238E+01  0.47619270296E+02  0.11099701138E+03  0.80280831838E+02 0.  0.
          5    1    3    3  501    0 -0.16139197716E+02 -0.47781701328E+02 -0.22956618562E+03  0.23508783096E+03  0.47000000000E+01 0. -1.
        -13    1    4    4    0    0 -0.36394232229E+02  0.74243766388E+02 -0.10914369447E+03  0.13692707194E+03  0.00000000000E+00 0.  1.
         14    1    4    4    0    0 -0.95726489189E+01 -0.20661290083E+02 -0.19805821929E+02  0.30179381993E+02  0.00000000000E+00 0. -1.
         -5    1    5    5    0  502  0.27216615592E+01  0.32114751466E+01 -0.73295454988E+02  0.73566532718E+02  0.47000000000E+01 0.  1.
         13    1    6    6    0    0  0.16285349099E+02 -0.26985379304E+02  0.55320902925E+02  0.63669659901E+02  0.00000000000E+00 0. -1.
        -14    1    6    6    0    0  0.43099068206E+02  0.17973129181E+02 -0.77016326293E+01  0.47327351478E+02  0.00000000000E+00 0.  1.
</event>
<event>
12    1  0.1035051E+000  0.2964705E+03  0.7818608E-02  0.1087024E+00
         21   -1    0    0  501  502  0.00000000000E+00  0.00000000000E+00  0.84696109101E+03  0.84696109101E+03  0.00000000000E+00 0.  1.
         21   -1    0    0  502  503 -0.00000000000E+00 -0.00000000000E+00 -0.11222129111E+03  0.11222129111E+03  0.00000000000E+00 0.  1.
         -6    2    1    2    0  503 -0.24146796998E+03  0.79345151920E+01  0.49901685204E+03  0.58042116109E+03  0.17175904214E+03 0.  0.
        -24    2    3    3    0    0 -0.85246270174E+02 -0.56916473209E+02  0.21704516789E+03  0.25157318580E+03  0.75326299579E+02 0.  0.
          6    2    1    2  501    0  0.24146796998E+03 -0.79345151920E+01  0.23572294785E+03  0.37876122103E+03  0.17182845327E+03 0.  0.
         24    2    5    5    0    0  0.19388211487E+03  0.36166583684E+02  0.11449094328E+03  0.24117993792E+03  0.78493885875E+02 0.  0.
          5    1    5    5  501    0  0.47585855108E+02 -0.44101098876E+02  0.12123200458E+03  0.13758128311E+03  0.47000000000E+01 0. -1.
        -13    1    6    6    0    0 -0.50802899164E+01  0.84483556763E+01 -0.20191744835E+00  0.98602652056E+01  0.00000000000E+00 0.  1.
         14    1    6    6    0    0  0.19896240479E+03  0.27718228007E+02  0.11469286073E+03  0.23131967271E+03  0.00000000000E+00 0. -1.
         -5    1    3    3    0  503 -0.15622169981E+03  0.64850988401E+02  0.28197168415E+03  0.32884797529E+03  0.47000000000E+01 0.  1.
         13    1    4    4    0    0 -0.79483407301E+02 -0.47250970010E+02  0.22106415387E+03  0.23962392687E+03  0.00000000000E+00 0. -1.
        -14    1    4    4    0    0 -0.57628628730E+01 -0.96655031989E+01 -0.40189859820E+01  0.11949258927E+02  0.00000000000E+00 0.  1.
</event>
<event>
12    1  0.1035051E+000  0.2376547E+03  0.7818608E-02  0.1121672E+00
         21   -1    0    0  501  502  0.00000000000E+00  0.00000000000E+00  0.46870933457E+02  0.46870933457E+02  0.00000000000E+00 0.  1.
         21   -1    0    0  502  503 -0.00000000000E+00 -0.00000000000E+00 -0.13126637495E+04  0.13126637495E+04  0.00000000000E+00 0.  1.
         -6    2    1    2    0  503 -0.98875594393E+02  0.12552940080E+03 -0.83348084726E+03  0.86620576918E+03  0.17345921184E+03 0.  0.
        -24    2    3    3    0    0 -0.36753435300E+02  0.19086962990E+02 -0.18148135495E+03  0.20264372747E+03  0.80086646372E+02 0.  0.
          6    2    1    2  501    0  0.98875594393E+02 -0.12552940080E+03 -0.43231196873E+03  0.49332891373E+03  0.17591408466E+03 0.  0.
         24    2    5    5    0    0  0.27524916616E+02 -0.15409645535E+02 -0.27825075208E+03  0.29090799536E+03  0.78796589520E+02 0.  0.
          5    1    5    5  501    0  0.71350677777E+02 -0.11011975526E+03 -0.15406121665E+03  0.20242091837E+03  0.47000000000E+01 0. -1.
        -13    1    6    6    0    0  0.50162387579E+01 -0.81118395798E+00  0.45600750137E+01  0.68275145419E+01  0.00000000000E+00 0.  1.
         14    1    6    6    0    0  0.22508677858E+02 -0.14598461577E+02 -0.28281082710E+03  0.28408048082E+03  0.00000000000E+00 0. -1.
         -5    1    3    3    0  503 -0.62122159093E+02  0.10644243781E+03 -0.65199949232E+03  0.66356204171E+03  0.47000000000E+01 0.  1.
         13    1    4    4    0    0 -0.41976699136E-01  0.31103176989E+02 -0.20878795016E+02  0.37461092645E+02  0.00000000000E+00 0. -1.
        -14    1    4    4    0    0 -0.36711458601E+02 -0.12016213998E+02 -0.16060255993E+03  0.16518263483E+03  0.00000000000E+00 0.  1.
</event>
<event>
12    1  0.1035051E+000  0.1742357E+03  0.7818608E-02  0.1173873E+00
         21   -1    0    0  503  502  0.00000000000E+00  0.00000000000E+00  0.38047232333E+03  0.38047232333E+03  0.00000000000E+00 0.  1.
         21   -1    0    0  501  503 -0.00000000000E+00 -0.00000000000E+00 -0.19976004142E+03  0.19976004142E+03  0.00000000000E+00 0.  1.
          6    2    1    2  501    0 -0.12912228226E+02 -0.20837978399E+01 -0.13525085620E+03  0.21941276707E+03  0.17227333049E+03 0.  0.
         24    2    3    3    0    0  0.39938655597E+02  0.42759437618E+02 -0.53997285641E+02  0.11250923852E+03  0.79493120333E+02 0.  0.
         -6    2    1    2    0  502  0.12912228226E+02  0.20837978399E+01  0.31596313810E+03  0.36081959768E+03  0.17374409221E+03 0.  0.
        -24    2    5    5    0    0 -0.32644466027E+01 -0.42191185658E+02  0.29525106946E+03  0.30911815902E+03  0.81179365956E+02 0.  0.
          5    1    3    3  501    0 -0.52850883823E+02 -0.44843235458E+02 -0.81253570554E+02  0.10690352854E+03  0.47000000000E+01 0. -1.
        -13    1    4    4    0    0  0.21768099257E+02 -0.18438852279E+02 -0.36480889562E+02  0.46310870450E+02  0.00000000000E+00 0.  1.
         14    1    4    4    0    0  0.18170556340E+02  0.61198289897E+02 -0.17516396079E+02  0.66198368074E+02  0.00000000000E+00 0. -1.
         -5    1    5    5    0  502  0.16176674829E+02  0.44274983497E+02  0.20712068639E+02  0.51701438660E+02  0.47000000000E+01 0.  1.
         13    1    6    6    0    0  0.34169308146E+02 -0.33280968147E+02  0.21350556577E+03  0.21876880736E+03  0.00000000000E+00 0. -1.
        -14    1    6    6    0    0 -0.37433754749E+02 -0.89102175102E+01  0.81745503696E+02  0.90349351659E+02  0.00000000000E+00 0.  1.
</event>
<event>
12    1  0.1035051E+000  0.1723813E+03  0.7818608E-02  0.1175588E+00
         21   -1    0    0  503  502  0.00000000000E+00  0.00000000000E+00  0.27324875037E+03  0.27324875037E+03  0.00000000000E+00 0. -1.
         21   -1    0    0  501  503 -0.00000000000E+00 -0.00000000000E+00 -0.18605223774E+03  0.18605223774E+03  0.00000000000E+00 0. -1.
          6    2    1    2  501    0  0.76194543750E+01 -0.11796027319E+02 -0.10484540814E+03  0.20176190356E+03  0.17180833442E+03 0.  0.
         24    2    3    3    0    0 -0.22123666131E+02 -0.15212584107E+02  0.78016563953E+01  0.85109525850E+02  0.80385858393E+02 0.  0.
         -6    2    1    2    0  502 -0.76194543750E+01  0.11796027319E+02  0.19204192077E+03  0.25753908455E+03  0.17102361939E+03 0.  0.
        -24    2    5    5    0    0  0.41764714246E+02 -0.37913470283E+02  0.13747554272E+03  0.16860422144E+03  0.79662639023E+02 0.  0.
          5    1    3    3  501    0  0.29743120506E+02  0.34165567882E+01 -0.11264706454E+03  0.11665237771E+03  0.47000000000E+01 0. -1.
        -11    1    4    4    0    0  0.49988137271E+01  0.30863076844E+02  0.19851971669E+01  0.31328240595E+02  0.00000000000E+00 0.  1.
         12    1    4    4    0    0 -0.27122479858E+02 -0.46075660951E+02  0.58164592284E+01  0.53781285255E+02  0.00000000000E+00 0. -1.
         -5    1    5    5    0  502 -0.49384168621E+02  0.49709497602E+02  0.54566378051E+02  0.88934863106E+02  0.47000000000E+01 0.  1.
         11    1    6    6    0    0 -0.11025726017E+02  0.16282946552E+02  0.45096274005E+02  0.49197305940E+02  0.00000000000E+00 0. -1.
        -12    1    6    6    0    0  0.52790440263E+02 -0.54196416834E+02  0.92379268719E+02  0.11940691550E+03  0.00000000000E+00 0.  1.
</event>
<event>
12    1  0.1035051E+000  0.2138713E+03  0.7818608E-02  0.1138541E+00
         21   -1    0    0  503  502  0.00000000000E+00  0.00000000000E+00  0.77157404223E+03  0.77157404223E+03  0.00000000000E+00 0. -1.
         21   -1    0    0  501  503 -0.00000000000E+00 -0.00000000000E+00 -0.46323518591E+03  0.46323518591E+03  0.00000000000E+00 0. -1.
          6    2    1    2  501    0 -0.73589253474E+02 -0.10324000210E+03  0.73071973312E+03  0.76136807811E+03  0.17220959825E+03 0.  0.
         24    2    3    3    0    0  0.10301380393E+02 -0.94120546541E+02  0.34277933936E+03  0.36432822868E+03  0.79199665425E+02 0.  0.
         -6    2    1    2    0  502  0.73589253474E+02  0.10324000210E+03 -0.42238087681E+03  0.47344115002E+03  0.17224122962E+03 0.  0.
        -24    2    5    5    0    0  0.17865293290E+02  0.40516910225E+02 -0.79870877012E+02  0.12077340844E+03  0.79032085086E+02 0.  0.
          5    1    3    3  501    0 -0.83890633868E+02 -0.91194555583E+01  0.38794039377E+03  0.39703984943E+03  0.47000000000E+01 0. -1.
        -11    1    4    4    0    0 -0.13024954371E+02 -0.90668147928E+02  0.31418410372E+03  0.32726443974E+03  0.00000000000E+00 0.  1.
         12    1    4    4    0    0  0.23326334765E+02 -0.34523986134E+01  0.28595235636E+02  0.37063788943E+02  0.00000000000E+00 0. -1.
         -5    1    5    5    0  502  0.55723960184E+02  0.62723091875E+02 -0.34250999979E+03  0.35266774158E+03  0.47000000000E+01 0.  1.
         13    1    6    6    0    0 -0.86449749910E+01  0.54934890882E+02 -0.31930885480E+02  0.64126120079E+02  0.00000000000E+00 0. -1.
        -14    1    6    6    0    0  0.26510268281E+02 -0.14417980657E+02 -0.47939991532E+02  0.56647288361E+02  0.00000000000E+00 0.  1.
</event>
<event>
12    1  0.1035051E+000  0.2372356E+03  0.7818608E-02  0.1121712E+00
         21   -1    0    0  503  502  0.00000000000E+00  0.00000000000E+00  0.13235426893E+04  0.13235426893E+04  0.00000000000E+00 0.  1.
         21   -1    0    0  501  503 -0.00000000000E+00 -0.00000000000E+00 -0.45184991574E+02  0.45184991574E+02  0.00000000000E+00 0.  1.
          6    2    1    2  501    0 -0.15376284279E+03  0.55090260095E+02  0.47145890946E+03  0.52778235432E+03  0.17205453099E+03 0.  0.
         24    2    3    3    0    0 -0.64194139985E+02  0.83275407112E+02  0.19369214629E+03  0.23453600778E+03  0.80217269781E+02 0.  0.
         -6    2    1    2    0  502  0.15376284279E+03 -0.55090260095E+02  0.80689878828E+03  0.84094532658E+03  0.17153844811E+03 0.  0.
        -24    2    5    5    0    0  0.92184925836E+02 -0.83579516763E+02  0.69117520838E+03  0.70671599093E+03  0.78998272041E+02 0.  0.
          5    1    3    3  501    0 -0.89568702808E+02 -0.28185147018E+02  0.27776676317E+03  0.29324634654E+03  0.47000000000E+01 0. -1.
        -11    1    4    4    0    0 -0.65180294982E+02  0.77813971045E+02  0.20110829108E+03  0.22527323340E+03  0.00000000000E+00 0.  1.
         12    1    4    4    0    0  0.98615499643E+00  0.54614360675E+01 -0.74161447924E+01  0.92627743780E+01  0.00000000000E+00 0. -1.
         -5    1    5    5    0  502  0.61577916957E+02  0.28489256669E+02  0.11572357990E+03  0.13422933564E+03  0.47000000000E+01 0.  1.
         13    1    6    6    0    0  0.18987903559E+02 -0.52709676979E+02  0.15765451053E+03  0.16731346395E+03  0.00000000000E+00 0. -1.
        -14    1    6    6    0    0  0.73197022278E+02 -0.30869839784E+02  0.53352069785E+03  0.53940252699E+03  0.00000000000E+00 0.  1.
</event>
<event>
12    1  0.1035051E+000  0.1880499E+03  0.7818608E-02  0.1160258E+00
         21   -1    0    0  503  502  0.00000000000E+00  0.00000000000E+00  0.57862776340E+03  0.57862776340E+03  0.00000000000E+00 0. -1.
         21   -1    0    0  501  503 -0.00000000000E+00 -0.00000000000E+00 -0.63641894317E+02  0.63641894317E+02  0.00000000000E+00 0. -1.
          6    2    1    2  501    0  0.72192746244E+02 -0.28652664862E+02  0.19310565194E+03  0.26954135810E+03  0.17125998687E+03 0.  0.
         24    2    3    3    0    0  0.82668287583E+01  0.29255550034E+02  0.15068200435E+03  0.17330342300E+03  0.80029883927E+02 0.  0.
         -6    2    1    2    0  502 -0.72192746244E+02  0.28652664862E+02  0.32188021715E+03  0.37272829962E+03  0.17113370016E+03 0.  0.
        -24    2    5    5    0    0 -0.48942602440E+02  0.68700249905E+02  0.12013403488E+03  0.16568243437E+03  0.76833456598E+02 0.  0.
          5    1    3    3  501    0  0.63925917486E+02 -0.57908214896E+02  0.42423647583E+02  0.96237935104E+02  0.47000000000E+01 0. -1.
        -11    1    4    4    0    0 -0.15059175825E+02 -0.14966384741E+02  0.90026334625E+01  0.23061198104E+02  0.00000000000E+00 0.  1.
         12    1    4    4    0    0  0.23326004583E+02  0.44221934775E+02  0.14167937089E+03  0.15024222490E+03  0.00000000000E+00 0. -1.
         -5    1    5    5    0  502 -0.23250143804E+02 -0.40047585043E+02  0.20174618227E+03  0.20704586524E+03  0.47000000000E+01 0.  1.
         13    1    6    6    0    0 -0.23386801227E+02  0.19800221362E+02  0.10366880926E+03  0.10810279021E+03  0.00000000000E+00 0. -1.
        -14    1    6    6    0    0 -0.25555801212E+02  0.48900028543E+02  0.16465225617E+02  0.57579644161E+02  0.00000000000E+00 0.  1.
</event>
<event>
12    1  0.1035051E+000  0.1768684E+03  0.7818608E-02  0.1171614E+00
         21   -1    0    0  501  502  0.00000000000E+00  0.00000000000E+00  0.11220133408E+03  0.11220133408E+03  0.00000000000E+00 0. -1.
         21   -1    0    0  502  503 -0.00000000000E+00 -0.00000000000E+00 -0.34533431249E+03  0.34533431249E+03  0.00000000000E+00 0. -1.
         -6    2    1    2    0  503 -0.61841872182E+01  0.35071834070E+02 -0.13471000592E+02  0.17738069356E+03  0.17324596640E+03 0.  0.
        -24    2    3    3    0    0  0.52231702843E+02 -0.17415916045E+02  0.24126626527E+01  0.97120112436E+02  0.79968933874E+02 0.  0.
          6    2    1    2  501    0  0.61841872182E+01 -0.35071834070E+02 -0.21966197781E+03  0.28015495301E+03  0.17019734276E+03 0.  0.
         24    2    5    5    0    0 -0.14390954233E+02 -0.84985678693E+02 -0.16832363100E+03  0.20550614737E+03  0.80437968055E+02 0.  0.
          5    1    5    5  501    0  0.20575141451E+02  0.49913844623E+02 -0.51338346810E+02  0.74648805643E+02  0.47000000000E+01 0. -1.
        -11    1    6    6    0    0 -0.58173930086E+00 -0.35119474035E+02 -0.66421484683E+01  0.35746804240E+02  0.00000000000E+00 0.  1.
         12    1    6    6    0    0 -0.13809214932E+02 -0.49866204658E+02 -0.16168148254E+03  0.16975934313E+03  0.00000000000E+00 0. -1.
         -5    1    3    3    0  503 -0.58415890061E+02  0.52487750115E+02 -0.15883663245E+02  0.80260581121E+02  0.47000000000E+01 0.  1.
         11    1    4    4    0    0  0.18054233704E+02 -0.47457278228E+02  0.75254568376E+01  0.51330118956E+02  0.00000000000E+00 0. -1.
        -12    1    4    4    0    0  0.34177469139E+02  0.30041362183E+02 -0.51127941849E+01  0.45789993480E+02  0.00000000000E+00 0.  1.
</event>
<event>
12    1  0.1035051E+000  0.6016991E+03  0.7818608E-02  0.9902275E-01
         21   -1    0    0  501  502  0.00000000000E+00  0.00000000000E+00  0.12961595291E+04  0.12961595291E+04  0.00000000000E+00 0. -1.
         21   -1    0    0  502  503 -0.00000000000E+00 -0.00000000000E+00 -0.67081770809E+03  0.67081770809E+03  0.00000000000E+00 0. -1.
         -6    2    1    2    0  503  0.45697788352E+02  0.57442981220E+03 -0.43907688212E+03  0.74426343947E+03  0.17053346274E+03 0.  0.
        -24    2    3    3    0    0  0.64806339273E+02  0.21717571864E+03 -0.14090595584E+03  0.27851284595E+03  0.79685397607E+02 0.  0.
          6    2    1    2  501    0 -0.45697788352E+02 -0.57442981220E+03  0.10644187031E+04  0.12227137977E+04  0.17315876687E+03 0.  0.
         24    2    5    5    0    0 -0.63221791424E+02 -0.30422993861E+03  0.46584923155E+03  0.56573391622E+03  0.80538853830E+02 0.  0.
          5    1    5    5  501    0  0.17524003073E+02 -0.27019987359E+03  0.59856947160E+03  0.65697988151E+03  0.47000000000E+01 0. -1.
        -13    1    6    6    0    0 -0.64100717254E+02 -0.15859581469E+03  0.29712833467E+03  0.34285096128E+03  0.00000000000E+00 0.  1.
         14    1    6    6    0    0  0.87892582994E+00 -0.14563412391E+03  0.16872089688E+03  0.22288295494E+03  0.00000000000E+00 0. -1.
         -5    1    3    3    0  503 -0.19108550922E+02  0.35725409356E+03 -0.29817092629E+03  0.46575059352E+03  0.47000000000E+01 0.  1.
         13    1    4    4    0    0  0.61436117783E+02  0.11804947909E+03 -0.11529340877E+03  0.17607568312E+03  0.00000000000E+00 0. -1.
        -14    1    4    4    0    0  0.33702214904E+01  0.99126239551E+02 -0.25612547065E+02  0.10243716282E+03  0.00000000000E+00 0.  1.
</event>
<event>
12    1  0.1035051E+000  0.1788018E+03  0.7818608E-02  0.1170535E+00
         21   -1    0    0  501  502  0.00000000000E+00  0.00000000000E+00  0.54658163818E+02  0.54658163818E+02  0.00000000000E+00 0. -1.
         21   -1    0    0  502  503 -0.00000000000E+00 -0.00000000000E+00 -0.68414859606E+03  0.68414859606E+03  0.00000000000E+00 0. -1.
         -6    2    1    2    0  503 -0.30586432326E+02  0.37229317216E+02 -0.15561985919E+03  0.23232536853E+03  0.16563811272E+03 0.  0.
        -24    2    3    3    0    0 -0.43489368700E+02  0.31648549391E+02 -0.17971768221E+03  0.20403357094E+03  0.80238998634E+02 0.  0.
          6    2    1    2  501    0  0.30586432326E+02 -0.37229317216E+02 -0.47387057305E+03  0.50648139135E+03  0.17218747885E+03 0.  0.
         24    2    5    5    0    0  0.14738751440E+02  0.25745547930E+01 -0.91099668265E+02  0.12129162932E+03  0.78667977346E+02 0.  0.
          5    1    5    5  501    0  0.15847680886E+02 -0.39803872009E+02 -0.38277090478E+03  0.38518976202E+03  0.47000000000E+01 0. -1.
        -11    1    6    6    0    0 -0.25505738319E+02 -0.81769835211E+01 -0.69257992141E+02  0.74256819364E+02  0.00000000000E+00 0.  1.
         12    1    6    6    0    0  0.40244489759E+02  0.10751538314E+02 -0.21841676125E+02  0.47034809961E+02  0.00000000000E+00 0. -1.
         -5    1    3    3    0  503  0.12902936375E+02  0.55807678251E+01  0.24097823021E+02  0.28291797592E+02  0.47000000000E+01 0.  1.
         11    1    4    4    0    0 -0.44953983653E+02 -0.12484063464E+02 -0.57277887530E+02  0.73874683666E+02  0.00000000000E+00 0. -1.
        -12    1    4    4    0    0  0.14646149523E+01  0.44132612855E+02 -0.12243979468E+03  0.13015888727E+03  0.00000000000E+00 0.  1.
</event>
<event>
12    1  0.1035051E+000  0.2262199E+03  0.7818608E-02  0.1129636E+00
         21   -1    0    0  503  502  0.00000000000E+00  0.00000000000E+00  0.21546321471E+03  0.21546321471E+03  0.00000000000E+00 0.  1.
         21   -1    0    0  501  503 -0.00000000000E+00 -0.00000000000E+00 -0.79164873593E+03  0.79164873593E+03  0.00000000000E+00 0. -1.
          6    2    1    2  501    0 -0.12689521434E+03  0.73286388006E+02  0.13355764947E+03  0.26270339537E+03  0.17234308260E+03 0.  0.
         24    2    3    3    0    0 -0.53138502559E+02 -0.42506887858E+01  0.12582977567E+03  0.15530758147E+03  0.73793926633E+02 0.  0.
         -6    2    1    2    0  502  0.12689521434E+03 -0.73286388006E+02 -0.70974317068E+03  0.74440855527E+03  0.17010419965E+03 0.  0.
        -24    2    5    5    0    0  0.12896258368E+03 -0.10990244601E+03 -0.57260310650E+03  0.60237159908E+03  0.79166471263E+02 0.  0.
          5    1    3    3  501    0 -0.73756711780E+02  0.77537076791E+02  0.77278737995E+01  0.10739581390E+03  0.47000000000E+01 0. -1.
        -11    1    4    4    0    0  0.10163083229E+02 -0.20753294397E+02  0.50512476803E+02  0.55547257374E+02  0.00000000000E+00 0.  1.
         12    1    4    4    0    0 -0.63301585789E+02  0.16502605611E+02  0.75317298863E+02  0.99760324094E+02  0.00000000000E+00 0. -1.
         -5    1    5    5    0  502 -0.20673693442E+01  0.36616058008E+02 -0.13714006418E+03  0.14203695619E+03  0.47000000000E+01 0.  1.
         11    1    6    6    0    0  0.62219812560E+02 -0.23256653685E+02 -0.32453563694E+03  0.33126357581E+03  0.00000000000E+00 0. -1.
        -12    1    6    6    0    0  0.66742771123E+02 -0.86645792328E+02 -0.24806746956E+03  0.27110802327E+03  0.00000000000E+00 0.  1.
</event>
<event>
12    1  0.1035051E+000  0.2295269E+03  0.7818608E-02  0.1126993E+00
         21   -1    0    0  503  502  0.00000000000E+00  0.00000000000E+00  0.54799238540E+03  0.54799238540E+03  0.00000000000E+00 0. -1.
         21   -1    0    0  501  503 -0.00000000000E+00 -0.00000000000E+00 -0.10860904787E+03  0.10860904787E+03  0.00000000000E+00 0. -1.
          6    2    1    2  501    0 -0.42353834904E+02 -0.14546396193E+03  0.33120295265E+03  0.40296150225E+03  0.17242089462E+03 0.  0.
         24    2    3    3    0    0 -0.68536597498E+02 -0.11163405152E+03  0.32548580193E+03  0.35954749866E+03  0.78574613430E+02 0.  0.
         -6    2    1    2    0  502  0.42353834904E+02  0.14546396193E+03  0.10818038488E+03  0.25363993103E+03  0.17226899717E+03 0.  0.
        -24    2    5    5    0    0 -0.18404046389E+02  0.64316486419E+02 -0.17254409284E+01  0.10404777392E+03  0.79672095254E+02 0.  0.
          5    1    3    3  501    0  0.26182762595E+02 -0.33829910415E+02  0.57171507128E+01  0.43414003594E+02  0.47000000000E+01 0. -1.
        -13    1    4    4    0    0  0.87012257320E+01 -0.38206894648E+02  0.45968600949E+02  0.60403562818E+02  0.00000000000E+00 0.  1.
         14    1    4    4    0    0 -0.77237823230E+02 -0.73427156867E+02  0.27951720098E+03  0.29914393584E+03  0.00000000000E+00 0. -1.
         -5    1    5    5    0  502  0.60757881292E+02  0.81147475511E+02  0.10990582581E+03  0.14959215711E+03  0.47000000000E+01 0.  1.
         11    1    6    6    0    0 -0.36743653426E+02  0.69132523173E+02  0.13854096245E+02  0.79506841278E+02  0.00000000000E+00 0. -1.
        -12    1    6    6    0    0  0.18339607037E+02 -0.48160367538E+01 -0.15579537174E+02  0.24540932640E+02  0.00000000000E+00 0.  1.
</event>
<event>
12    1  0.1035051E+000  0.1921527E+03  0.7818608E-02  0.1156592E+00
         21   -1    0    0  503  502  0.00000000000E+00  0.00000000000E+00  0.45750013718E+02  0.45750013718E+02  0.00000000000E+00 0. -1.
         21   -1    0    0  501  503 -0.00000000000E+00 -0.00000000000E+00 -0.81233753261E+03  0.81233753261E+03  0.00000000000E+00 0. -1.
          6    2    1    2  501    0  0.82659017494E+02 -0.20034856846E+02 -0.34500029934E+03  0.39477509043E+03  0.17201237402E+03 0.  0.
         24    2    3    3    0    0  0.33124979124E+02 -0.13384447871E+02 -0.40640729115E+02  0.86303557083E+02  0.67232636534E+02 0.  0.
         -6    2    1    2    0  502 -0.82659017494E+02  0.20034856846E+02 -0.42158721956E+03  0.46331245591E+03  0.17230420610E+03 0.  0.
        -24    2    5    5    0    0 -0.12480239911E+03  0.17428244741E+02 -0.31485615351E+03  0.34843656852E+03  0.79964131618E+02 0.  0.
          5    1    3    3  501    0  0.49534038369E+02 -0.66504089752E+01 -0.30435957022E+03  0.30847153334E+03  0.47000000000E+01 0. -1.
        -13    1    4    4    0    0  0.20796641969E+02  0.86395176824E+01 -0.53449350189E+02  0.57999781194E+02  0.00000000000E+00 0.  1.
         14    1    4    4    0    0  0.12328337156E+02 -0.22023965553E+02  0.12808621074E+02  0.28303775888E+02  0.00000000000E+00 0. -1.
         -5    1    5    5    0  502  0.42143381620E+02  0.26066121048E+01 -0.10673106605E+03  0.11487588738E+03  0.47000000000E+01 0.  1.
         11    1    6    6    0    0 -0.27574656369E+02  0.61716702689E+01 -0.12991271030E+02  0.31100230076E+02  0.00000000000E+00 0. -1.
        -12    1    6    6    0    0 -0.97227742744E+02  0.11256574472E+02 -0.30186488248E+03  0.31733633845E+03  0.00000000000E+00 0.  1.
</event>
<event>
12    1  0.1035051E+000  0.2600874E+03  0.7818608E-02  0.1107167E+00
         21   -1    0    0  503  502  0.00000000000E+00  0.00000000000E+00  0.60465700485E+03  0.60465700485E+03  0.00000000000E+00 0. -1.
         21   -1    0    0  501  503 -0.00000000000E+00 -0.00000000000E+00 -0.12349097043E+03  0.12349097043E+03  0.00000000000E+00 0. -1.
          6    2    1    2  501    0  0.18991548444E+03  0.45148722302E+02  0.35350126944E+03  0.43887194136E+03  0.17186952919E+03 0.  0.
         24    2    3    3    0    0  0.14511442588E+03  0.15673202363E+02  0.13681035702E+03  0.21559412642E+03  0.80373550909E+02 0.  0.
         -6    2    1    2    0  502 -0.18991548444E+03 -0.45148722302E+02  0.12766476498E+03  0.28927603392E+03  0.17110240567E+03 0.  0.
        -24    2    5    5    0    0 -0.12609935615E+03 -0.76472259822E+02  0.39352316361E+02  0.17580867820E+03  0.87241230983E+02 0.  0.
          5    1    3    3  501    0  0.44801058562E+02  0.29475519939E+02  0.21669091241E+03  0.22327781494E+03  0.47000000000E+01 0. -1.
        -13    1    4    4    0    0  0.18852714491E+02  0.31605625141E+02  0.47646739205E+02  0.60204253513E+02  0.00000000000E+00 0.  1.
         14    1    4    4    0    0  0.12626171139E+03 -0.15932422777E+02  0.89163617819E+02  0.15538987290E+03  0.00000000000E+00 0. -1.
         -5    1    5    5    0  502 -0.63816128291E+02  0.31323537519E+02  0.88312448623E+02  0.11346735572E+03  0.47000000000E+01 0.  1.
         13    1    6    6    0    0 -0.14510940756E+02  0.18569688254E+02  0.12889902990E+02  0.26861688751E+02  0.00000000000E+00 0. -1.
        -14    1    6    6    0    0 -0.11158841540E+03 -0.95041948075E+02  0.26462413371E+02  0.14894698945E+03  0.00000000000E+00 0.  1.
</event>
<event>
12    1  0.1035051E+000  0.2184881E+03  0.7818608E-02  0.1135361E+00
         21   -1    0    0  503  502  0.00000000000E+00  0.00000000000E+00  0.93372087842E+03  0.93372087842E+03  0.00000000000E+00 0.  1.
         21   -1    0    0  501  503 -0.00000000000E+00 -0.00000000000E+00 -0.81271414181E+02  0.81271414181E+02  0.00000000000E+00 0.  1.
          6    2    1    2  501    0 -0.13039291455E+03  0.19909728482E+02  0.73637133330E+03  0.76758336920E+03  0.17188012895E+03 0.  0.
         24    2    3    3    0    0 -0.16248411117E+03  0.15614911701E+02  0.66014263814E+03  0.68463040472E+03  0.79281627926E+02 0.  0.
         -6    2    1    2    0  502  0.13039291455E+03 -0.19909728482E+02  0.11607813094E+03  0.24740892339E+03  0.17417902698E+03 0.  0.
        -24    2    5    5    0    0  0.13937911166E+03 -0.70162727702E+02  0.84084539459E+02  0.18697883515E+03  0.59510754421E+02 0.  0.
          5    1    3    3  501    0  0.32091196621E+02  0.42948167813E+01  0.76228695152E+02  0.82952964482E+02  0.47000000000E+01 0. -1.
        -11    1    4    4    0    0 -0.75199563071E+02 -0.31827094669E+02  0.27359320472E+03  0.28551914105E+03  0.00000000000E+00 0.  1.
         12    1    4    4    0    0 -0.87284548096E+02  0.47442006369E+02  0.38654943343E+03  0.39911126367E+03  0.00000000000E+00 0. -1.
         -5    1    5    5    0  502 -0.89861971158E+01  0.50252999220E+02  0.31993591480E+02  0.60430088242E+02  0.47000000000E+01 0.  1.
         11    1    6    6    0    0  0.84423658907E+02 -0.17072758917E+02  0.65853902519E+02  0.10842310527E+03  0.00000000000E+00 0. -1.
        -12    1    6    6    0    0  0.54955452755E+02 -0.53089968785E+02  0.18230636940E+02  0.78555729876E+02  0.00000000000E+00 0.  1.
</event>
<event>
12    1  0.1035051E+000  0.2476115E+03  0.7818608E-02  0.1114935E+00
         21   -1    0    0  503  502  0.00000000000E+00  0.00000000000E+00  0.46161528181E+03  0.46161528181E+03  0.00000000000E+00 0. -1.
         21   -1    0    0  501  503 -0.00000000000E+00 -0.00000000000E+00 -0.23402337071E+03  0.23402337071E+03  0.00000000000E+00 0.  1.
          6    2    1    2  501    0 -0.13125687643E+03 -0.12072697799E+03 -0.11544306418E+03  0.27257311271E+03  0.17077947733E+03 0.  0.
         24    2    3    3    0    0 -0.12483837453E+03 -0.14334323049E+03 -0.65089940418E+02  0.21680377421E+03  0.81457195409E+02 0.  0.
         -6    2    1    2    0  502  0.13125687643E+03  0.12072697799E+03  0.34303497529E+03  0.42306553982E+03  0.17177917769E+03 0.  0.
        -24    2    5    5    0    0  0.12112581010E+03  0.63320973423E+02  0.13919748604E+03  0.21100446397E+03  0.80411044944E+02 0.  0.
          5    1    3    3  501    0 -0.64185018962E+01  0.22616252501E+02 -0.50353123764E+02  0.55769338498E+02  0.47000000000E+01 0. -1.
        -13    1    4    4    0    0 -0.12072498204E+03 -0.10916831730E+03 -0.77421912367E+02  0.18023982719E+03  0.00000000000E+00 0.  1.
         14    1    4    4    0    0 -0.41133924901E+01 -0.34174913190E+02  0.12331971949E+02  0.36563947017E+02  0.00000000000E+00 0. -1.
         -5    1    5    5    0  502  0.10131066327E+02  0.57406004567E+02  0.20383748925E+03  0.21206107584E+03  0.47000000000E+01 0.  1.
         11    1    6    6    0    0  0.52508506049E+02 -0.14067696291E+02  0.58169817209E+02  0.79616398565E+02  0.00000000000E+00 0. -1.
        -12    1    6    6    0    0  0.68617304053E+02  0.77388669714E+02  0.81027668830E+02  0.13138806541E+03  0.00000000000E+00 0.  1.
</event>
<event>
12    1  0.1035051E+000  0.4058860E+03  0.7818608E-02  0.1041821E+00
         21   -1    0    0  501  502  0.00000000000E+00  0.00000000000E+00  0.12242763049E+04  0.12242763049E+04  0.00000000000E+00 0.  1.
         21   -1    0    0  502  503 -0.00000000000E+00 -0.00000000000E+00 -0.14684063178E+03  0.14684063178E+03  0.00000000000E+00 0.  1.
         -6    2    1    2    0  503 -0.27657264121E+03 -0.24256029900E+03  0.33901579351E+03  0.52884324326E+03  0.17150960083E+03 0.  0.
        -24    2    3    3    0    0 -0.93542517447E+02 -0.73347647212E+02  0.65492623777E+02  0.15874871195E+03  0.82351623259E+02 0.  0.
          6    2    1    2  501    0  0.27657264121E+03  0.24256029900E+03  0.73841987964E+03  0.84227369345E+03  0.16980321404E+03 0.  0.
         24    2    5    5    0    0  0.28303518782E+03  0.21259790123E+03  0.60742401873E+03  0.70765751549E+03  0.80674875631E+02 0.  0.
          5    1    5    5  501    0 -0.64625466061E+01  0.29962397772E+02  0.13099586092E+03  0.13461617795E+03  0.47000000000E+01 0. -1.
        -13    1    6    6    0    0 -0.33256886725E+01  0.14376139306E+02  0.22818390230E+02  0.27173746874E+02  0.00000000000E+00 0.  1.
         14    1    6    6    0    0  0.28636087649E+03  0.19822176193E+03  0.58460562850E+03  0.68048376862E+03  0.00000000000E+00 0. -1.
         -5    1    3    3    0  503 -0.18303012377E+03 -0.16921265179E+03  0.27352316973E+03  0.37009453132E+03  0.47000000000E+01 0.  1.
         11    1    4    4    0    0 -0.54022647515E+02 -0.97972971807E+01  0.63419617369E+02  0.83883737064E+02  0.00000000000E+00 0. -1.
        -12    1    4    4    0    0 -0.39519869931E+02 -0.63550350031E+02  0.20730064084E+01  0.74864974882E+02  0.00000000000E+00 0.  1.
</event>
<event>
12    1  0.1035051E+000  0.2633741E+03  0.7818608E-02  0.1105294E+00
         21   -1    0    0  501  502  0.00000000000E+00  0.00000000000E+00  0.10959126522E+03  0.10959126522E+03  0.00000000000E+00 0.  1.
         21   -1    0    0  502  503 -0.00000000000E+00 -0.00000000000E+00 -0.76391352430E+03  0.76391352430E+03  0.00000000000E+00 0.  1.
         -6    2    1    2    0  503  0.14333501446E+03  0.13763576334E+03 -0.14508952239E+03  0.30069404102E+03  0.17285082319E+03 0.  0.
        -24    2    3    3    0    0  0.16747327504E+03  0.13506206700E+03 -0.15221830797E+03  0.27496100542E+03  0.78384191170E+02 0.  0.
          6    2    1    2  501    0 -0.14333501446E+03 -0.13763576334E+03 -0.50923273670E+03  0.57281074850E+03  0.17118891248E+03 0.  0.
         24    2    5    5    0    0 -0.11418895160E+03 -0.21973028808E+02 -0.25380766414E+03  0.29086852245E+03  0.81634773926E+02 0.  0.
          5    1    5    5  501    0 -0.29146062861E+02 -0.11566273454E+03 -0.25542507256E+03  0.28194222606E+03  0.47000000000E+01 0. -1.
        -13    1    6    6    0    0 -0.58229480824E+02 -0.22764081366E+02 -0.51616424768E+02  0.81074849018E+02  0.00000000000E+00 0.  1.
         14    1    6    6    0    0 -0.55959470774E+02  0.79105255793E+00 -0.20219123937E+03  0.20979367343E+03  0.00000000000E+00 0. -1.
         -5    1    3    3    0  503 -0.24138260585E+02  0.25736963447E+01  0.71287855865E+01  0.25733035594E+02  0.47000000000E+01 0.  1.
         13    1    4    4    0    0 -0.26170184337E+01  0.26830109518E+02 -0.12785304187E+02  0.29835676050E+02  0.00000000000E+00 0. -1.
        -14    1    4    4    0    0  0.17009029348E+03  0.10823195748E+03 -0.13943300379E+03  0.24512532937E+03  0.00000000000E+00 0.  1.
</event>
<event>
12    1  0.1035051E+000  0.2936173E+03  0.7818608E-02  0.1088513E+00
         21   -1    0    0  503  502  0.00000000000E+00  0.00000000000E+00  0.38572683593E+03  0.38572683593E+03  0.00000000000E+00 0. -1.
         21   -1    0    0  501  503 -0.00000000000E+00 -0.00000000000E+00 -0.22919589196E+03  0.22919589196E+03  0.00000000000E+00 0. -1.
          6    2    1    2  501    0  0.95127070619E+02  0.21753969048E+03  0.12769598438E+03  0.32018335606E+03  0.17273806927E+03 0.  0.
         24    2    3    3    0    0  0.60726896757E+02  0.14869806347E+03  0.15638860436E+03  0.23791612071E+03  0.79673175213E+02 0.  0.
         -6    2    1    2    0  502 -0.95127070619E+02 -0.21753969048E+03  0.28834959587E+02  0.29473937183E+03  0.17224159171E+03 0.  0.
        -24    2    5    5    0    0 -0.40845699200E+02 -0.18629001702E+03  0.71316467240E+02  0.21891208211E+03  0.80399748806E+02 0.  0.
          5    1    3    3  501    0  0.34400173862E+02  0.68841627011E+02 -0.28692619985E+02  0.82267235354E+02  0.47000000000E+01 0. -1.
        -11    1    4    4    0    0  0.22339842316E+02  0.42347359622E+02  0.38374291993E+01  0.48032210906E+02  0.00000000000E+00 0.  1.
         12    1    4    4    0    0  0.38387054440E+02  0.10635070384E+03  0.15255117516E+03  0.18988390980E+03  0.00000000000E+00 0. -1.
         -5    1    5    5    0  502 -0.54281371419E+02 -0.31249673455E+02 -0.42481507653E+02  0.75827289722E+02  0.47000000000E+01 0.  1.
         13    1    6    6    0    0 -0.44794391751E+02 -0.47974299526E+02  0.40579944227E+02  0.77167368886E+02  0.00000000000E+00 0. -1.
        -14    1    6    6    0    0  0.39486925513E+01 -0.13831571750E+03  0.30736523012E+02  0.14174471322E+03  0.00000000000E+00 0.  1.
</event>
<event>
12    1  0.1035051E+000  0.1980120E+03  0.7818608E-02  0.1153073E+00
         21   -1    0    0  503  502  0.00000000000E+00  0.00000000000E+00  0.17433833235E+03  0.17433833235E+03  0.00000000000E+00 0. -1.
         21   -1    0    0  501  503 -0.00000000000E+00 -0.00000000000E+00 -0.21800698621E+03  0.21800698621E+03  0.00000000000E+00 0. -1.
          6    2    1    2  501    0 -0.80300404045E+02  0.56174381561E+02 -0.54822560461E+01  0.19808791100E+03  0.17206117900E+03 0.  0.
         24    2    3    3    0    0 -0.11668703704E+03  0.70760592994E+02 -0.30716131889E+01  0.15853230681E+03  0.80623392142E+02 0.  0.
         -6    2    1    2    0  502  0.80300404045E+02 -0.56174381561E+02 -0.38186397806E+02  0.19425740756E+03  0.16332183988E+03 0.  0.
        -24    2    5    5    0    0  0.62801392248E+02  0.10054482533E+02 -0.65214057474E+02  0.12046674256E+03  0.78830547914E+02 0.  0.
          5    1    3    3  501    0  0.36386632991E+02 -0.14586211432E+02 -0.24106428572E+01  0.39555604196E+02  0.47000000000E+01 0. -1.
        -11    1    4    4    0    0 -0.87860384455E+02  0.88245551831E+02 -0.61450803925E+01  0.12467753040E+03  0.00000000000E+00 0.  1.
         12    1    4    4    0    0 -0.28826652581E+02 -0.17484958838E+02  0.30734672036E+01  0.33854776402E+02  0.00000000000E+00 0. -1.
         -5    1    5    5    0  502  0.17499011797E+02 -0.66228864095E+02  0.27027659669E+02  0.73790664994E+02  0.47000000000E+01 0.  1.
         13    1    6    6    0    0  0.75069218825E+02 -0.39780329984E+01 -0.30620915741E+02  0.81171749041E+02  0.00000000000E+00 0. -1.
        -14    1    6    6    0    0 -0.12267826576E+02  0.14032515532E+02 -0.34593141733E+02  0.39294993524E+02  0.00000000000E+00 0.  1.
</event>
<event>
12    1  0.1035051E+000  0.2657035E+03  0.7818608E-02  0.1103905E+00
         21   -1    0    0  503  502  0.00000000000E+00  0.00000000000E+00  0.36148363075E+03  0.36148363075E+03  0.00000000000E+00 0.  1.
         21   -1    0    0  501  503 -0.00000000000E+00 -0.00000000000E+00 -0.36872972741E+03  0.36872972741E+03  0.00000000000E+00 0. -1.
          6    2    1    2  501    0  0.12801884591E+03  0.15735265860E+03  0.24727889126E+03  0.36296719155E+03  0.17160899744E+03 0.  0.
         24    2    3    3    0    0  0.58226316261E+02  0.54349198504E+01  0.84025204637E+02  0.12924972807E+03  0.78901298671E+02 0.  0.
         -6    2    1    2    0  502 -0.12801884591E+03 -0.15735265860E+03 -0.25452498793E+03  0.36724616661E+03  0.17011200233E+03 0.  0.
        -24    2    5    5    0    0 -0.40246896672E+02 -0.15004585221E+03 -0.18717672109E+03  0.25627236998E+03  0.80664938113E+02 0.  0.
          5    1    3    3  501    0  0.69792529649E+02  0.15191773875E+03  0.16325368663E+03  0.23371746349E+03  0.47000000000E+01 0. -1.
        -13    1    4    4    0    0  0.10271380980E+02 -0.31815178927E+02  0.48475570944E+02  0.58886228065E+02  0.00000000000E+00 0.  1.
         14    1    4    4    0    0  0.47954935282E+02  0.37250098778E+02  0.35549633693E+02  0.70363500002E+02  0.00000000000E+00 0. -1.
         -5    1    5    5    0  502 -0.87771949239E+02 -0.73068063873E+01 -0.67348266835E+02  0.11097379663E+03  0.47000000000E+01 0.  1.
         13    1    6    6    0    0 -0.51608861500E+02 -0.52344138876E+02 -0.56489341249E+02  0.92706143997E+02  0.00000000000E+00 0. -1.
        -14    1    6    6    0    0  0.11361964828E+02 -0.97701713336E+02 -0.13068737984E+03  0.16356622599E+03  0.00000000000E+00 0.  1.
</event>
<event>
12    1  0.1035051E+000  0.2385989E+03  0.7818608E-02  0.1120891E+00
         21   -1    0    0  503  502  0.00000000000E+00  0.00000000000E+00  0.32631222127E+03  0.32631222127E+03  0.00000000000E+00 0.  1.
         21   -1    0    0  501  503 -0.00000000000E+00 -0.00000000000E+00 -0.17386723471E+03  0.17386723471E+03  0.00000000000E+00 0.  1.
          6    2    1    2  501    0  0.45393265464E+02  0.15811097436E+03  0.82229745831E+02  0.25146356834E+03  0.17150092226E+03 0.  0.
         24    2    3    3    0    0  0.36698304679E+01  0.10841836742E+02 -0.33534155827E+01  0.76033777704E+02  0.75092455522E+02 0.  0.
         -6    2    1    2    0  502 -0.45393265464E+02 -0.15811097436E+03  0.70215240729E+02  0.24871588765E+03  0.17282877068E+03 0.  0.
        -24    2    5    5    0    0 -0.55514010138E+01 -0.11460052657E+03 -0.19471655881E+02  0.14126188515E+03  0.80072942179E+02 0.  0.
          5    1    3    3  501    0  0.41723434996E+02  0.14726913762E+03  0.85583161414E+02  0.17542979063E+03  0.47000000000E+01 0. -1.
        -13    1    4    4    0    0  0.21630474299E+02  0.48756919066E+01 -0.33657853615E+02  0.40305097691E+02  0.00000000000E+00 0.  1.
         14    1    4    4    0    0 -0.17960643831E+02  0.59661448357E+01  0.30304438032E+02  0.35728680013E+02  0.00000000000E+00 0. -1.
         -5    1    5    5    0  502 -0.39841864451E+02 -0.43510447796E+02  0.89686896610E+02  0.10745400250E+03  0.47000000000E+01 0.  1.
         11    1    6    6    0    0  0.37191894775E+02 -0.50083882167E+02 -0.55588419660E+01  0.62630128643E+02  0.00000000000E+00 0. -1.
        -12    1    6    6    0    0 -0.42743295789E+02 -0.64516644401E+02 -0.13912813914E+02  0.78631756502E+02  0.00000000000E+00 0.  1.
</event>
<event>
12    1  0.1035051E+000  0.2876150E+03  0.7818608E-02  0.1091802E+00
         21   -1    0    0  503  502  0.00000000000E+00  0.00000000000E+00  0.17723657663E+04  0.17723657663E+04  0.00000000000E+00 0. -1.
         21   -1    0    0  501  503 -0.00000000000E+00 -0.00000000000E+00 -0.67942135350E+02  0.67942135350E+02  0.00000000000E+00 0.  1.
          6    2    1    2  501    0  0.19212000252E+03 -0.12571692780E+03  0.13684670164E+04  0.13980531899E+04  0.17069242973E+03 0.  0.
         24    2    3    3    0    0  0.18606354384E+03 -0.13841329711E+03  0.13573029615E+04  0.13794896610E+04  0.83321739357E+02 0.  0.
         -6    2    1    2    0  502 -0.19212000252E+03  0.12571692780E+03  0.33595661451E+03  0.44225471169E+03  0.17322685091E+03 0.  0.
        -24    2    5    5    0    0 -0.80322505523E+02  0.12723592783E+03  0.16955903882E+03  0.24172732979E+03  0.83911549244E+02 0.  0.
          5    1    3    3  501    0  0.60564586774E+01  0.12696369307E+02  0.11164054889E+02  0.18563528944E+02  0.47000000000E+01 0. -1.
        -11    1    4    4    0    0  0.10427646060E+03 -0.98610210696E+02  0.60918700718E+03  0.62586449301E+03  0.00000000000E+00 0.  1.
         12    1    4    4    0    0  0.81787083248E+02 -0.39803086410E+02  0.74811595434E+03  0.75362516798E+03  0.00000000000E+00 0. -1.
         -5    1    5    5    0  502 -0.11179749700E+03 -0.15190000354E+01  0.16639757569E+03  0.20052738190E+03  0.47000000000E+01 0.  1.
         13    1    6    6    0    0 -0.45577849570E+02  0.53631471547E+02  0.13708120684E+03  0.15409390767E+03  0.00000000000E+00 0. -1.
        -14    1    6    6    0    0 -0.34744655953E+02  0.73604456287E+02  0.32477831979E+02  0.87633422121E+02  0.00000000000E+00 0.  1.
</event>
<event>
12    1  0.1035051E+000  0.2019765E+03  0.7818608E-02  0.1148424E+00
         21   -1    0    0  503  502  0.00000000000E+00  0.00000000000E+00  0.40410516810E+03  0.40410516810E+03  0.00000000000E+00 0.  1.
         21   -1    0    0  501  503 -0.00000000000E+00 -0.00000000000E+00 -0.21854097005E+03  0.21854097005E+03  0.00000000000E+00 0. -1.
          6    2    1    2  501    0 -0.96982565394E+02 -0.44775025237E+02  0.32210969092E+03  0.38019618616E+03  0.17141781154E+03 0.  0.
         24    2    3    3    0    0 -0.45437360684E+02 -0.19086547946E+02  0.30644944381E+03  0.32032850428E+03  0.79184840640E+02 0.  0.
         -6    2    1    2    0  502  0.96982565394E+02  0.44775025237E+02 -0.13654549287E+03  0.24244995198E+03  0.16949007852E+03 0.  0.
        -24    2    5    5    0    0  0.37470534721E+02 -0.32213177749E+02 -0.20226538822E+02  0.90723045125E+02  0.73347312501E+02 0.  0.
          5    1    3    3  501    0 -0.51545204710E+02 -0.25688477291E+02  0.15660247109E+02  0.59867681880E+02  0.47000000000E+01 0. -1.
        -11    1    4    4    0    0 -0.43872559469E+01  0.27476450873E+02  0.13867545405E+03  0.14143933301E+03  0.00000000000E+00 0.  1.
         12    1    4    4    0    0 -0.41050104737E+02 -0.46562998819E+02  0.16777398976E+03  0.17888917127E+03  0.00000000000E+00 0. -1.
         -5    1    5    5    0  502  0.59512030673E+02  0.76988202987E+02 -0.11631895405E+03  0.15172690686E+03  0.47000000000E+01 0.  1.
         11    1    6    6    0    0 -0.86513078485E+01 -0.16428461811E+02 -0.35140867066E+02  0.39744433863E+02  0.00000000000E+00 0. -1.
        -12    1    6    6    0    0  0.46121842570E+02 -0.15784715938E+02  0.14914328244E+02  0.50978611262E+02  0.00000000000E+00 0.  1.
</event>
<event>
12    1  0.1035051E+000  0.2063961E+03  0.7818608E-02  0.1144597E+00
         21   -1    0    0  501  502  0.00000000000E+00  0.00000000000E+00  0.10904041937E+03  0.10904041937E+03  0.00000000000E+00 0. -1.
         21   -1    0    0  502  503 -0.00000000000E+00 -0.00000000000E+00 -0.40606145205E+03  0.40606145205E+03  0.00000000000E+00 0. -1.
         -6    2    1    2    0  503 -0.11180847644E+03 -0.22283093098E+02 -0.20055023034E+03  0.28727303457E+03  0.17119500536E+03 0.  0.
        -24    2    3    3    0    0 -0.14118421783E+03  0.69369362374E+01 -0.17079080865E+03  0.23604357551E+03  0.81030640949E+02 0.  0.
          6    2    1    2  501    0  0.11180847644E+03  0.22283093098E+02 -0.96470802343E+02  0.22782883684E+03  0.17205142124E+03 0.  0.
         24    2    5    5    0    0  0.13290482074E+03 -0.13452367562E+02 -0.46706120721E+02  0.16286198046E+03  0.80609586262E+02 0.  0.
          5    1    5    5  501    0 -0.21096344304E+02  0.35735460660E+02 -0.49764681623E+02  0.64966856385E+02  0.47000000000E+01 0. -1.
        -11    1    6    6    0    0  0.12232540981E+03  0.16815599112E+02 -0.31812006234E+02  0.12750793701E+03  0.00000000000E+00 0.  1.
         12    1    6    6    0    0  0.10579410931E+02 -0.30267966674E+02 -0.14894114487E+02  0.35354043454E+02  0.00000000000E+00 0. -1.
         -5    1    3    3    0  503  0.29375741388E+02 -0.29220029335E+02 -0.29759421687E+02  0.51229459061E+02  0.47000000000E+01 0.  1.
         11    1    4    4    0    0 -0.25581231349E+02 -0.26084821713E+01 -0.92724775153E+02  0.96224152393E+02  0.00000000000E+00 0. -1.
        -12    1    4    4    0    0 -0.11560298648E+03  0.95454184086E+01 -0.78066033502E+02  0.13981942312E+03  0.00000000000E+00 0.  1.
</event>
<event>
12    1  0.1035051E+000  0.2167780E+03  0.7818608E-02  0.1136345E+00
         21   -1    0    0  501  502  0.00000000000E+00  0.00000000000E+00  0.29324923621E+03  0.29324923621E+03  0.00000000000E+00 0.  1.
         21   -1    0    0  502  503 -0.00000000000E+00 -0.00000000000E+00 -0.18712425086E+03  0.18712425086E+03  0.00000000000E+00 0.  1.
         -6    2    1    2    0  503  0.86946139298E+02 -0.99381357178E+02  0.14431148472E+03  0.26025778578E+03  0.17167418310E+03 0.  0.
        -24    2    3    3    0    0  0.10958575461E+03 -0.12316732769E+03  0.12221370259E+03  0.22039895301E+03  0.80375874262E+02 0.  0.
          6    2    1    2  501    0 -0.86946139298E+02  0.99381357178E+02 -0.38186499368E+02  0.22011570128E+03  0.17191982994E+03 0.  0.
         24    2    5    5    0    0 -0.67475815614E+02 -0.10234757287E+02 -0.11961615249E+02  0.10564028645E+03  0.79743676441E+02 0.  0.
          5    1    5    5  501    0 -0.19470323684E+02  0.10961611446E+03 -0.26224884120E+02  0.11447541484E+03  0.47000000000E+01 0. -1.
        -11    1    6    6    0    0 -0.93914742858E+00  0.67033335313E+01  0.26219639321E+02  0.27079257088E+02  0.00000000000E+00 0.  1.
         12    1    6    6    0    0 -0.66536668185E+02 -0.16938090818E+02 -0.38181254570E+02  0.78561029361E+02  0.00000000000E+00 0. -1.
         -5    1    3    3    0  503 -0.22639615312E+02  0.23785970511E+02  0.22097782131E+02  0.39858832769E+02  0.47000000000E+01 0.  1.
         11    1    4    4    0    0  0.13038055153E+02 -0.73853277571E+02  0.50556547830E+02  0.90444800948E+02  0.00000000000E+00 0. -1.
        -12    1    4    4    0    0  0.96547699457E+02 -0.49314050118E+02  0.71657154759E+02  0.12995415206E+03  0.00000000000E+00 0.  1.
</event>
<event>
12    1  0.1035051E+000  0.2325585E+03  0.7818608E-02  0.1124993E+00
         21   -1    0    0  503  502  0.00000000000E+00  0.00000000000E+00  0.10142051664E+03  0.10142051664E+03  0.00000000000E+00 0.  1.
         21   -1    0    0  501  503 -0.00000000000E+00 -0.00000000000E+00 -0.54565049599E+03  0.54565049599E+03  0.00000000000E+00 0.  1.
          6    2    1    2  501    0 -0.15144839627E+03  0.29732846990E+02 -0.16945478046E+03  0.28709200664E+03  0.17287636834E+03 0.  0.
         24    2    3    3    0    0 -0.14919593864E+03  0.66962462342E+02 -0.17095208509E+03  0.24946954333E+03  0.79164627077E+02 0.  0.
         -6    2    1    2    0  502  0.15144839627E+03 -0.29732846990E+02 -0.27477519889E+03  0.35997900598E+03  0.17396211053E+03 0.  0.
        -24    2    5    5    0    0  0.17279853810E+03 -0.47623141769E+02 -0.17297286425E+03  0.25433007536E+03  0.51350531311E+02 0.  0.
          5    1    3    3  501    0 -0.22524576303E+01 -0.37229615352E+02  0.14973046301E+01  0.37622463314E+02  0.47000000000E+01 0. -1.
        -11    1    4    4    0    0 -0.41550047810E+02  0.35998002259E+01 -0.93799562171E+02  0.10265341153E+03  0.00000000000E+00 0.  1.
         12    1    4    4    0    0 -0.10764589083E+03  0.63362662116E+02 -0.77152522921E+02  0.14681613180E+03  0.00000000000E+00 0. -1.
         -5    1    5    5    0  502 -0.21350141823E+02  0.17890294779E+02 -0.10180233464E+03  0.10564893062E+03  0.47000000000E+01 0.  1.
         11    1    6    6    0    0  0.55863922285E+02 -0.27800222538E+02 -0.90278518203E+02  0.10974443510E+03  0.00000000000E+00 0. -1.
        -12    1    6    6    0    0  0.11693461581E+03 -0.19822919231E+02 -0.82694346047E+02  0.14458564026E+03  0.00000000000E+00 0.  1.
</event>
<event>
12    1  0.1035051E+000  0.2437683E+03  0.7818608E-02  0.1117376E+00
         21   -1    0    0  503  502  0.00000000000E+00  0.00000000000E+00  0.57367393674E+02  0.57367393674E+02  0.00000000000E+00 0. -1.
         21   -1    0    0  501  503 -0.00000000000E+00 -0.00000000000E+00 -0.12903680500E+04  0.12903680500E+04  0.00000000000E+00 0. -1.
          6    2    1    2  501    0  0.15299053599E+03  0.79358331476E+02 -0.91725239221E+03  0.94909163127E+03  0.17239235672E+03 0.  0.
         24    2    3    3    0    0  0.76438692459E+02  0.10682143292E+03 -0.46193704610E+03  0.48654589181E+03  0.78021651108E+02 0.  0.
         -6    2    1    2    0  502 -0.15299053599E+03 -0.79358331476E+02 -0.31574826415E+03  0.39864381244E+03  0.17180242723E+03 0.  0.
        -24    2    5    5    0    0 -0.11433947577E+03 -0.11058777828E+03 -0.18309654280E+03  0.25691254566E+03  0.84714459859E+02 0.  0.
          5    1    3    3  501    0  0.76551843536E+02 -0.27463101446E+02 -0.45531534611E+03  0.46254573946E+03  0.47000000000E+01 0. -1.
        -11    1    4    4    0    0  0.65304173225E+02  0.47167946926E+02 -0.35069620534E+03  0.35982951338E+03  0.00000000000E+00 0.  1.
         12    1    4    4    0    0  0.11134519234E+02  0.59653485996E+02 -0.11124084076E+03  0.12671637843E+03  0.00000000000E+00 0. -1.
         -5    1    5    5    0  502 -0.38651060222E+02  0.31229446804E+02 -0.13265172136E+03  0.14173126678E+03  0.47000000000E+01 0.  1.
         11    1    6    6    0    0 -0.36933398771E+02 -0.21645220378E+02 -0.11036362966E+03  0.11837534482E+03  0.00000000000E+00 0. -1.
        -12    1    6    6    0    0 -0.77406077002E+02 -0.88942557901E+02 -0.72732913136E+02  0.13853720084E+03  0.00000000000E+00 0.  1.
</event>
<event>
12    1  0.1035051E+000  0.3846438E+03  0.7818608E-02  0.1049243E+00
         21   -1    0    0  501  502  0.00000000000E+00  0.00000000000E+00  0.71042738657E+03  0.71042738657E+03  0.00000000000E+00 0.  1.
         21   -1    0    0  502  503 -0.00000000000E+00 -0.00000000000E+00 -0.21313833834E+03  0.21313833834E+03  0.00000000000E+00 0.  1.
         -6    2    1    2    0  503  0.30159878846E+03 -0.16570653356E+03  0.31901662904E+03  0.49961770265E+03  0.17153936786E+03 0.  0.
        -24    2    3    3    0    0  0.11178491571E+03 -0.82254455555E+02  0.20993634571E+03  0.26528001079E+03  0.83896078795E+02 0.  0.
          6    2    1    2  501    0 -0.30159878846E+03  0.16570653356E+03  0.17827241919E+03  0.42394802227E+03  0.17184407372E+03 0.  0.
         24    2    5    5    0    0 -0.13692838450E+03  0.15532237014E+03  0.10202020321E+03  0.24212210763E+03  0.73079217249E+02 0.  0.
          5    1    5    5  501    0 -0.16467040396E+03  0.10384163429E+02  0.76252215981E+02  0.18182591464E+03  0.47000000000E+01 0. -1.
        -13    1    6    6    0    0 -0.10234267515E+02  0.19563835290E+02 -0.11074128700E+02  0.24700611517E+02  0.00000000000E+00 0.  1.
         14    1    6    6    0    0 -0.12669411698E+03  0.13575853484E+03  0.11309433191E+03  0.21742149611E+03  0.00000000000E+00 0. -1.
         -5    1    3    3    0  503  0.18981387275E+03 -0.83452078009E+02  0.10908028333E+03  0.23433769185E+03  0.47000000000E+01 0.  1.
         11    1    4    4    0    0  0.49037209293E+02  0.10468371689E+02  0.68637228925E+02  0.85001787602E+02  0.00000000000E+00 0. -1.
        -12    1    4    4    0    0  0.62747706422E+02 -0.92722827244E+02  0.14129911679E+03  0.18027822319E+03  0.00000000000E+00 0.  1.
</event>
<event>
12    1  0.1035051E+000  0.3168566E+03  0.7818608E-02  0.1077199E+00
         21   -1    0    0  503  502  0.00000000000E+00  0.00000000000E+00  0.17926423906E+03  0.17926423906E+03  0.00000000000E+00 0.  1.
         21   -1    0    0  501  503 -0.00000000000E+00 -0.00000000000E+00 -0.74449186300E+03  0.74449186300E+03  0.00000000000E+00 0.  1.
          6    2    1    2  501    0 -0.50745387862E+02  0.26007439545E+03 -0.52112060005E+02  0.32111333862E+03  0.17373636316E+03 0.  0.
         24    2    3    3    0    0 -0.23512641707E+02  0.20160877630E+03 -0.10052875944E+03  0.24032894737E+03  0.80330744225E+02 0.  0.
         -6    2    1    2    0  502  0.50745387862E+02 -0.26007439545E+03 -0.51311556393E+03  0.60264276344E+03  0.17226994173E+03 0.  0.
        -24    2    5    5    0    0  0.83294251326E+02 -0.17842224802E+03 -0.44322164312E+03  0.49024279965E+03  0.71555200995E+02 0.  0.
          5    1    3    3  501    0 -0.27232746156E+02  0.58465619146E+02  0.48416699433E+02  0.80784391248E+02  0.47000000000E+01 0. -1.
        -13    1    4    4    0    0  0.16030071532E+02  0.15121215681E+03 -0.54838391149E+02  0.16164568879E+03  0.00000000000E+00 0.  1.
         14    1    4    4    0    0 -0.39542713239E+02  0.50396619494E+02 -0.45690368289E+02  0.78683258582E+02  0.00000000000E+00 0. -1.
         -5    1    5    5    0  502 -0.32548863464E+02 -0.81652147435E+02 -0.69893920804E+02  0.11239996379E+03  0.47000000000E+01 0.  1.
         13    1    6    6    0    0  0.10726335319E+02 -0.53165320167E+02 -0.19979474632E+03  0.20702547233E+03  0.00000000000E+00 0. -1.
        -14    1    6    6    0    0  0.72567916007E+02 -0.12525692785E+03 -0.24342689680E+03  0.28321732732E+03  0.00000000000E+00 0.  1.
</event>
<event>
12    1  0.1035051E+000  0.2355489E+03  0.7818608E-02  0.1122887E+00
         21   -1    0    0  503  502  0.00000000000E+00  0.00000000000E+00  0.15079010481E+03  0.15079010481E+03  0.00000000000E+00 0. -1.
         21   -1    0    0  501  503 -0.00000000000E+00 -0.00000000000E+00 -0.37264687625E+03  0.37264687625E+03  0.00000000000E+00 0. -1.
          6    2    1    2  501    0 -0.12242968569E+03 -0.10328117908E+03 -0.14298272776E+03  0.27554916248E+03  0.17270567626E+03 0.  0.
         24    2    3    3    0    0 -0.89106781422E+02 -0.98723170121E+02 -0.31084666574E+02  0.15861132647E+03  0.80653664350E+02 0.  0.
         -6    2    1    2    0  502  0.12242968569E+03  0.10328117908E+03 -0.78874043676E+02  0.24788781859E+03  0.17196286211E+03 0.  0.
        -24    2    5    5    0    0  0.82658461660E+01  0.15599776038E+02 -0.63264051726E+02  0.10301831681E+03  0.79364703321E+02 0.  0.
          5    1    3    3  501    0 -0.33322904265E+02 -0.45580089642E+01 -0.11189806118E+03  0.11693783601E+03  0.47000000000E+01 0. -1.
        -11    1    4    4    0    0 -0.42040241766E+02 -0.38940153609E+01 -0.31611350381E+02  0.52742987745E+02  0.00000000000E+00 0.  1.
         12    1    4    4    0    0 -0.47066539656E+02 -0.94829154760E+02  0.52668380665E+00  0.10586833872E+03  0.00000000000E+00 0. -1.
         -5    1    5    5    0  502  0.11416383952E+03  0.87681403047E+02 -0.15609991949E+02  0.14486950177E+03  0.47000000000E+01 0.  1.
         13    1    6    6    0    0 -0.17488468694E+02  0.11690377849E+02  0.11409995748E+02  0.23931140267E+02  0.00000000000E+00 0. -1.
        -14    1    6    6    0    0  0.25754314860E+02  0.39093981891E+01 -0.74674047474E+02  0.79087176548E+02  0.00000000000E+00 0.  1.
</event>
<event>
12    1  0.1035051E+000  0.3541998E+03  0.7818608E-02  0.1060914E+00
         21   -1    0    0  501  502  0.00000000000E+00  0.00000000000E+00  0.49116319244E+03  0.49116319244E+03  0.00000000000E+00 0. -1.
         21   -1    0    0  502  503 -0.00000000000E+00 -0.00000000000E+00 -0.31689002970E+03  0.31689002970E+03  0.00000000000E+00 0. -1.
         -6    2    1    2    0  503  0.30710117212E+03 -0.42778195427E+02 -0.90900985308E+02  0.36558869935E+03  0.17102924907E+03 0.  0.
        -24    2    3    3    0    0  0.14757382199E+03 -0.71043153830E+02 -0.91682055962E+02  0.20350667263E+03  0.78639708643E+02 0.  0.
          6    2    1    2  501    0 -0.30710117212E+03  0.42778195427E+02  0.26517414805E+03  0.44246452279E+03  0.17122038785E+03 0.  0.
         24    2    5    5    0    0 -0.19506797266E+03 -0.39820117074E+02  0.16598606953E+03  0.27148416155E+03  0.80716287167E+02 0.  0.
          5    1    5    5  501    0 -0.11203319946E+03  0.82598312502E+02  0.99188078524E+02  0.17098036124E+03  0.47000000000E+01 0. -1.
        -11    1    6    6    0    0 -0.13257354023E+03 -0.52288834464E+02  0.76855404186E+02  0.16191546848E+03  0.00000000000E+00 0.  1.
         12    1    6    6    0    0 -0.62494432430E+02  0.12468717390E+02  0.89130665341E+02  0.10956869307E+03  0.00000000000E+00 0. -1.
         -5    1    3    3    0  503  0.15952735013E+03  0.28264958402E+02  0.78107065392E+00  0.16208202672E+03  0.47000000000E+01 0.  1.
         11    1    4    4    0    0 -0.51418724885E+01 -0.12361653461E+02 -0.21847281105E+02  0.25623290590E+02  0.00000000000E+00 0. -1.
        -12    1    4    4    0    0  0.15271569448E+03 -0.58681500369E+02 -0.69834774858E+02  0.17788338204E+03  0.00000000000E+00 0.  1.
</event>
<event>
12    1  0.1035051E+000  0.2963822E+03  0.7818608E-02  0.1087211E+00
         21   -1    0    0  501  502  0.00000000000E+00  0.00000000000E+00  0.26714162713E+03  0.26714162713E+03  0.00000000000E+00 0.  1.
         21   -1    0    0  502  503 -0.00000000000E+00 -0.00000000000E+00 -0.36547821908E+03  0.36547821908E+03  0.00000000000E+00 0.  1.
         -6    2    1    2    0  503  0.40975948636E+01  0.24128009609E+03 -0.15100036626E+03  0.33159513962E+03  0.17006278533E+03 0.  0.
        -24    2    3    3    0    0  0.19064340167E+02  0.25060521972E+03 -0.16330795535E+03  0.30958313960E+03  0.77497140802E+02 0.  0.
          6    2    1    2  501    0 -0.40975948636E+01 -0.24128009609E+03  0.52663774315E+02  0.30102470659E+03  0.17207418690E+03 0.  0.
         24    2    5    5    0    0 -0.52584235393E+02 -0.10517115279E+03 -0.12164203401E+02  0.14259063370E+03  0.79737367551E+02 0.  0.
          5    1    5    5  501    0  0.48486640529E+02 -0.13610894330E+03  0.64827977716E+02  0.15843407288E+03  0.47000000000E+01 0. -1.
        -11    1    6    6    0    0  0.18216892632E+02 -0.19196095540E+02  0.11291065723E+02  0.28772094577E+02  0.00000000000E+00 0.  1.
         12    1    6    6    0    0 -0.70801128026E+02 -0.85975057253E+02 -0.23455269124E+02  0.11381853913E+03  0.00000000000E+00 0. -1.
         -5    1    3    3    0  503 -0.14966745304E+02 -0.93251236253E+01  0.12307589084E+02  0.22012000016E+02  0.47000000000E+01 0.  1.
         11    1    4    4    0    0  0.13896309455E+02  0.15081646428E+03 -0.52309933425E+02  0.16023433605E+03  0.00000000000E+00 0. -1.
        -12    1    4    4    0    0  0.51680307121E+01  0.99788755440E+02 -0.11099802192E+03  0.14934880356E+03  0.00000000000E+00 0.  1.
</event>
<event>
12    1  0.1035051E+000  0.1906167E+03  0.7818608E-02  0.1158129E+00
         21   -1    0    0  501  502  0.00000000000E+00  0.00000000000E+00  0.10530353559E+03  0.10530353559E+03  0.00000000000E+00 0. -1.
         21   -1    0    0  502  503 -0.00000000000E+00 -0.00000000000E+00 -0.35872587497E+03  0.35872587497E+03  0.00000000000E+00 0. -1.
         -6    2    1    2    0  503  0.69561540244E+02  0.41028509608E+02 -0.17520791248E+03  0.25890640367E+03  0.17266315989E+03 0.  0.
        -24    2    3    3    0    0  0.98875761883E+02 -0.13049619962E+02 -0.10431165970E+03  0.16492695727E+03  0.79832762792E+02 0.  0.
          6    2    1    2  501    0 -0.69561540244E+02 -0.41028509608E+02 -0.78214426909E+02  0.20512300689E+03  0.17156865943E+03 0.  0.
         24    2    5    5    0    0  0.19506473900E+02  0.15960689892E+02 -0.34354400835E+02  0.90551318022E+02  0.79900376676E+02 0.  0.
          5    1    5    5  501    0 -0.89068014144E+02 -0.56989199500E+02 -0.43860026074E+02  0.11457168887E+03  0.47000000000E+01 0. -1.
        -11    1    6    6    0    0  0.73921285164E+01 -0.40782070654E+01 -0.57210176292E+02  0.57829746742E+02  0.00000000000E+00 0.  1.
         12    1    6    6    0    0  0.12114345384E+02  0.20038896957E+02  0.22855775457E+02  0.32721571281E+02  0.00000000000E+00 0. -1.
         -5    1    3    3    0  503 -0.29314221639E+02  0.54078129570E+02 -0.70896252776E+02  0.93979446401E+02  0.47000000000E+01 0.  1.
         11    1    4    4    0    0  0.42556853812E+02 -0.29677161237E+02 -0.90943825656E+02  0.10470243135E+03  0.00000000000E+00 0. -1.
        -12    1    4    4    0    0  0.56318908071E+02  0.16627541275E+02 -0.13367834047E+02  0.60224525920E+02  0.00000000000E+00 0.  1.
</event>
<event>
12    1  0.1035051E+000  0.3963534E+03  0.7818608E-02  0.1045107E+00
         21   -1    0    0  503  502  0.00000000000E+00  0.00000000000E+00  0.25351633172E+03  0.25351633172E+03  0.00000000000E+00 0.  1.
         21   -1    0    0  501  503 -0.00000000000E+00 -0.00000000000E+00 -0.62484164822E+03  0.62484164822E+03  0.00000000000E+00 0.  1.
          6    2    1    2  501    0  0.20999266925E+03  0.28872436392E+03 -0.14205898575E+03  0.42104250688E+03  0.17215503976E+03 0.  0.
         24    2    3    3    0    0  0.49712042974E+02  0.17002643630E+03 -0.97513492647E+02  0.21662756581E+03  0.77706787113E+02 0.  0.
         -6    2    1    2    0  502 -0.20999266925E+03 -0.28872436392E+03 -0.22926633075E+03  0.45731547306E+03  0.17063326765E+03 0.  0.
        -24    2    5    5    0    0 -0.97053745103E+02 -0.16819687699E+03 -0.56707372984E+02  0.21839967284E+03  0.82298676030E+02 0.  0.
          5    1    3    3  501    0  0.16028062627E+03  0.11869792762E+03 -0.44545493101E+02  0.20441494108E+03  0.47000000000E+01 0. -1.
        -11    1    4    4    0    0 -0.27708814332E+01  0.42530159597E+02 -0.60257345716E+02  0.73806774567E+02  0.00000000000E+00 0.  1.
         12    1    4    4    0    0  0.52482924407E+02  0.12749627670E+03 -0.37256146930E+02  0.14282079124E+03  0.00000000000E+00 0. -1.
         -5    1    5    5    0  502 -0.11293892414E+03 -0.12052748693E+03 -0.17255895777E+03  0.23891580022E+03  0.47000000000E+01 0.  1.
         11    1    6    6    0    0 -0.77298407520E+02 -0.12804342441E+03 -0.78177333738E+02  0.16876568920E+03  0.00000000000E+00 0. -1.
        -12    1    6    6    0    0 -0.19755337584E+02 -0.40153452578E+02  0.21469960754E+02  0.49633983638E+02  0.00000000000E+00 0.  1.
</event>
<event>
12    1  0.1035051E+000  0.3611364E+03  0.7818608E-02  0.1058136E+00
         21   -1    0    0  503  502  0.00000000000E+00  0.00000000000E+00  0.42848153751E+03  0.42848153751E+03  0.00000000000E+00 0.  1.
         21   -1    0    0  501  503 -0.00000000000E+00 -0.00000000000E+00 -0.49223009967E+03  0.49223009967E+03  0.00000000000E+00 0.  1.
          6    2    1    2  501    0  0.27578534137E+03 -0.15736046533E+03  0.25252688773E+03  0.44065988412E+03  0.17202160876E+03 0.  0.
         24    2    3    3    0    0  0.26347102455E+03 -0.17731416191E+03  0.20211770498E+03  0.38486590495E+03  0.80080617697E+02 0.  0.
         -6    2    1    2    0  502 -0.27578534137E+03  0.15736046533E+03 -0.31627544990E+03  0.48005175307E+03  0.17204550228E+03 0.  0.
        -24    2    5    5    0    0 -0.20045174673E+03  0.18030812925E+03 -0.23196010498E+03  0.36458351869E+03  0.80148160056E+02 0.  0.
          5    1    3    3  501    0  0.12314316818E+02  0.19953696585E+02  0.50409182750E+02  0.55793979170E+02  0.47000000000E+01 0. -1.
        -11    1    4    4    0    0  0.79535980114E+02 -0.97773682355E+02  0.62939774918E+02  0.14087966624E+03  0.00000000000E+00 0.  1.
         12    1    4    4    0    0  0.18393504443E+03 -0.79540479559E+02  0.13917793007E+03  0.24398623870E+03  0.00000000000E+00 0. -1.
         -5    1    5    5    0  502 -0.75333594640E+02 -0.22947663922E+02 -0.84315344922E+02  0.11546823438E+03  0.47000000000E+01 0.  1.
         11    1    6    6    0    0 -0.24753148135E+02  0.14261776692E+02 -0.64378305398E+02  0.70432114996E+02  0.00000000000E+00 0. -1.
        -12    1    6    6    0    0 -0.17569859859E+03  0.16604635256E+03 -0.16758179958E+03  0.29415140369E+03  0.00000000000E+00 0.  1.
</event>
<event>
12    1  0.1035051E+000  0.2286049E+03  0.7818608E-02  0.1128044E+00
         21   -1    0    0  503  502  0.00000000000E+00  0.00000000000E+00  0.31833830830E+03  0.31833830830E+03  0.00000000000E+00 0.  1.
         21   -1    0    0  501  503 -0.00000000000E+00 -0.00000000000E+00 -0.17166976300E+03  0.17166976300E+03  0.00000000000E+00 0.  1.
          6    2    1    2  501    0 -0.79553466703E+02  0.13028606475E+03  0.16305950618E+02  0.22684538973E+03  0.16700219784E+03 0.  0.
         24    2    3    3    0    0 -0.69086864728E+02  0.10058816333E+03  0.72756052487E+02  0.16203629233E+03  0.77918825563E+02 0.  0.
         -6    2    1    2    0  502  0.79553466703E+02 -0.13028606475E+03  0.13036259468E+03  0.26316268156E+03  0.17016750025E+03 0.  0.
        -24    2    5    5    0    0  0.58365016356E+02 -0.20266840468E+02  0.30073531103E+02  0.11271944837E+03  0.89353437598E+02 0.  0.
          5    1    3    3  501    0 -0.10466601975E+02  0.29697901422E+02 -0.56450101869E+02  0.64809097408E+02  0.47000000000E+01 0. -1.
        -13    1    4    4    0    0 -0.43136191531E+02  0.30596990852E+01  0.15093744278E+02  0.45802990018E+02  0.00000000000E+00 0.  1.
         14    1    4    4    0    0 -0.25950673197E+02  0.97528464246E+02  0.57662308209E+02  0.11623330231E+03  0.00000000000E+00 0. -1.
         -5    1    5    5    0  502  0.21188450347E+02 -0.11001922429E+03  0.10028906358E+03  0.15044323320E+03  0.47000000000E+01 0.  1.
         13    1    6    6    0    0  0.46942723081E+02 -0.53369021629E+02  0.84829555766E+01  0.71580948969E+02  0.00000000000E+00 0. -1.
        -14    1    6    6    0    0  0.11422293275E+02  0.33102181161E+02  0.21590575527E+02  0.41138499399E+02  0.00000000000E+00 0.  1.
</event>
<event>
12    1  0.1035051E+000  0.2049716E+03  0.7818608E-02  0.1145711E+00
         21   -1    0    0  501  502  0.00000000000E+00  0.00000000000E+00  0.15800186161E+03  0.15800186161E+03  0.00000000000E+00 0.  1.
         21   -1    0    0  502  503 -0.00000000000E+00 -0.00000000000E+00 -0.26690715497E+03  0.26690715497E+03  0.00000000000E+00 0. -1.
         -6    2    1    2    0  503 -0.24751717978E+02 -0.10873704459E+03 -0.71144786702E+02  0.21696761957E+03  0.17197957686E+03 0.  0.
        -24    2    3    3    0    0 -0.65262402427E+02 -0.26147930314E+02 -0.64028656754E+02  0.12458360225E+03  0.80489189540E+02 0.  0.
          6    2    1    2  501    0  0.24751717978E+02  0.10873704459E+03 -0.37760506658E+02  0.20794139702E+03  0.17139829731E+03 0.  0.
         24    2    5    5    0    0 -0.18104227370E+02  0.10547380265E+03 -0.73543240966E+02  0.15181854183E+03  0.78662413239E+02 0.  0.
          5    1    5    5  501    0  0.42855945348E+02  0.32632419350E+01  0.35782734308E+02  0.56122855186E+02  0.47000000000E+01 0. -1.
        -13    1    6    6    0    0  0.72047887260E+01  0.51192918753E+02  0.62231839264E+01  0.52070643641E+02  0.00000000000E+00 0.  1.
         14    1    6    6    0    0 -0.25309016096E+02  0.54280883901E+02 -0.79766424893E+02  0.99747898188E+02  0.00000000000E+00 0. -1.
         -5    1    3    3    0  503  0.40510684450E+02 -0.82589114276E+02 -0.71161299479E+01  0.92384017323E+02  0.47000000000E+01 0.  1.
         13    1    4    4    0    0 -0.17210639685E+02  0.29001840151E+02 -0.20220400135E+02  0.39321462742E+02  0.00000000000E+00 0. -1.
        -14    1    4    4    0    0 -0.48051762742E+02 -0.55149770465E+02 -0.43808256619E+02  0.85262139505E+02  0.00000000000E+00 0.  1.
</event>
<event>
12    1  0.1035051E+000  0.1965332E+03  0.7818608E-02  0.1152729E+00
         21   -1    0    0  503  502  0.00000000000E+00  0.00000000000E+00  0.25478996192E+02  0.25478996192E+02  0.00000000000E+00 0. -1.
         21   -1    0    0  501  503 -0.00000000000E+00 -0.00000000000E+00 -0.15709300767E+04  0.15709300767E+04  0.00000000000E+00 0. -1.
          6    2    1    2  501    0 -0.36446269790E+02  0.90906659887E+02 -0.62219011330E+03  0.65249200484E+03  0.17039051588E+03 0.  0.
         24    2    3    3    0    0 -0.80549013734E+02  0.50121387421E+02 -0.53784484959E+03  0.54883534088E+03  0.54248060586E+02 0.  0.
         -6    2    1    2    0  502  0.36446269790E+02 -0.90906659887E+02 -0.92326096720E+03  0.94391706804E+03  0.17022416513E+03 0.  0.
        -24    2    5    5    0    0 -0.42542694233E+02 -0.53521049467E+02 -0.59353203131E+03  0.60277164236E+03  0.79868623809E+02 0.  0.
          5    1    3    3  501    0  0.44102743944E+02  0.40785272466E+02 -0.84345263713E+02  0.10365666397E+03  0.47000000000E+01 0. -1.
        -11    1    4    4    0    0 -0.66357131703E+02  0.59756758906E+02 -0.39522094906E+03  0.40518358523E+03  0.00000000000E+00 0.  1.
         12    1    4    4    0    0 -0.14191882031E+02 -0.96353714846E+01 -0.14262390053E+03  0.14365175565E+03  0.00000000000E+00 0. -1.
         -5    1    5    5    0  502  0.78988964023E+02 -0.37385610420E+02 -0.32972893589E+03  0.34114542568E+03  0.47000000000E+01 0.  1.
         13    1    6    6    0    0 -0.63882960219E+02 -0.39767663680E+02 -0.35471566449E+03  0.36260957284E+03  0.00000000000E+00 0. -1.
        -14    1    6    6    0    0  0.21340265986E+02 -0.13753385788E+02 -0.23881636682E+03  0.24016206951E+03  0.00000000000E+00 0.  1.
</event>
<event>
12    1  0.1035051E+000  0.2667928E+03  0.7818608E-02  0.1103643E+00
         21   -1    0    0  503  502  0.00000000000E+00  0.00000000000E+00  0.18126893246E+03  0.18126893246E+03  0.00000000000E+00 0. -1.
         21   -1    0    0  501  503 -0.00000000000E+00 -0.00000000000E+00 -0.39104843696E+03  0.39104843696E+03  0.00000000000E+00 0. -1.
          6    2    1    2  501    0 -0.35662879180E+02  0.19470878207E+03 -0.13137833327E+03  0.29424337452E+03  0.17359592804E+03 0.  0.
         24    2    3    3    0    0 -0.59668928862E+02  0.18766128330E+03 -0.15223706343E+03  0.26133236901E+03  0.79632564267E+02 0.  0.
         -6    2    1    2    0  502  0.35662879180E+02 -0.19470878207E+03 -0.78401171230E+02  0.27807399489E+03  0.17887160819E+03 0.  0.
        -24    2    5    5    0    0 -0.21989172755E+02 -0.13826888041E+03 -0.10596160219E+03  0.19268729249E+03  0.79364504299E+02 0.  0.
          5    1    3    3  501    0  0.24006049682E+02  0.70474987719E+01  0.20858730153E+02  0.32911005513E+02  0.47000000000E+01 0. -1.
        -11    1    4    4    0    0 -0.26860042957E+02  0.11040162996E+03 -0.38482501664E+02  0.11996201374E+03  0.00000000000E+00 0.  1.
         12    1    4    4    0    0 -0.32808885905E+02  0.77259653334E+02 -0.11375456176E+03  0.14137035527E+03  0.00000000000E+00 0. -1.
         -5    1    5    5    0  502  0.57652051935E+02 -0.56439901663E+02  0.27560430955E+02  0.85386702398E+02  0.47000000000E+01 0.  1.
         13    1    6    6    0    0  0.86422141962E+01 -0.10274021833E+03 -0.37530986095E+02  0.10972153501E+03  0.00000000000E+00 0. -1.
        -14    1    6    6    0    0 -0.30631386951E+02 -0.35528662080E+02 -0.68430616090E+02  0.82965757479E+02  0.00000000000E+00 0.  1.
</event>
<event>
12    1  0.1035051E+000  0.1893855E+03  0.7818608E-02  0.1159180E+00
         21   -1    0    0  501  502  0.00000000000E+00  0.00000000000E+00  0.55623054431E+03  0.55623054431E+03  0.00000000000E+00 0. -1.
         21   -1    0    0  502  503 -0.00000000000E+00 -0.00000000000E+00 -0.66976011211E+02  0.66976011211E+02  0.00000000000E+00 0. -1.
         -6    2    1    2    0  503  0.92799029408E+01 -0.77107245998E+02  0.30719841175E+03  0.36050650832E+03  0.17193729780E+03 0.  0.
        -24    2    3    3    0    0  0.68630489000E+01 -0.29094108876E+02  0.47440442360E+02  0.96295616828E+02  0.78285896798E+02 0.  0.
          6    2    1    2  501    0 -0.92799029408E+01  0.77107245998E+02  0.18205612135E+03  0.26270004720E+03  0.17272880332E+03 0.  0.
         24    2    5    5    0    0 -0.59698670498E+02  0.88912782663E+02  0.10484937912E+03  0.16961732129E+03  0.79418065952E+02 0.  0.
          5    1    5    5  501    0  0.50418767557E+02 -0.11805536665E+02  0.77206742229E+02  0.93082725914E+02  0.47000000000E+01 0. -1.
        -13    1    6    6    0    0  0.26599406708E+01  0.32038100631E+02 -0.34293548128E+01  0.32330723018E+02  0.00000000000E+00 0.  1.
         14    1    6    6    0    0 -0.62358611169E+02  0.56874682031E+02  0.10827873393E+03  0.13728659827E+03  0.00000000000E+00 0. -1.
         -5    1    3    3    0  503  0.24168540408E+01 -0.48013137122E+02  0.25975796939E+03  0.26421089149E+03  0.47000000000E+01 0.  1.
         13    1    4    4    0    0  0.38275657097E+02  0.36163795825E+01  0.22060810545E+02  0.44325878326E+02  0.00000000000E+00 0. -1.
        -14    1    4    4    0    0 -0.31412608197E+02 -0.32710488458E+02  0.25379631815E+02  0.51969738502E+02  0.00000000000E+00 0.  1.
</event>
<event>
12    1  0.1035051E+000  0.5918982E+03  0.7818608E-02  0.9925245E-01
         21   -1    0    0  503  502  0.00000000000E+00  0.00000000000E+00  0.11100864640E+04  0.11100864640E+04  0.00000000000E+00 0.  1.
         21   -1    0    0  501  503 -0.00000000000E+00 -0.00000000000E+00 -0.32754625838E+03  0.32754625838E+03  0.00000000000E+00 0.  1.
          6    2    1    2  501    0  0.37579489204E+03  0.42401848627E+03  0.23998577181E+03  0.63869920659E+03  0.17126011870E+03 0.  0.
         24    2    3    3    0    0  0.34696746694E+03  0.31859158582E+03  0.16294846083E+03  0.50489827588E+03  0.80517367296E+02 0.  0.
         -6    2    1    2    0  502 -0.37579489204E+03 -0.42401848627E+03  0.54255443384E+03  0.79893351582E+03  0.15138022145E+03 0.  0.
        -24    2    5    5    0    0 -0.26965958363E+03 -0.30341130283E+03  0.31116559819E+03  0.51720016733E+03  0.76793709804E+02 0.  0.
          5    1    3    3  501    0  0.28827425101E+02  0.10542690045E+03  0.77037310981E+02  0.13380093071E+03  0.47000000000E+01 0. -1.
        -13    1    4    4    0    0  0.57649336058E+02  0.78283982279E+02  0.61337126081E+01  0.97413809389E+02  0.00000000000E+00 0.  1.
         14    1    4    4    0    0  0.28931813088E+03  0.24030760354E+03  0.15681474822E+03  0.40748446649E+03  0.00000000000E+00 0. -1.
         -5    1    5    5    0  502 -0.10613530841E+03 -0.12060718344E+03  0.23138883564E+03  0.28173334849E+03  0.47000000000E+01 0.  1.
         13    1    6    6    0    0 -0.99412566141E+02 -0.11259466827E+03  0.16300646891E+03  0.22165632528E+03  0.00000000000E+00 0. -1.
        -14    1    6    6    0    0 -0.17024701749E+03 -0.19081663456E+03  0.14815912928E+03  0.29554384206E+03  0.00000000000E+00 0.  1.
</event>
<event>
12    1  0.1035051E+000  0.1767723E+03  0.7818608E-02  0.1171356E+00
         21   -1    0    0  501  502  0.00000000000E+00  0.00000000000E+00  0.75274246099E+02  0.75274246099E+02  0.00000000000E+00 0. -1.
         21   -1    0    0  502  503 -0.00000000000E+00 -0.00000000000E+00 -0.43806016912E+03  0.43806016912E+03  0.00000000000E+00 0. -1.
         -6    2    1    2    0  503 -0.34968180567E+02 -0.62697107361E+01 -0.11887662013E+03  0.21302601784E+03  0.17316567368E+03 0.  0.
        -24    2    3    3    0    0 -0.21052639848E+02 -0.69739375021E+02 -0.93460915992E+02  0.14309684957E+03  0.80218273898E+02 0.  0.
          6    2    1    2  501    0  0.34968180567E+02  0.62697107361E+01 -0.24390930289E+03  0.30030839737E+03  0.17155553786E+03 0.  0.
         24    2    5    5    0    0  0.30374194336E+02  0.12840620709E+02 -0.31797468374E+02  0.87993061353E+02  0.75128068187E+02 0.  0.
          5    1    5    5  501    0  0.45939862304E+01 -0.65709099728E+01 -0.21211183452E+03  0.21231533602E+03  0.47000000000E+01 0. -1.
        -11    1    6    6    0    0 -0.73399946693E+01  0.28827655409E+02  0.80800144084E+01  0.30825247298E+02  0.00000000000E+00 0.  1.
         12    1    6    6    0    0  0.37714189006E+02 -0.15987034700E+02 -0.39877482782E+02  0.57167814056E+02  0.00000000000E+00 0. -1.
         -5    1    3    3    0  503 -0.13915540718E+02  0.63469664285E+02 -0.25415704136E+02  0.69929168268E+02  0.47000000000E+01 0.  1.
         13    1    4    4    0    0 -0.16878264626E+02  0.11660599294E+02 -0.20370530562E+01  0.20615406322E+02  0.00000000000E+00 0. -1.
        -14    1    4    4    0    0 -0.41743752229E+01 -0.81399974315E+02 -0.91423862936E+02  0.12248144325E+03  0.00000000000E+00 0.  1.
</event>
<event>
12    1  0.1035051E+000  0.2518402E+03  0.7818608E-02  0.1112671E+00
         21   -1    0    0  503  502  0.00000000000E+00  0.00000000000E+00  0.26083337632E+03  0.26083337632E+03  0.00000000000E+00 0. -1.
         21   -1    0    0  501  503 -0.00000000000E+00 -0.00000000000E+00 -0.33248178080E+03  0.33248178080E+03  0.00000000000E+00 0. -1.
          6    2    1    2  501    0  0.16182141039E+03  0.82724031349E+02 -0.19248424419E+03  0.31697584925E+03  0.17433895297E+03 0.  0.
         24    2    3    3    0    0  0.33507367156E+02  0.25731366812E+02 -0.13795336385E+03  0.16628290180E+03  0.82668167633E+02 0.  0.
         -6    2    1    2    0  502 -0.16182141039E+03 -0.82724031349E+02  0.12083583971E+03  0.27633930786E+03  0.16950716412E+03 0.  0.
        -24    2    5    5    0    0 -0.23581393538E+02 -0.19302244938E+02  0.29332352169E+01  0.83840634110E+02  0.78051196520E+02 0.  0.
          5    1    3    3  501    0  0.12831404323E+03  0.56992664537E+02 -0.54530880335E+02  0.15069294745E+03  0.47000000000E+01 0. -1.
        -13    1    4    4    0    0  0.10402081547E+02  0.44672318530E+02 -0.12602623625E+03  0.13411350255E+03  0.00000000000E+00 0.  1.
         14    1    4    4    0    0  0.23105285609E+02 -0.18940951717E+02 -0.11927127606E+02  0.32169399248E+02  0.00000000000E+00 0. -1.
         -5    1    5    5    0  502 -0.13824001685E+03 -0.63421786411E+02  0.11790260449E+03  0.19249867375E+03  0.47000000000E+01 0.  1.
         11    1    6    6    0    0 -0.43484968237E+01  0.25763440596E+02 -0.16750937735E+02  0.31036401386E+02  0.00000000000E+00 0. -1.
        -12    1    6    6    0    0 -0.19232896714E+02 -0.45065685535E+02  0.19684172952E+02  0.52804232724E+02  0.00000000000E+00 0.  1.
</event>
<event>
12    1  0.1035051E+000  0.4005719E+03  0.7818608E-02  0.1043613E+00
         21   -1    0    0  503  502  0.00000000000E+00  0.00000000000E+00  0.17649802153E+03  0.17649802153E+03  0.00000000000E+00 0.  1.
         21   -1    0    0  501  503 -0.00000000000E+00 -0.00000000000E+00 -0.10115451818E+04  0.10115451818E+04  0.00000000000E+00 0.  1.
          6    2    1    2  501    0  0.82567543337E+02 -0.35196016115E+03 -0.60746717189E+03  0.72764978811E+03  0.17252389675E+03 0.  0.
         24    2    3    3    0    0 -0.11477988722E+02 -0.94924886997E+02 -0.17053488933E+03  0.21204955168E+03  0.82099850736E+02 0.  0.
         -6    2    1    2    0  502 -0.82567543337E+02  0.35196016115E+03 -0.22757998838E+03  0.46039341524E+03  0.17168602573E+03 0.  0.
        -24    2    5    5    0    0  0.46086580220E+01  0.95184010514E+02 -0.10714065242E+03  0.16364199525E+03  0.78856500185E+02 0.  0.
          5    1    3    3  501    0  0.94045532058E+02 -0.25703527415E+03 -0.43693228256E+03  0.51560023643E+03  0.47000000000E+01 0. -1.
        -13    1    4    4    0    0  0.79319208386E+01  0.13336206657E+02 -0.15228282429E+02  0.21740983463E+02  0.00000000000E+00 0.  1.
         14    1    4    4    0    0 -0.19409909561E+02 -0.10826109365E+03 -0.15530660690E+03  0.19030856822E+03  0.00000000000E+00 0. -1.
         -5    1    5    5    0  502 -0.87176201359E+02  0.25677615064E+03 -0.12043933597E+03  0.29675141999E+03  0.47000000000E+01 0.  1.
         13    1    6    6    0    0  0.15358530546E+02  0.71542608484E+02 -0.24734069351E+02  0.77239908570E+02  0.00000000000E+00 0. -1.
        -14    1    6    6    0    0 -0.10749872524E+02  0.23641402030E+02 -0.82406583068E+02  0.86402086678E+02  0.00000000000E+00 0.  1.
</event>
<event>
12    1  0.1035051E+000  0.2237300E+03  0.7818608E-02  0.1131224E+00
         21   -1    0    0  503  502  0.00000000000E+00  0.00000000000E+00  0.26016064923E+03  0.26016064923E+03  0.00000000000E+00 0. -1.
         21   -1    0    0  501  503 -0.00000000000E+00 -0.00000000000E+00 -0.24108538723E+03  0.24108538723E+03  0.00000000000E+00 0.  1.
          6    2    1    2  501    0  0.13960071586E+03  0.31412766255E+02  0.12266641111E+03  0.25515129469E+03  0.17198840953E+03 0.  0.
         24    2    3    3    0    0  0.10189202815E+03  0.50978404944E+02  0.15083388258E+03  0.20396286050E+03  0.76610737872E+02 0.  0.
         -6    2    1    2    0  502 -0.13960071586E+03 -0.31412766255E+02 -0.10359114911E+03  0.24609474177E+03  0.17133701877E+03 0.  0.
        -24    2    5    5    0    0 -0.41399632125E+00 -0.63014946322E+01 -0.27835513703E+02  0.85581424086E+02  0.80681373922E+02 0.  0.
          5    1    3    3  501    0  0.37708687709E+02 -0.19565638689E+02 -0.28167471467E+02  0.51188434190E+02  0.47000000000E+01 0. -1.
        -11    1    4    4    0    0  0.51471178597E+02  0.39737508953E+02  0.28170760325E+02  0.70865672799E+02  0.00000000000E+00 0.  1.
         12    1    4    4    0    0  0.50420849555E+02  0.11240895991E+02  0.12266312225E+03  0.13309718770E+03  0.00000000000E+00 0. -1.
         -5    1    5    5    0  502 -0.13918671954E+03 -0.25111271623E+02 -0.75755635412E+02  0.16051331769E+03  0.47000000000E+01 0.  1.
         11    1    6    6    0    0 -0.13802896284E+02 -0.41229881446E+02 -0.13578298076E+02  0.45549898447E+02  0.00000000000E+00 0. -1.
        -12    1    6    6    0    0  0.13388899963E+02  0.34928386814E+02 -0.14257215627E+02  0.40031525640E+02  0.00000000000E+00 0.  1.
</event>
<event>
12    1  0.1035051E+000  0.2368711E+03  0.7818608E-02  0.1121998E+00
         21   -1    0    0  501  502  0.00000000000E+00  0.00000000000E+00  0.51711676375E+03  0.51711676375E+03  0.00000000000E+00 0. -1.
         21   -1    0    0  502  503 -0.00000000000E+00 -0.00000000000E+00 -0.14562243123E+03  0.14562243123E+03  0.00000000000E+00 0. -1.
         -6    2    1    2    0  503 -0.15077295353E+03 -0.60606687310E+02  0.35350048174E+03  0.42518567745E+03  0.17150689680E+03 0.  0.
        -24    2    3    3    0    0 -0.14685841122E+03 -0.10006857475E+03  0.27373241537E+03  0.33598030421E+03  0.79826167345E+02 0.  0.
          6    2    1    2  501    0  0.15077295353E+03  0.60606687310E+02  0.17993850781E+02  0.23755351754E+03  0.17234338097E+03 0.  0.
         24    2    5    5    0    0  0.14225429072E+03  0.10297387257E+03  0.35228855284E+01  0.19173818344E+03  0.76884449720E+02 0.  0.
          5    1    5    5  501    0  0.85186628146E+01 -0.42367185258E+02  0.14470965253E+02  0.45815334094E+02  0.47000000000E+01 0. -1.
        -11    1    6    6    0    0  0.56310274386E+02  0.59518397787E+00 -0.10673677080E+02  0.57316041627E+02  0.00000000000E+00 0.  1.
         12    1    6    6    0    0  0.85944016332E+02  0.10237868859E+03  0.14196562609E+02  0.13442214182E+03  0.00000000000E+00 0. -1.
         -5    1    3    3    0  503 -0.39145423131E+01  0.39461887439E+02  0.79768066371E+02  0.89205373236E+02  0.47000000000E+01 0.  1.
         11    1    4    4    0    0 -0.11110457250E+03 -0.56198494347E+02  0.12319323377E+03  0.17515441657E+03  0.00000000000E+00 0. -1.
        -12    1    4    4    0    0 -0.35753838721E+02 -0.43870080402E+02  0.15053918160E+03  0.16082588764E+03  0.00000000000E+00 0.  1.
</event>
<event>
12    1  0.1035051E+000  0.3349887E+03  0.7818608E-02  0.1069037E+00
         21   -1    0    0  501  502  0.00000000000E+00  0.00000000000E+00  0.70130857080E+03  0.70130857080E+03  0.00000000000E+00 0. -1.
         21   -1    0    0  502  503 -0.00000000000E+00 -0.00000000000E+00 -0.16690420826E+03  0.16690420826E+03  0.00000000000E+00 0. -1.
         -6    2    1    2    0  503 -0.19556976384E+03  0.20993221085E+03  0.17689998091E+03  0.37882853763E+03  0.17291151493E+03 0.  0.
        -24    2    3    3    0    0 -0.24027886114E+02  0.37292914799E+02  0.50583222894E+02  0.10458602504E+03  0.80071676580E+02 0.  0.
          6    2    1    2  501    0  0.19556976384E+03 -0.20993221085E+03  0.35750438163E+03  0.48938424144E+03  0.17137236417E+03 0.  0.
         24    2    5    5    0    0  0.17261880727E+03 -0.23325758282E+03  0.31222845738E+03  0.43332339322E+03  0.77949990076E+02 0.  0.
          5    1    5    5  501    0  0.22950956573E+02  0.23325371972E+02  0.45275924254E+02  0.56060848213E+02  0.47000000000E+01 0. -1.
        -13    1    6    6    0    0  0.19902067921E+02  0.14446415128E+01  0.27497346605E+02  0.33974746017E+02  0.00000000000E+00 0.  1.
         14    1    6    6    0    0  0.15271673934E+03 -0.23470222434E+03  0.28473111077E+03  0.39934864721E+03  0.00000000000E+00 0. -1.
         -5    1    3    3    0  503 -0.17154187772E+03  0.17263929605E+03  0.12631675802E+03  0.27424251259E+03  0.47000000000E+01 0.  1.
         13    1    4    4    0    0  0.26376717926E+02  0.26182893507E+02  0.34004212049E+02  0.50374215607E+02  0.00000000000E+00 0. -1.
        -14    1    4    4    0    0 -0.50404604040E+02  0.11110021292E+02  0.16579010845E+02  0.54211809434E+02  0.00000000000E+00 0.  1.
</event>
<event>
12    1  0.1035051E+000  0.5492800E+03  0.7818608E-02  0.1001668E+00
         21   -1    0    0  501  502  0.00000000000E+00  0.00000000000E+00  0.65689506599E+03  0.65689506599E+03  0.00000000000E+00 0. -1.
         21   -1    0    0  502  503 -0.00000000000E+00 -0.00000000000E+00 -0.72639111211E+03  0.72639111211E+03  0.00000000000E+00 0.  1.
         -6    2    1    2    0  503  0.32394907500E+03 -0.40869056506E+03  0.38474264790E+03  0.67051599945E+03  0.17202854194E+03 0.  0.
        -24    2    3    3    0    0  0.21763062357E+03 -0.29994343049E+03  0.34642378821E+03  0.51360845534E+03  0.80343354080E+02 0.  0.
          6    2    1    2  501    0 -0.32394907500E+03  0.40869056506E+03 -0.45423869403E+03  0.71277017865E+03  0.17244580385E+03 0.  0.
         24    2    5    5    0    0 -0.27983255539E+03  0.33100430086E+03 -0.30496226636E+03  0.53873867345E+03  0.96784648181E+02 0.  0.
          5    1    5    5  501    0 -0.44116519617E+02  0.77686264199E+02 -0.14927642766E+03  0.17403150520E+03  0.47000000000E+01 0. -1.
        -13    1    6    6    0    0 -0.35650365570E+02  0.45311525739E+02 -0.49791057156E+01  0.57869460200E+02  0.00000000000E+00 0.  1.
         14    1    6    6    0    0 -0.24418218982E+03  0.28569277512E+03 -0.29998316065E+03  0.48086921325E+03  0.00000000000E+00 0. -1.
         -5    1    3    3    0  503  0.10631845143E+03 -0.10874713456E+03  0.38318859689E+02  0.15690754411E+03  0.47000000000E+01 0.  1.
         11    1    4    4    0    0  0.12434511621E+03 -0.11081771913E+03  0.17752011197E+03  0.24342486511E+03  0.00000000000E+00 0. -1.
        -12    1    4    4    0    0  0.93285507360E+02 -0.18912571137E+03  0.16890367624E+03  0.27018359023E+03  0.00000000000E+00 0.  1.
</event>
<event>
12    1  0.1035051E+000  0.2052577E+03  0.7818608E-02  0.1145660E+00
         21   -1    0    0  503  502  0.00000000000E+00  0.00000000000E+00  0.10240714097E+03  0.10240714097E+03  0.00000000000E+00 0. -1.
         21   -1    0    0  501  503 -0.00000000000E+00 -0.00000000000E+00 -0.41016478294E+03  0.41016478294E+03  0.00000000000E+00 0. -1.
          6    2    1    2  501    0 -0.58921638550E+02 -0.91596695512E+02 -0.13776074109E+03  0.24605798294E+03  0.17235079074E+03 0.  0.
         24    2    3    3    0    0 -0.68258345107E+01 -0.97506476916E+02 -0.34681897480E+02  0.13031587170E+03  0.78900490163E+02 0.  0.
         -6    2    1    2    0  502  0.58921638550E+02  0.91596695512E+02 -0.16999690088E+03  0.26651394096E+03  0.17397994224E+03 0.  0.
        -24    2    5    5    0    0 -0.13743298821E+00 -0.43236420661E+01 -0.11686679880E+03  0.14188014603E+03  0.80333146385E+02 0.  0.
          5    1    3    3  501    0 -0.52095804040E+02  0.59097814040E+01 -0.10307884361E+03  0.11574211124E+03  0.47000000000E+01 0. -1.
        -13    1    4    4    0    0  0.77662702442E+01 -0.82558425998E+01 -0.38165606668E+02  0.39813156404E+02  0.00000000000E+00 0.  1.
         14    1    4    4    0    0 -0.14592104755E+02 -0.89250634316E+02  0.34837091880E+01  0.90502715300E+02  0.00000000000E+00 0. -1.
         -5    1    5    5    0  502  0.59059071539E+02  0.95920337578E+02 -0.53130102078E+02  0.12463379493E+03  0.47000000000E+01 0.  1.
         13    1    6    6    0    0 -0.17961223818E+02 -0.25360366488E+02 -0.11776680873E+02  0.33233175621E+02  0.00000000000E+00 0. -1.
        -14    1    6    6    0    0  0.17823790829E+02  0.21036724422E+02 -0.10509011793E+03  0.10864697041E+03  0.00000000000E+00 0.  1.
</event>
<event>
12    1  0.1035051E+000  0.1823970E+03  0.7818608E-02  0.1167483E+00
         21   -1    0    0  503  502  0.00000000000E+00  0.00000000000E+00  0.17441050023E+03  0.17441050023E+03  0.00000000000E+00 0.  1.
         21   -1    0    0  501  503 -0.00000000000E+00 -0.00000000000E+00 -0.35581251628E+03  0.35581251628E+03  0.00000000000E+00 0.  1.
          6    2    1    2  501    0 -0.24360411516E+02 -0.82681631571E+01  0.93322336264E+02  0.20488467381E+03  0.18057374932E+03 0.  0.
         24    2    3    3    0    0 -0.68463518183E+02 -0.53826016873E+02  0.50624557158E+02  0.12829621258E+03  0.79451739819E+02 0.  0.
         -6    2    1    2    0  502  0.24360411516E+02  0.82681631571E+01 -0.27472435232E+03  0.32533834271E+03  0.17236523811E+03 0.  0.
        -24    2    5    5    0    0  0.74987341604E+01  0.20863020349E+02 -0.28867143282E+03  0.29965648830E+03  0.77274305056E+02 0.  0.
          5    1    3    3  501    0  0.44103106666E+02  0.45557853716E+02  0.42697779106E+02  0.76588461229E+02  0.47000000000E+01 0. -1.
        -11    1    4    4    0    0 -0.36983680692E+02  0.81936894675E+01  0.44553309933E+02  0.58480138599E+02  0.00000000000E+00 0.  1.
         12    1    4    4    0    0 -0.31479837491E+02 -0.62019706341E+02  0.60712472246E+01  0.69816073979E+02  0.00000000000E+00 0. -1.
         -5    1    5    5    0  502  0.16861677356E+02 -0.12594857192E+02  0.13947080506E+02  0.25681854403E+02  0.47000000000E+01 0.  1.
         11    1    6    6    0    0 -0.31689858742E+02  0.21375332859E+02 -0.18304115830E+03  0.18698988645E+03  0.00000000000E+00 0. -1.
        -12    1    6    6    0    0  0.39188592903E+02 -0.51231250965E+00 -0.10563027452E+03  0.11266660186E+03  0.00000000000E+00 0.  1.
</event>
<event>
12    1  0.1035051E+000  0.2121393E+03  0.7818608E-02  0.1139966E+00
         21   -1    0    0  501  502  0.00000000000E+00  0.00000000000E+00  0.27245879214E+03  0.27245879214E+03  0.00000000000E+00 0. -1.
         21   -1    0    0  502  503 -0.00000000000E+00 -0.00000000000E+00 -0.21933673940E+03  0.21933673940E+03  0.00000000000E+00 0. -1.
         -6    2    1    2    0  503  0.11113456748E+03 -0.51179537764E+02 -0.95984405030E+02  0.23284350243E+03  0.17329989451E+03 0.  0.
        -24    2    3    3    0    0  0.89252427664E+01 -0.16283903929E+02 -0.27622521631E+01  0.90095784041E+02  0.88118072943E+02 0.  0.
          6    2    1    2  501    0 -0.11113456748E+03  0.51179537764E+02  0.14910645777E+03  0.25895202911E+03  0.17278072942E+03 0.  0.
         24    2    5    5    0    0 -0.10397076120E+03  0.19913882555E+02  0.30681535364E+02  0.13617005339E+03  0.79965273255E+02 0.  0.
          5    1    5    5  501    0 -0.71638062837E+01  0.31265655210E+02  0.11842492240E+03  0.12278197572E+03  0.47000000000E+01 0. -1.
        -11    1    6    6    0    0 -0.82647958862E+02 -0.20766277465E+02  0.29653353702E+02  0.90228846660E+02  0.00000000000E+00 0.  1.
         12    1    6    6    0    0 -0.21322802334E+02  0.40680160019E+02  0.10281816613E+01  0.45941206733E+02  0.00000000000E+00 0. -1.
         -5    1    3    3    0  503  0.10220932471E+03 -0.34895633835E+02 -0.93222152867E+02  0.14274771839E+03  0.47000000000E+01 0.  1.
         11    1    4    4    0    0 -0.35154676061E+02 -0.27291411289E+02 -0.36443160050E+01  0.44653705537E+02  0.00000000000E+00 0. -1.
        -12    1    4    4    0    0  0.44079918827E+02  0.11007507360E+02  0.88206384189E+00  0.45442078503E+02  0.00000000000E+00 0.  1.
</event>
<event>
12    1  0.1035051E+000  0.2099789E+03  0.7818608E-02  0.1142310E+00
         21   -1    0    0  501  502  0.00000000000E+00  0.00000000000E+00  0.12986851472E+04  0.12986851472E+04  0.00000000000E+00 0.  1.
         21   -1    0    0  502  503 -0.00000000000E+00 -0.00000000000E+00 -0.11311796958E+03  0.11311796958E+03  0.00000000000E+00 0. -1.
         -6    2    1    2    0  503  0.57539548625E+02 -0.10100256172E+03  0.15946501024E+01  0.20998493227E+03  0.17486798375E+03 0.  0.
        -24    2    3    3    0    0  0.20435327300E+02  0.22068567307E+02  0.44534129131E+01  0.81324570990E+02  0.75426975912E+02 0.  0.
          6    2    1    2  501    0 -0.57539548625E+02  0.10100256172E+03  0.11839725275E+04  0.12018181845E+04  0.17048074841E+03 0.  0.
         24    2    5    5    0    0 -0.82170976974E+02  0.13467751312E+02  0.69043459211E+03  0.69995083752E+03  0.79358674228E+02 0.  0.
          5    1    5    5  501    0  0.24631428349E+02  0.87534810404E+02  0.49353793541E+03  0.50186734700E+03  0.47000000000E+01 0. -1.
        -11    1    6    6    0    0 -0.97125410590E+02  0.18064130108E+02  0.61796125547E+03  0.62580809474E+03  0.00000000000E+00 0.  1.
         12    1    6    6    0    0  0.14954433615E+02 -0.45963787959E+01  0.72473336644E+02  0.74142742781E+02  0.00000000000E+00 0. -1.
         -5    1    3    3    0  503  0.37104221325E+02 -0.12307112902E+03 -0.28587628107E+01  0.12866036128E+03  0.47000000000E+01 0.  1.
         13    1    4    4    0    0 -0.24933255741E+02  0.21012194827E+02  0.13078066011E+02  0.35131401678E+02  0.00000000000E+00 0. -1.
        -14    1    4    4    0    0  0.45368583041E+02  0.10563724801E+01 -0.86246530982E+01  0.46193169312E+02  0.00000000000E+00 0.  1.
</event>
<event>
12    1  0.1035051E+000  0.2569102E+03  0.7818608E-02  0.1109100E+00
         21   -1    0    0  503  502  0.00000000000E+00  0.00000000000E+00  0.59056666215E+02  0.59056666215E+02  0.00000000000E+00 0.  1.
         21   -1    0    0  501  503 -0.00000000000E+00 -0.00000000000E+00 -0.11350000673E+04  0.11350000673E+04  0.00000000000E+00 0. -1.
          6    2    1    2  501    0 -0.18516021690E+03  0.44906640111E+02 -0.45964159157E+03  0.52656741191E+03  0.17234249137E+03 0.  0.
         24    2    3    3    0    0 -0.11718469771E+03  0.80271240426E+02 -0.20527127002E+03  0.26086517885E+03  0.75753691824E+02 0.  0.
         -6    2    1    2    0  502  0.18516021690E+03 -0.44906640111E+02 -0.61630180954E+03  0.66748932163E+03  0.17150265829E+03 0.  0.
        -24    2    5    5    0    0  0.18735719022E+03 -0.77816252225E+02 -0.57027593285E+03  0.61067083356E+03  0.80908229123E+02 0.  0.
          5    1    3    3  501    0 -0.67975519199E+02 -0.35364600314E+02 -0.25437032155E+03  0.26570223306E+03  0.47000000000E+01 0. -1.
        -11    1    4    4    0    0 -0.10488267777E+03  0.66229507231E+02 -0.20781903413E+03  0.24202370683E+03  0.00000000000E+00 0.  1.
         12    1    4    4    0    0 -0.12302019935E+02  0.14041733194E+02  0.25477641122E+01  0.18841472011E+02  0.00000000000E+00 0. -1.
         -5    1    5    5    0  502 -0.21969733190E+01  0.32909612114E+02 -0.46025876692E+02  0.56818488070E+02  0.47000000000E+01 0.  1.
         13    1    6    6    0    0  0.39733618088E+02 -0.29760620263E+02 -0.63226967579E+02  0.80387215115E+02  0.00000000000E+00 0. -1.
        -14    1    6    6    0    0  0.14762357214E+03 -0.48055631962E+02 -0.50704896527E+03  0.53028361845E+03  0.00000000000E+00 0.  1.
</event>
<event>
12    1  0.1035051E+000  0.1806723E+03  0.7818608E-02  0.1167544E+00
         21   -1    0    0  501  502  0.00000000000E+00  0.00000000000E+00  0.16133343174E+03  0.16133343174E+03  0.00000000000E+00 0.  1.
         21   -1    0    0  502  503 -0.00000000000E+00 -0.00000000000E+00 -0.24593668499E+03  0.24593668499E+03  0.00000000000E+00 0.  1.
         -6    2    1    2    0  503 -0.16740990405E+02 -0.50137473984E+02  0.45350488847E+02  0.18471572404E+03  0.17108245033E+03 0.  0.
        -24    2    3    3    0    0  0.34421547011E+02  0.13563757364E+02  0.54255411405E+02  0.10239416091E+03  0.78562689044E+02 0.  0.
          6    2    1    2  501    0  0.16740990405E+02  0.50137473984E+02 -0.12995374210E+03  0.22255439269E+03  0.17276705577E+03 0.  0.
         24    2    5    5    0    0  0.27163891973E+02  0.34913818826E+02 -0.71936248172E-01  0.91284555918E+02  0.79849941779E+02 0.  0.
          5    1    5    5  501    0 -0.10422901568E+02  0.15223655158E+02 -0.12988180585E+03  0.13126983677E+03  0.47000000000E+01 0. -1.
        -11    1    6    6    0    0 -0.79937670002E+01  0.43419224037E+02 -0.21643525403E+02  0.49168806358E+02  0.00000000000E+00 0.  1.
         12    1    6    6    0    0  0.35157658973E+02 -0.85054052114E+01  0.21571589155E+02  0.42115749559E+02  0.00000000000E+00 0. -1.
         -5    1    3    3    0  503 -0.51162537416E+02 -0.63701231348E+02 -0.89049225585E+01  0.82321563128E+02  0.47000000000E+01 0.  1.
         13    1    4    4    0    0 -0.39209735864E+01  0.30808837871E+02  0.51653719523E+02  0.60271595842E+02  0.00000000000E+00 0. -1.
        -14    1    4    4    0    0  0.38342520597E+02 -0.17245080507E+02  0.26016918826E+01  0.42122565070E+02  0.00000000000E+00 0.  1.
</event>
<event>
12    1  0.1035051E+000  0.2251404E+03  0.7818608E-02  0.1130358E+00
         21   -1    0    0  503  502  0.00000000000E+00  0.00000000000E+00  0.22318554680E+03  0.22318554680E+03  0.00000000000E+00 0.  1.
         21   -1    0    0  501  503 -0.00000000000E+00 -0.00000000000E+00 -0.36080195149E+03  0.36080195149E+03  0.00000000000E+00 0.  1.
          6    2    1    2  501    0  0.10020983380E+03  0.10199748798E+03 -0.24733634315E+03  0.33353453947E+03  0.17211776211E+03 0.  0.
         24    2    3    3    0    0  0.21554349877E+02  0.11028934807E+03 -0.19541571384E+03  0.23880713138E+03  0.78823946160E+02 0.  0.
         -6    2    1    2    0  502 -0.10020983380E+03 -0.10199748798E+03  0.10971993847E+03  0.25045295882E+03  0.17390434537E+03 0.  0.
        -24    2    5    5    0    0 -0.93943902396E+02 -0.65233194546E+01  0.31175225551E+02  0.12657422505E+03  0.78620158140E+02 0.  0.
          5    1    3    3  501    0  0.78655483925E+02 -0.82918600872E+01 -0.51920629315E+02  0.94727408091E+02  0.47000000000E+01 0. -1.
        -11    1    4    4    0    0 -0.11814221796E+02 -0.57418241953E+01 -0.66243134529E+01  0.14711421089E+02  0.00000000000E+00 0.  1.
         12    1    4    4    0    0  0.33368571673E+02  0.11603117226E+03 -0.18879140039E+03  0.22409571030E+03  0.00000000000E+00 0. -1.
         -5    1    5    5    0  502 -0.62659314058E+01 -0.95474168528E+02  0.78544712915E+02  0.12387873377E+03  0.47000000000E+01 0.  1.
         13    1    6    6    0    0 -0.82721459765E+02 -0.35855646741E+02  0.30445620065E+02  0.95159881726E+02  0.00000000000E+00 0. -1.
        -14    1    6    6    0    0 -0.11222442631E+02  0.29332327286E+02  0.72960548633E+00  0.31414343329E+02  0.00000000000E+00 0.  1.
</event>
<event>
12    1  0.1035051E+000  0.2735289E+03  0.7818608E-02  0.1099714E+00
         21   -1    0    0  501  502  0.00000000000E+00  0.00000000000E+00  0.44065789237E+03  0.44065789237E+03  0.00000000000E+00 0.  1.
         21   -1    0    0  502  503 -0.00000000000E+00 -0.00000000000E+00 -0.22474993159E+03  0.22474993159E+03  0.00000000000E+00 0.  1.
         -6    2    1    2    0  503  0.21934357217E+02 -0.20787946152E+03  0.27577457903E+03  0.38841942853E+03  0.17641725390E+03 0.  0.
        -24    2    3    3    0    0  0.85222681981E+02 -0.11651617022E+03  0.17008708071E+03  0.23497693002E+03  0.73794438619E+02 0.  0.
          6    2    1    2  501    0 -0.21934357217E+02  0.20787946152E+03 -0.59866618250E+02  0.27698839542E+03  0.17159129543E+03 0.  0.
         24    2    5    5    0    0  0.17141662870E+02  0.18861920193E+03 -0.89356334546E+02  0.22417148229E+03  0.79982866952E+02 0.  0.
          5    1    5    5  501    0 -0.39076020087E+02  0.19260259589E+02  0.29489716297E+02  0.52816913130E+02  0.47000000000E+01 0. -1.
        -13    1    6    6    0    0  0.27790579292E+02  0.94563627940E+02 -0.71852368281E+01  0.98824205815E+02  0.00000000000E+00 0.  1.
         14    1    6    6    0    0 -0.10648916423E+02  0.94055573990E+02 -0.82171097718E+02  0.12534727648E+03  0.00000000000E+00 0. -1.
         -5    1    3    3    0  503 -0.63288324764E+02 -0.91363291296E+02  0.10568749832E+03  0.15344249851E+03  0.47000000000E+01 0.  1.
         13    1    4    4    0    0  0.72668174767E+02 -0.36992797475E+02  0.89149431616E+02  0.12081701803E+03  0.00000000000E+00 0. -1.
        -14    1    4    4    0    0  0.12554507214E+02 -0.79523372749E+02  0.80937649092E+02  0.11415991199E+03  0.00000000000E+00 0.  1.
</event>
<event>
12    1  0.1035051E+000  0.2397951E+03  0.7818608E-02  0.1120197E+00
         21   -1    0    0  503  502  0.00000000000E+00  0.00000000000E+00  0.17558575714E+03  0.17558575714E+03  0.00000000000E+00 0.  1.
         21   -1    0    0  501  503 -0.00000000000E+00 -0.00000000000E+00 -0.74576865667E+03  0.74576865667E+03  0.00000000000E+00 0.  1.
          6    2    1    2  501    0  0.13766065582E+03  0.89713311441E+02  0.60398750232E+02  0.24728468986E+03  0.17465043487E+03 0.  0.
         24    2    3    3    0    0  0.12987862885E+03  0.84046421754E+02  0.10423574981E+03  0.20215769003E+03  0.77912648877E+02 0.  0.
         -6    2    1    2    0  502 -0.13766065582E+03 -0.89713311441E+02 -0.63058164976E+03  0.67406972394E+03  0.17244663320E+03 0.  0.
        -24    2    5    5    0    0 -0.43057167793E+02 -0.25735595428E+00 -0.39431302847E+03  0.40426027391E+03  0.78036009038E+02 0.  0.
          5    1    3    3  501    0  0.77820269663E+01  0.56668896871E+01 -0.43836999579E+02  0.45126999840E+02  0.47000000000E+01 0. -1.
        -11    1    4    4    0    0  0.14329640563E+02  0.34602607336E+02 -0.21212796879E+01  0.37512382764E+02  0.00000000000E+00 0.  1.
         12    1    4    4    0    0  0.11554898829E+03  0.49443814418E+02  0.10635702950E+03  0.16464530726E+03  0.00000000000E+00 0. -1.
         -5    1    5    5    0  502 -0.94603488027E+02 -0.89455955487E+02 -0.23626862129E+03  0.26980945003E+03  0.47000000000E+01 0.  1.
         13    1    6    6    0    0 -0.39248808905E+02  0.34976367370E+02 -0.20329038457E+03  0.20997808393E+03  0.00000000000E+00 0. -1.
        -14    1    6    6    0    0 -0.38083588880E+01 -0.35233723324E+02 -0.19102264391E+03  0.19428218998E+03  0.00000000000E+00 0.  1.
</event>
<event>
12    1  0.1035051E+000  0.2278983E+03  0.7818608E-02  0.1131392E+00
         21   -1    0    0  503  502  0.00000000000E+00  0.00000000000E+00  0.54986124867E+03  0.54986124867E+03  0.00000000000E+00 0. -1.
         21   -1    0    0  501  503 -0.00000000000E+00 -0.00000000000E+00 -0.88935303084E+02  0.88935303084E+02  0.00000000000E+00 0. -1.
          6    2    1    2  501    0 -0.82502953527E+02  0.89410852929E+02  0.28258292019E+03  0.36302995962E+03  0.19270860603E+03 0.  0.
         24    2    3    3    0    0 -0.81253868313E+02  0.55746765659E+01  0.24636261169E+03  0.27157469499E+03  0.80156162485E+02 0.  0.
         -6    2    1    2    0  502  0.82502953527E+02 -0.89410852929E+02  0.17834302539E+03  0.27576659213E+03  0.17158071181E+03 0.  0.
        -24    2    5    5    0    0  0.10426877813E+03 -0.23250216953E+02  0.14904902399E+03  0.20006184068E+03  0.79978608778E+02 0.  0.
          5    1    3    3  501    0 -0.12490852138E+01  0.83836176363E+02  0.36220308495E+02  0.91455264630E+02  0.47000000000E+01 0. -1.
        -13    1    4    4    0    0 -0.85326557938E+02  0.25923141564E+02  0.16443972800E+03  0.18706430686E+03  0.00000000000E+00 0.  1.
         14    1    4    4    0    0  0.40726896247E+01 -0.20348464998E+02  0.81922883697E+02  0.84510388129E+02  0.00000000000E+00 0. -1.
         -5    1    5    5    0  502 -0.21765824606E+02 -0.66160635976E+02  0.29294001399E+02  0.75704751446E+02  0.47000000000E+01 0.  1.
         11    1    6    6    0    0  0.45159125702E+02 -0.47293811642E+02  0.10041064842E+03  0.11982633088E+03  0.00000000000E+00 0. -1.
        -12    1    6    6    0    0  0.59109652430E+02  0.24043594689E+02  0.48638375568E+02  0.80235509807E+02  0.00000000000E+00 0.  1.
</event>
<event>
12    1  0.1035051E+000  0.3325859E+03  0.7818608E-02  0.1070531E+00
         21   -1    0    0  501  502  0.00000000000E+00  0.00000000000E+00  0.60979770891E+03  0.60979770891E+03  0.00000000000E+00 0.  1.
         21   -1    0    0  502  503 -0.00000000000E+00 -0.00000000000E+00 -0.18568503106E+03  0.18568503106E+03  0.00000000000E+00 0. -1.
         -6    2    1    2    0  503  0.13546095421E+03 -0.24464461183E+03  0.13382619706E+03  0.35403104425E+03  0.17096161284E+03 0.  0.
        -24    2    3    3    0    0  0.79346703532E+02 -0.20870299688E+03  0.49139629162E+02  0.24616764177E+03  0.91274116973E+02 0.  0.
          6    2    1    2  501    0 -0.13546095421E+03  0.24464461183E+03  0.29028648079E+03  0.44145169571E+03  0.18003528127E+03 0.  0.
         24    2    5    5    0    0 -0.27051512956E+02  0.22541504820E+02  0.86451818660E+02  0.12105653878E+03  0.77077005910E+02 0.  0.
          5    1    5    5  501    0 -0.10840944126E+03  0.22210310701E+03  0.20383466213E+03  0.32039515693E+03  0.47000000000E+01 0. -1.
        -11    1    6    6    0    0 -0.42829434734E+02 -0.12871636499E+02  0.56544606604E+02  0.72092524174E+02  0.00000000000E+00 0.  1.
         12    1    6    6    0    0  0.15777921778E+02  0.35413141319E+02  0.29907212056E+02  0.48964014610E+02  0.00000000000E+00 0. -1.
         -5    1    3    3    0  503  0.56114250682E+02 -0.35941614941E+02  0.84686567895E+02  0.10786340249E+03  0.47000000000E+01 0.  1.
         11    1    4    4    0    0 -0.36539970522E+01 -0.80348854974E+02  0.47289823386E+02  0.93303899093E+02  0.00000000000E+00 0. -1.
        -12    1    4    4    0    0  0.83000700584E+02 -0.12835414191E+03  0.18498057768E+01  0.15286374267E+03  0.00000000000E+00 0.  1.
</event>
<event>
12    1  0.1035051E+000  0.1967555E+03  0.7818608E-02  0.1152756E+00
         21   -1    0    0  501  502  0.00000000000E+00  0.00000000000E+00  0.87633448758E+03  0.87633448758E+03  0.00000000000E+00 0. -1.
         21   -1    0    0  502  503 -0.00000000000E+00 -0.00000000000E+00 -0.50410516941E+02  0.50410516941E+02  0.00000000000E+00 0. -1.
         -6    2    1    2    0  503 -0.26987856872E+02  0.93005296489E+02  0.24770372908E+03  0.31633820666E+03  0.17127286416E+03 0.  0.
        -24    2    3    3    0    0 -0.58078774269E+02  0.11301978617E+03  0.15253813583E+03  0.21413348524E+03  0.80241202207E+02 0.  0.
          6    2    1    2  501    0  0.26987856872E+02 -0.93005296489E+02  0.57822024156E+03  0.61040679786E+03  0.16993964086E+03 0.  0.
         24    2    5    5    0    0  0.17948519996E+01 -0.12445835086E+03  0.51103969343E+03  0.53192560158E+03  0.79310621974E+02 0.  0.
          5    1    5    5  501    0  0.25193004872E+02  0.31453054373E+02  0.67180548126E+02  0.78481196285E+02  0.47000000000E+01 0. -1.
        -11    1    6    6    0    0  0.17902307032E+00 -0.10994993538E+03  0.28590242046E+03  0.30631554705E+03  0.00000000000E+00 0.  1.
         12    1    6    6    0    0  0.16158289293E+01 -0.14508415482E+02  0.22513727298E+03  0.22561005453E+03  0.00000000000E+00 0. -1.
         -5    1    3    3    0  503  0.31090917397E+02 -0.20014489679E+02  0.95165593258E+02  0.10220472143E+03  0.47000000000E+01 0.  1.
         13    1    4    4    0    0 -0.10374061525E+02 -0.18644826441E+01 -0.63785868610E+01  0.12320057565E+02  0.00000000000E+00 0. -1.
        -14    1    4    4    0    0 -0.47704712743E+02  0.11488426881E+03  0.15891672269E+03  0.20181342767E+03  0.00000000000E+00 0.  1.
</event>
<event>
12    1  0.1035051E+000  0.2048594E+03  0.7818608E-02  0.1146218E+00
         21   -1    0    0  503  502  0.00000000000E+00  0.00000000000E+00  0.41460445870E+03  0.41460445870E+03  0.00000000000E+00 0. -1.
         21   -1    0    0  501  503 -0.00000000000E+00 -0.00000000000E+00 -0.12449202638E+03  0.12449202638E+03  0.00000000000E+00 0. -1.
          6    2    1    2  501    0  0.63399971628E+02 -0.85595524819E+02  0.24756818777E+02  0.20386375225E+03  0.17205051332E+03 0.  0.
         24    2    3    3    0    0  0.93159491576E+02 -0.10724518007E+03  0.88292058218E+01  0.16348906396E+03  0.80439415959E+02 0.  0.
         -6    2    1    2    0  502 -0.63399971628E+02  0.85595524819E+02  0.26535561354E+03  0.33523273282E+03  0.17498923751E+03 0.  0.
        -24    2    5    5    0    0  0.55400953875E+01 -0.20922940238E+02  0.10780063274E+03  0.13288506613E+03  0.74625748218E+02 0.  0.
          5    1    3    3  501    0 -0.29759519947E+02  0.21649655254E+02  0.15927612955E+02  0.40374688291E+02  0.47000000000E+01 0. -1.
        -11    1    4    4    0    0  0.67260677613E+02 -0.55228978473E+02  0.41942021441E+02  0.96609378316E+02  0.00000000000E+00 0.  1.
         12    1    4    4    0    0  0.25898813963E+02 -0.52016201601E+02 -0.33112815620E+02  0.66879685645E+02  0.00000000000E+00 0. -1.
         -5    1    5    5    0  502 -0.68940067016E+02  0.10651846506E+03  0.15755498081E+03  0.20234766669E+03  0.47000000000E+01 0.  1.
         11    1    6    6    0    0 -0.15301806227E+01 -0.74183260954E+01 -0.10864836219E+02  0.13244534000E+02  0.00000000000E+00 0. -1.
        -12    1    6    6    0    0  0.70702760102E+01 -0.13504614143E+02  0.11866546896E+03  0.11964053213E+03  0.00000000000E+00 0.  1.
</event>
<event>
12    1  0.1035051E+000  0.7582677E+03  0.7818608E-02  0.9622586E-01
         21   -1    0    0  503  502  0.00000000000E+00  0.00000000000E+00  0.24877075662E+04  0.24877075662E+04  0.00000000000E+00 0. -1.
         21   -1    0    0  501  503 -0.00000000000E+00 -0.00000000000E+00 -0.30158548014E+03  0.30158548014E+03  0.00000000000E+00 0. -1.
          6    2    1    2  501    0 -0.15165501783E+03 -0.72276643297E+03  0.41833553658E+03  0.86574443669E+03  0.17064069684E+03 0.  0.
         24    2    3    3    0    0 -0.12133783334E+03 -0.49107378321E+03  0.21300378481E+03  0.55464343393E+03  0.79889899872E+02 0.  0.
         -6    2    1    2    0  502  0.15165501783E+03  0.72276643297E+03  0.17677865495E+04  0.19235486097E+04  0.17198665098E+03 0.  0.
        -24    2    5    5    0    0  0.19109279234E+02  0.29458104675E+03  0.61914178960E+03  0.69053686105E+03  0.79758655853E+02 0.  0.
          5    1    3    3  501    0 -0.30317184497E+02 -0.23169264976E+03  0.20533175178E+03  0.31110100276E+03  0.47000000000E+01 0. -1.
        -11    1    4    4    0    0 -0.10818733967E+03 -0.42455970007E+03  0.21226299457E+03  0.48683777406E+03  0.00000000000E+00 0.  1.
         12    1    4    4    0    0 -0.13150493666E+02 -0.66514083145E+02  0.74079023531E+00  0.67805659870E+02  0.00000000000E+00 0. -1.
         -5    1    5    5    0  502  0.13254573860E+03  0.42818538622E+03  0.11486447599E+04  0.12330117486E+04  0.47000000000E+01 0.  1.
         13    1    6    6    0    0 -0.83467647985E+01  0.22789748558E+02  0.11098121792E+03  0.11360401337E+03  0.00000000000E+00 0. -1.
        -14    1    6    6    0    0  0.27456044033E+02  0.27179129819E+03  0.50816057168E+03  0.57693284768E+03  0.00000000000E+00 0.  1.
</event>
<event>
12    1  0.1035051E+000  0.1744198E+03  0.7818608E-02  0.1173748E+00
         21   -1    0    0  503  502  0.00000000000E+00  0.00000000000E+00  0.59248192514E+03  0.59248192514E+03  0.00000000000E+00 0.  1.
         21   -1    0    0  501  503 -0.00000000000E+00 -0.00000000000E+00 -0.48576711017E+03  0.48576711017E+03  0.00000000000E+00 0.  1.
          6    2    1    2  501    0  0.18187962732E+02 -0.41296547311E+01  0.56345875869E+03  0.58933463014E+03  0.17170229321E+03 0.  0.
         24    2    3    3    0    0  0.68898546386E+01  0.11269180236E+02  0.56364837493E+03  0.56966492452E+03  0.81511785279E+02 0.  0.
         -6    2    1    2    0  502 -0.18187962732E+02  0.41296547311E+01 -0.45674394372E+03  0.48891440518E+03  0.17341974925E+03 0.  0.
        -24    2    5    5    0    0  0.68065723607E+01  0.12325999159E+02 -0.45505264476E+03  0.46214021353E+03  0.79387705396E+02 0.  0.
          5    1    3    3  501    0  0.11298108093E+02 -0.15398834967E+02 -0.18961624202E+00  0.19669705619E+02  0.47000000000E+01 0. -1.
        -13    1    4    4    0    0  0.26800734716E+02  0.18107562170E+02  0.91519188816E+02  0.97066601417E+02  0.00000000000E+00 0.  1.
         14    1    4    4    0    0 -0.19910880078E+02 -0.68383819346E+01  0.47212918612E+03  0.47259832310E+03  0.00000000000E+00 0. -1.
         -5    1    5    5    0  502 -0.24994535092E+02 -0.81963444279E+01 -0.16912989549E+01  0.26774191652E+02  0.47000000000E+01 0.  1.
         11    1    6    6    0    0 -0.14360559125E+02  0.15210144665E+02 -0.30122464780E+02  0.36673383312E+02  0.00000000000E+00 0. -1.
        -12    1    6    6    0    0  0.21167131486E+02 -0.28841455062E+01 -0.42493017998E+03  0.42546683021E+03  0.00000000000E+00 0.  1.
</event>
<event>
12    1  0.1035051E+000  0.1833695E+03  0.7818608E-02  0.1164646E+00
         21   -1    0    0  501  502  0.00000000000E+00  0.00000000000E+00  0.85832283945E+03  0.85832283945E+03  0.00000000000E+00 0.  1.
         21   -1    0    0  502  503 -0.00000000000E+00 -0.00000000000E+00 -0.40016301670E+02  0.40016301670E+02  0.00000000000E+00 0.  1.
         -6    2    1    2    0  503 -0.60129342726E+02 -0.17160464048E+02  0.34207944747E+03  0.38812719082E+03  0.17237850356E+03 0.  0.
        -24    2    3    3    0    0 -0.10132422214E+03  0.18512141967E+02  0.24114353374E+03  0.27332430937E+03  0.77114699207E+02 0.  0.
          6    2    1    2  501    0  0.60129342726E+02  0.17160464048E+02  0.47622709030E+03  0.51021195029E+03  0.17208710962E+03 0.  0.
         24    2    5    5    0    0 -0.25396422124E+02 -0.19001202111E+02  0.16315126082E+03  0.18362216546E+03  0.78056017071E+02 0.  0.
          5    1    5    5  501    0  0.85525764850E+02  0.36161666160E+02  0.31307582948E+03  0.32658978483E+03  0.47000000000E+01 0. -1.
        -13    1    6    6    0    0 -0.32955694993E+02  0.18839417677E+02  0.11937961038E+03  0.12526968055E+03  0.00000000000E+00 0.  1.
         14    1    6    6    0    0  0.75592728694E+01 -0.37840619788E+02  0.43771650440E+02  0.58352484904E+02  0.00000000000E+00 0. -1.
         -5    1    3    3    0  503  0.41194879413E+02 -0.35672606016E+02  0.10093591373E+03  0.11480288146E+03  0.47000000000E+01 0.  1.
         13    1    4    4    0    0 -0.82786173789E+02  0.44823499839E+02  0.20032006577E+03  0.22133871207E+03  0.00000000000E+00 0. -1.
        -14    1    4    4    0    0 -0.18538048350E+02 -0.26311357871E+02  0.40823467965E+02  0.51985597297E+02  0.00000000000E+00 0.  1.
</event>
<event>
12    1  0.1035051E+000  0.2061588E+03  0.7818608E-02  0.1144692E+00
         21   -1    0    0  501  502  0.00000000000E+00  0.00000000000E+00  0.43080660029E+03  0.43080660029E+03  0.00000000000E+00 0.  1.
         21   -1    0    0  502  503 -0.00000000000E+00 -0.00000000000E+00 -0.72638920696E+03  0.72638920696E+03  0.00000000000E+00 0.  1.
         -6    2    1    2    0  503  0.73482642666E+01  0.11163656630E+03  0.39014143809E+03  0.44115186475E+03  0.17288119080E+03 0.  0.
        -24    2    3    3    0    0 -0.54000983860E+02  0.94089554712E+02  0.19765542977E+03  0.23831059365E+03  0.77170717021E+02 0.  0.
          6    2    1    2  501    0 -0.73482642666E+01 -0.11163656630E+03 -0.68572404476E+03  0.71604394251E+03  0.17316102943E+03 0.  0.
         24    2    5    5    0    0  0.55463223162E+02 -0.34573063904E+02 -0.40723687994E+03  0.42030544767E+03  0.80890834411E+02 0.  0.
          5    1    5    5  501    0 -0.62811487428E+02 -0.77063502395E+02 -0.27848716483E+03  0.29573849484E+03  0.47000000000E+01 0. -1.
        -13    1    6    6    0    0  0.55188644339E+02  0.76893748929E+01 -0.29825698805E+03  0.30341744161E+03  0.00000000000E+00 0.  1.
         14    1    6    6    0    0  0.27457882262E+00 -0.42262438797E+02 -0.10897989188E+03  0.11688800606E+03  0.00000000000E+00 0. -1.
         -5    1    3    3    0  503  0.61349248127E+02  0.17547011587E+02  0.19248600832E+03  0.20284127110E+03  0.47000000000E+01 0.  1.
         11    1    4    4    0    0 -0.14322738047E+02  0.63624508695E+02  0.16786208428E+03  0.18008580808E+03  0.00000000000E+00 0. -1.
        -12    1    4    4    0    0 -0.39678245814E+02  0.30465046017E+02  0.29793345487E+02  0.58224785573E+02  0.00000000000E+00 0.  1.
</event>
<event>
12    1  0.1035051E+000  0.2435645E+03  0.7818608E-02  0.1117631E+00
         21   -1    0    0  503  502  0.00000000000E+00  0.00000000000E+00  0.64318781914E+03  0.64318781914E+03  0.00000000000E+00 0. -1.
         21   -1    0    0  501  503 -0.00000000000E+00 -0.00000000000E+00 -0.11626643717E+03  0.11626643717E+03  0.00000000000E+00 0. -1.
          6    2    1    2  501    0 -0.15480291850E+03 -0.75234285763E+02  0.89747843518E+02  0.25957339263E+03  0.17233551408E+03 0.  0.
         24    2    3    3    0    0 -0.13004864879E+03 -0.24365193675E+02  0.12059828925E+03  0.19496473685E+03  0.77207431832E+02 0.  0.
         -6    2    1    2    0  502  0.15480291850E+03  0.75234285763E+02  0.43717353845E+03  0.49988086369E+03  0.17069280545E+03 0.  0.
        -24    2    5    5    0    0  0.19980922778E+02  0.65430125939E+02  0.22125684302E+03  0.24509624593E+03  0.80232415717E+02 0.  0.
          5    1    3    3  501    0 -0.24754269708E+02 -0.50869092088E+02 -0.30850445734E+02  0.64608655771E+02  0.47000000000E+01 0. -1.
        -13    1    4    4    0    0 -0.49552761057E+02 -0.47898046188E+02  0.61499281006E+02  0.92368070897E+02  0.00000000000E+00 0.  1.
         14    1    4    4    0    0 -0.80495887735E+02  0.23532852513E+02  0.59099008247E+02  0.10259666596E+03  0.00000000000E+00 0. -1.
         -5    1    5    5    0  502  0.13482199572E+03  0.98041598239E+01  0.21591669543E+03  0.25478461776E+03  0.47000000000E+01 0.  1.
         13    1    6    6    0    0 -0.20784330108E+02  0.96248408790E+01  0.14532269408E+02  0.27125869463E+02  0.00000000000E+00 0. -1.
        -14    1    6    6    0    0  0.40765252886E+02  0.55805285060E+02  0.20672457361E+03  0.21797037647E+03  0.00000000000E+00 0.  1.
</event>
<event>
12    1  0.1035051E+000  0.1992948E+03  0.7818608E-02  0.1152523E+00
         21   -1    0    0  503  502  0.00000000000E+00  0.00000000000E+00  0.10171019514E+04  0.10171019514E+04  0.00000000000E+00 0. -1.
         21   -1    0    0  501  503 -0.00000000000E+00 -0.00000000000E+00 -0.37386160426E+02  0.37386160426E+02  0.00000000000E+00 0. -1.
          6    2    1    2  501    0  0.68484837396E+02 -0.72186956021E+02  0.45695990264E+03  0.49852861682E+03  0.17267686468E+03 0.  0.
         24    2    3    3    0    0  0.26069576257E+02 -0.29065208679E+02  0.93888065678E+02  0.13042294141E+03  0.81674755025E+02 0.  0.
         -6    2    1    2    0  502 -0.68484837396E+02  0.72186956021E+02  0.52275588838E+03  0.55595949506E+03  0.16098481832E+03 0.  0.
        -24    2    5    5    0    0 -0.27172612871E+02 -0.15593887575E+02  0.31877752020E+03  0.33003596577E+03  0.79517992288E+02 0.  0.
          5    1    3    3  501    0  0.42415261139E+02 -0.43121747342E+02  0.36307183696E+03  0.36810567540E+03  0.47000000000E+01 0. -1.
        -13    1    4    4    0    0  0.31160699396E-01  0.23917341756E+02  0.54324828219E+02  0.59356778624E+02  0.00000000000E+00 0.  1.
         14    1    4    4    0    0  0.26038415557E+02 -0.52982550435E+02  0.39563237459E+02  0.71066162789E+02  0.00000000000E+00 0. -1.
         -5    1    5    5    0  502 -0.41312224525E+02  0.87780843597E+02  0.20397836818E+03  0.22592352928E+03  0.47000000000E+01 0.  1.
         11    1    6    6    0    0 -0.57144340293E+01  0.38922683464E+01  0.28677422381E+03  0.28685756038E+03  0.00000000000E+00 0. -1.
        -12    1    6    6    0    0 -0.21458178842E+02 -0.19486155922E+02  0.32003296396E+02  0.43178405390E+02  0.00000000000E+00 0.  1.
</event>
<event>
12    1  0.1035051E+000  0.1745674E+03  0.7818608E-02  0.1173428E+00
         21   -1    0    0  503  502  0.00000000000E+00  0.00000000000E+00  0.35119523438E+03  0.35119523438E+03  0.00000000000E+00 0.  1.
         21   -1    0    0  501  503 -0.00000000000E+00 -0.00000000000E+00 -0.91643946872E+02  0.91643946872E+02  0.00000000000E+00 0.  1.
          6    2    1    2  501    0  0.11605673838E+02  0.31260837613E+02  0.76462114398E+02  0.19057864862E+03  0.17135295369E+03 0.  0.
         24    2    3    3    0    0  0.46103120641E+02  0.40713037001E+02  0.10548733570E+03  0.14427561005E+03  0.76842856199E+02 0.  0.
         -6    2    1    2    0  502 -0.11605673838E+02 -0.31260837613E+02  0.18308917311E+03  0.25226053263E+03  0.17029914674E+03 0.  0.
        -24    2    5    5    0    0  0.43673470383E+02 -0.43167449132E+02  0.16370644544E+03  0.19229945096E+03  0.80052969212E+02 0.  0.
          5    1    3    3  501    0 -0.34497446803E+02 -0.94521993878E+01 -0.29025221299E+02  0.46303038569E+02  0.47000000000E+01 0. -1.
        -13    1    4    4    0    0  0.34149559046E+02 -0.15487206508E+02  0.61022176070E+02  0.71622286481E+02  0.00000000000E+00 0.  1.
         14    1    4    4    0    0  0.11953561596E+02  0.56200243509E+02  0.44465159627E+02  0.72653323571E+02  0.00000000000E+00 0. -1.
         -5    1    5    5    0  502 -0.55279144221E+02  0.11906611519E+02  0.19382727669E+02  0.59961081674E+02  0.47000000000E+01 0.  1.
         13    1    6    6    0    0  0.12114446358E+02 -0.21075762180E+02  0.14915003223E+03  0.15111809844E+03  0.00000000000E+00 0. -1.
        -14    1    6    6    0    0  0.31559024026E+02 -0.22091686952E+02  0.14556413217E+02  0.41181352522E+02  0.00000000000E+00 0.  1.
</event>
<event>
12    1  0.1035051E+000  0.2238873E+03  0.7818608E-02  0.1131280E+00
         21   -1    0    0  501  502  0.00000000000E+00  0.00000000000E+00  0.63497382035E+02  0.63497382035E+02  0.00000000000E+00 0. -1.
         21   -1    0    0  502  503 -0.00000000000E+00 -0.00000000000E+00 -0.78730203609E+03  0.78730203609E+03  0.00000000000E+00 0. -1.
         -6    2    1    2    0  503 -0.13408069792E+03 -0.49774654041E+02 -0.38908617862E+03  0.44890264306E+03  0.17225091818E+03 0.  0.
        -24    2    3    3    0    0 -0.33920854341E+02  0.27936791572E+02 -0.11817342891E+03  0.14975908054E+03  0.80819145130E+02 0.  0.
          6    2    1    2  501    0  0.13408069792E+03  0.49774654041E+02 -0.33471847544E+03  0.40189677507E+03  0.17038019330E+03 0.  0.
         24    2    5    5    0    0  0.14050624155E+01  0.11590590355E+02 -0.16027983174E+03  0.17938435431E+03  0.79704492489E+02 0.  0.
          5    1    5    5  501    0  0.13267563551E+03  0.38184063687E+02 -0.17443864369E+03  0.22251242076E+03  0.47000000000E+01 0. -1.
        -13    1    6    6    0    0 -0.13685917773E+02  0.26627848509E+02 -0.15441121053E+03  0.15728689901E+03  0.00000000000E+00 0.  1.
         14    1    6    6    0    0  0.15090980189E+02 -0.15037258155E+02 -0.58686212085E+01  0.22097455301E+02  0.00000000000E+00 0. -1.
         -5    1    3    3    0  503 -0.10015984358E+03 -0.77711445613E+02 -0.27091274971E+03  0.29914356252E+03  0.47000000000E+01 0.  1.
         11    1    4    4    0    0 -0.44908291248E+00  0.39854940311E+02 -0.10422989039E+03  0.11159071643E+03  0.00000000000E+00 0. -1.
        -12    1    4    4    0    0 -0.33471771428E+02 -0.11918148739E+02 -0.13943538521E+02  0.38168364104E+02  0.00000000000E+00 0.  1.
</event>
<event>
12    1  0.1035051E+000  0.1772940E+03  0.7818608E-02  0.1170505E+00
         21   -1    0    0  503  502  0.00000000000E+00  0.00000000000E+00  0.80833666891E+02  0.80833666891E+02  0.00000000000E+00 0.  1.
         21   -1    0    0  501  503 -0.00000000000E+00 -0.00000000000E+00 -0.40444250277E+03  0.40444250277E+03  0.00000000000E+00 0.  1.
          6    2    1    2  501    0 -0.24054036427E+02  0.32522383111E+02 -0.21029034360E+03  0.27505486217E+03  0.17261763097E+03 0.  0.
         24    2    3    3    0    0  0.84767187299E+01  0.23261600601E+02 -0.22425135471E+03  0.23816296666E+03  0.76288739501E+02 0.  0.
         -6    2    1    2    0  502  0.24054036427E+02 -0.32522383111E+02 -0.11331849228E+03  0.21022130748E+03  0.17238217819E+03 0.  0.
        -24    2    5    5    0    0  0.71662674407E+02 -0.36353834804E+02 -0.11442247179E+03  0.16221535782E+03  0.82244635412E+02 0.  0.
          5    1    3    3  501    0 -0.32530755157E+02  0.92607825100E+01  0.13961011108E+02  0.36891895518E+02  0.47000000000E+01 0. -1.
        -13    1    4    4    0    0 -0.10023079755E+02 -0.25129672372E+02 -0.57455088622E+02  0.63506297089E+02  0.00000000000E+00 0.  1.
         14    1    4    4    0    0  0.18499798485E+02  0.48391272974E+02 -0.16679626609E+03  0.17465666957E+03  0.00000000000E+00 0. -1.
         -5    1    5    5    0  502 -0.47608637980E+02  0.38314516922E+01  0.11039795142E+01  0.48005949664E+02  0.47000000000E+01 0.  1.
         11    1    6    6    0    0 -0.10047652588E+02 -0.23893947850E+02 -0.53778975141E+02  0.59699700448E+02  0.00000000000E+00 0. -1.
        -12    1    6    6    0    0  0.81710326995E+02 -0.12459886954E+02 -0.60643496648E+02  0.10251565737E+03  0.00000000000E+00 0.  1.
</event>
<event>
12    1  0.1035051E+000  0.2413266E+03  0.7818608E-02  0.1118920E+00
         21   -1    0    0  501  502  0.00000000000E+00  0.00000000000E+00  0.60036579449E+03  0.60036579449E+03  0.00000000000E+00 0. -1.
         21   -1    0    0  502  503 -0.00000000000E+00 -0.00000000000E+00 -0.98611591223E+02  0.98611591223E+02  0.00000000000E+00 0. -1.
         -6    2    1    2    0  503  0.32597388223E+02  0.16649184287E+03  0.29573069042E+03  0.38166964674E+03  0.17156035242E+03 0.  0.
        -24    2    3    3    0    0  0.21493992289E+02  0.72996568844E+02  0.56677214157E+02  0.12470018128E+03  0.80915621718E+02 0.  0.
          6    2    1    2  501    0 -0.32597388223E+02 -0.16649184287E+03  0.20602351285E+03  0.31730773898E+03  0.17162863954E+03 0.  0.
         24    2    5    5    0    0  0.43845793722E+02 -0.97859062713E+02  0.12884563200E+03  0.18872883764E+03  0.86709442903E+02 0.  0.
          5    1    5    5  501    0 -0.76443181945E+02 -0.68632780153E+02  0.77177880842E+02  0.12857890134E+03  0.47000000000E+01 0. -1.
        -13    1    6    6    0    0 -0.18469627671E+02 -0.53494244617E+02  0.30989175317E+02  0.64522014385E+02  0.00000000000E+00 0.  1.
         14    1    6    6    0    0  0.62315421392E+02 -0.44364818096E+02  0.97856456687E+02  0.12420682326E+03  0.00000000000E+00 0. -1.
         -5    1    3    3    0  503  0.11103395934E+02  0.93495274022E+02  0.23905347626E+03  0.25696946546E+03  0.47000000000E+01 0. -1.
         13    1    4    4    0    0  0.52003955324E+02  0.49265688921E+02  0.29611128812E+02  0.77513472531E+02  0.00000000000E+00 0. -1.
        -14    1    4    4    0    0 -0.30509963035E+02  0.23730879923E+02  0.27066085345E+02  0.47186708745E+02  0.00000000000E+00 0.  1.
</event>
<event>
12    1  0.1287476E+000  0.1743966E+03  0.7818608E-02  0.1173385E+00
         21   -1    0    0  501  502  0.00000000000E+00  0.00000000000E+00  0.98357492658E+02  0.98357492658E+02  0.00000000000E+00 0. -1.
         21   -1    0    0  502  503 -0.00000000000E+00 -0.00000000000E+00 -0.66974292279E+03  0.66974292279E+03  0.00000000000E+00 0. -1.
         -6    2    1    2    0  503 -0.49389898175E+01 -0.26036293694E+02 -0.37247895302E+01  0.17425467274E+03  0.17218749869E+03 0.  0.
        -24    2    3    3    0    0  0.50419817581E+02 -0.56406995079E+02  0.77982363204E+01  0.10989748834E+03  0.79326782075E+02 0.  0.
          6    2    1    2  501    0  0.49389898175E+01  0.26036293694E+02 -0.56766064060E+03  0.59384574271E+03  0.17237134634E+03 0.  0.
         24    2    5    5    0    0  0.21802480047E+01 -0.21639955397E+02 -0.51951974074E+03  0.52587316277E+03  0.78541588699E+02 0.  0.
          5    1    5    5  501    0  0.27587418128E+01  0.47676249092E+02 -0.48140899858E+02  0.67972579935E+02  0.47000000000E+01 0. -1.
        -13    1    6    6    0    0  0.13443379313E+02  0.23234962536E+02 -0.31705270420E+03  0.31818706003E+03  0.00000000000E+00 0.  1.
         14    1    6    6    0    0 -0.11263131308E+02 -0.44874917933E+02 -0.20246703654E+03  0.20768610274E+03  0.00000000000E+00 0. -1.
         -5    1    3    3    0  503 -0.55358807399E+02  0.30370701384E+02 -0.11523025851E+02  0.64357184400E+02  0.47000000000E+01 0.  1.
         13    1    4    4    0    0  0.27261824837E+01 -0.14925885225E+01 -0.28458286915E+02  0.28627504005E+02  0.00000000000E+00 0. -1.
        -14    1    4    4    0    0  0.47693635097E+02 -0.54914406556E+02  0.36256523235E+02  0.81269984332E+02  0.00000000000E+00 0.  1.
</event>
<event>
12    1  0.1035051E+000  0.1841339E+03  0.7818608E-02  0.1163998E+00
         21   -1    0    0  501  502  0.00000000000E+00  0.00000000000E+00  0.90204380845E+02  0.90204380845E+02  0.00000000000E+00 0.  1.
         21   -1    0    0  502  503 -0.00000000000E+00 -0.00000000000E+00 -0.41997310585E+03  0.41997310585E+03  0.00000000000E+00 0.  1.
         -6    2    1    2    0  503  0.32968481546E+02  0.56180408760E+02 -0.81351585884E+02  0.20130416227E+03  0.17222696106E+03 0.  0.
        -24    2    3    3    0    0  0.58982136089E+02 -0.20603584337E+02 -0.34993588665E+02  0.10779669880E+03  0.80574046437E+02 0.  0.
          6    2    1    2  501    0 -0.32968481546E+02 -0.56180408760E+02 -0.24841713912E+03  0.30887332442E+03  0.17160564218E+03 0.  0.
         24    2    5    5    0    0 -0.49383304544E+02 -0.16990600644E+02 -0.52004570796E+02  0.10786269170E+03  0.78755911514E+02 0.  0.
          5    1    5    5  501    0  0.16414822998E+02 -0.39189808116E+02 -0.19641256832E+03  0.20101063273E+03  0.47000000000E+01 0. -1.
        -11    1    6    6    0    0 -0.48287736704E+01  0.25683310521E+02 -0.35348257415E+02  0.43959626896E+02  0.00000000000E+00 0.  1.
         12    1    6    6    0    0 -0.44554530873E+02 -0.42673911165E+02 -0.16656313381E+02  0.63903064801E+02  0.00000000000E+00 0. -1.
         -5    1    3    3    0  503 -0.26013654543E+02  0.76783993097E+02 -0.46357997218E+02  0.93507463470E+02  0.47000000000E+01 0.  1.
         13    1    4    4    0    0  0.28653329189E+02 -0.19019206263E+02 -0.59532239669E+02  0.68751952994E+02  0.00000000000E+00 0. -1.
        -14    1    4    4    0    0  0.30328806900E+02 -0.15843780744E+01  0.24538651004E+02  0.39044745805E+02  0.00000000000E+00 0.  1.
</event>
<event>
12    1  0.1035051E+000  0.2316251E+03  0.7818608E-02  0.1126195E+00
         21   -1    0    0  503  502  0.00000000000E+00  0.00000000000E+00  0.37680603300E+02  0.37680603300E+02  0.00000000000E+00 0. -1.
         21   -1    0    0  501  503 -0.00000000000E+00 -0.00000000000E+00 -0.14215947741E+04  0.14215947741E+04  0.00000000000E+00 0. -1.
          6    2    1    2  501    0  0.13615320969E+03  0.77234053738E+02 -0.78841068296E+03  0.82173085505E+03  0.17072608930E+03 0.  0.
         24    2    3    3    0    0  0.58961299421E+02 -0.27862615785E+02 -0.41939653366E+03  0.43032641800E+03  0.70955009665E+02 0.  0.
         -6    2    1    2    0  502 -0.13615320969E+03 -0.77234053738E+02 -0.59550348788E+03  0.63754452239E+03  0.16533547227E+03 0.  0.
        -24    2    5    5    0    0 -0.16503065925E+03 -0.65128320046E+02 -0.52981278351E+03  0.56462117550E+03  0.81355206910E+02 0.  0.
          5    1    3    3  501    0  0.77191910268E+02  0.10509666952E+03 -0.36901414930E+03  0.39140443705E+03  0.47000000000E+01 0. -1.
        -13    1    4    4    0    0  0.12816348494E+02 -0.36044043178E+02 -0.92662931139E+02  0.10024894336E+03  0.00000000000E+00 0.  1.
         14    1    4    4    0    0  0.46144950927E+02  0.81814273929E+01 -0.32673360252E+03  0.33007747464E+03  0.00000000000E+00 0. -1.
         -5    1    5    5    0  502  0.28877449557E+02 -0.12105733692E+02 -0.65690704376E+02  0.72923346896E+02  0.47000000000E+01 0.  1.
         13    1    6    6    0    0 -0.12327687679E+03 -0.75691339031E+02 -0.33155161441E+03  0.36173587073E+03  0.00000000000E+00 0. -1.
        -14    1    6    6    0    0 -0.41753782457E+02  0.10563018985E+02 -0.19826116909E+03  0.20288530477E+03  0.00000000000E+00 0.  1.
</event>
<event>
12    1  0.1035051E+000  0.2453756E+03  0.7818608E-02  0.1116548E+00
         21   -1    0    0  501  502  0.00000000000E+00  0.00000000000E+00  0.66442661294E+03  0.66442661294E+03  0.00000000000E+00 0. -1.
         21   -1    0    0  502  503 -0.00000000000E+00 -0.00000000000E+00 -0.94245834875E+02  0.94245834875E+02  0.00000000000E+00 0. -1.
         -6    2    1    2    0  503 -0.13571928059E+03  0.10948024963E+03  0.20528436763E+03  0.31992320146E+03  0.17263700374E+03 0.  0.
        -24    2    3    3    0    0 -0.10608157923E+03  0.13228784791E+02  0.16282177003E+03  0.21052530377E+03  0.79885371206E+02 0.  0.
          6    2    1    2  501    0  0.13571928059E+03 -0.10948024963E+03  0.36489641043E+03  0.43874924635E+03  0.17013483666E+03 0.  0.
         24    2    5    5    0    0  0.65116490343E+02 -0.11674685563E+03  0.15949411266E+03  0.22137916680E+03  0.75500847057E+02 0.  0.
          5    1    5    5  501    0  0.70602790244E+02  0.72666060026E+01  0.20540229777E+03  0.21737007955E+03  0.47000000000E+01 0. -1.
        -13    1    6    6    0    0  0.54831359010E+02 -0.23408694155E+02  0.62731465495E+02  0.86542946888E+02  0.00000000000E+00 0.  1.
         14    1    6    6    0    0  0.10285131333E+02 -0.93338161473E+02  0.96762647165E+02  0.13483621991E+03  0.00000000000E+00 0. -1.
         -5    1    3    3    0  503 -0.29637701353E+02  0.96251464834E+02  0.42462597598E+02  0.10939789769E+03  0.47000000000E+01 0.  1.
         11    1    4    4    0    0 -0.14890586188E+02  0.12298605393E+02  0.94821026303E+02  0.96767826682E+02  0.00000000000E+00 0. -1.
        -12    1    4    4    0    0 -0.91190993047E+02  0.93017939777E+00  0.68000743730E+02  0.11375747709E+03  0.00000000000E+00 0.  1.
</event>
<event>
12    1  0.1035051E+000  0.3586597E+03  0.7818608E-02  0.1059130E+00
         21   -1    0    0  503  502  0.00000000000E+00  0.00000000000E+00  0.95852859899E+03  0.95852859899E+03  0.00000000000E+00 0.  1.
         21   -1    0    0  501  503 -0.00000000000E+00 -0.00000000000E+00 -0.13831076198E+03  0.13831076198E+03  0.00000000000E+00 0.  1.
          6    2    1    2  501    0  0.18286938611E+03  0.25608646020E+03  0.31489977175E+03  0.47717565830E+03  0.17179422327E+03 0.  0.
         24    2    3    3    0    0  0.13790709694E+03  0.17925570605E+03  0.13230877227E+03  0.27398575864E+03  0.80072524511E+02 0.  0.
         -6    2    1    2    0  502 -0.18286938611E+03 -0.25608646020E+03  0.50531806526E+03  0.61966370268E+03  0.17209087676E+03 0.  0.
        -24    2    5    5    0    0 -0.51385533222E+02 -0.17618048997E+03  0.23744462265E+03  0.31071186354E+03  0.80510094092E+02 0.  0.
          5    1    3    3  501    0  0.44962289170E+02  0.76830754154E+02  0.18259099948E+03  0.20318989966E+03  0.47000000000E+01 0. -1.
        -13    1    4    4    0    0  0.36943379865E+02  0.26726187695E+02 -0.41352673008E+01  0.45784308013E+02  0.00000000000E+00 0.  1.
         14    1    4    4    0    0  0.10096371708E+03  0.15252951835E+03  0.13644403957E+03  0.22820145063E+03  0.00000000000E+00 0. -1.
         -5    1    5    5    0  502 -0.13148385289E+03 -0.79905970231E+02  0.26787344261E+03  0.30895183914E+03  0.47000000000E+01 0.  1.
         13    1    6    6    0    0 -0.68873339282E+02 -0.10574894399E+03  0.16931314144E+03  0.21117129512E+03  0.00000000000E+00 0. -1.
        -14    1    6    6    0    0  0.17487806060E+02 -0.70431545981E+02  0.68131481207E+02  0.99540568421E+02  0.00000000000E+00 0.  1.
</event>
<event>
12    1  0.1035051E+000  0.2153465E+03  0.7818608E-02  0.1137457E+00
         21   -1    0    0  501  502  0.00000000000E+00  0.00000000000E+00  0.79600055462E+03  0.79600055462E+03  0.00000000000E+00 0. -1.
         21   -1    0    0  502  503 -0.00000000000E+00 -0.00000000000E+00 -0.58206828435E+02  0.58206828435E+02  0.00000000000E+00 0. -1.
         -6    2    1    2    0  503  0.94362668363E+02 -0.88423807326E+02  0.37786017263E+03  0.43477172002E+03  0.17182856453E+03 0.  0.
        -24    2    3    3    0    0  0.55741914568E+02 -0.10855619186E+03  0.17695231029E+03  0.22914357341E+03  0.79391745704E+02 0.  0.
          6    2    1    2  501    0 -0.94362668363E+02  0.88423807326E+02  0.35993355355E+03  0.41943566303E+03  0.17219474314E+03 0.  0.
         24    2    5    5    0    0 -0.76518475524E+02  0.12917908468E+03  0.27013810058E+03  0.31911257882E+03  0.79472835374E+02 0.  0.
          5    1    5    5  501    0 -0.17844192839E+02 -0.40755277352E+02  0.89795452974E+02  0.10032308421E+03  0.47000000000E+01 0. -1.
        -11    1    6    6    0    0 -0.47310777148E+02  0.83516235550E+02  0.23670502021E+03  0.25542618861E+03  0.00000000000E+00 0.  1.
         12    1    6    6    0    0 -0.29207698377E+02  0.45662849129E+02  0.33433080364E+02  0.63686390207E+02  0.00000000000E+00 0. -1.
         -5    1    3    3    0  503  0.38620753795E+02  0.20132384534E+02  0.20090786234E+03  0.20562814662E+03  0.47000000000E+01 0.  1.
         11    1    4    4    0    0  0.71750744763E+02 -0.97848267500E+02  0.16958605253E+03  0.20852309713E+03  0.00000000000E+00 0. -1.
        -12    1    4    4    0    0 -0.16008830194E+02 -0.10707924360E+02  0.73662577633E+01  0.20620476273E+02  0.00000000000E+00 0.  1.
</event>
<event>
12    1  0.1035051E+000  0.2175780E+03  0.7818608E-02  0.1136740E+00
         21   -1    0    0  501  502  0.00000000000E+00  0.00000000000E+00  0.41229797816E+02  0.41229797816E+02  0.00000000000E+00 0. -1.
         21   -1    0    0  502  503 -0.00000000000E+00 -0.00000000000E+00 -0.11788562967E+04  0.11788562967E+04  0.00000000000E+00 0. -1.
         -6    2    1    2    0  503  0.55988699099E+02  0.11075708838E+03 -0.43907561184E+03  0.49002812402E+03  0.17871290487E+03 0.  0.
        -24    2    3    3    0    0  0.75724613909E+02  0.25464944300E+02 -0.33446811956E+03  0.35353975962E+03  0.82089939044E+02 0.  0.
          6    2    1    2  501    0 -0.55988699099E+02 -0.11075708838E+03 -0.69855088705E+03  0.73005797050E+03  0.17207391272E+03 0.  0.
         24    2    5    5    0    0  0.83314870624E+01 -0.92686568164E+02 -0.27160009014E+03  0.29788589478E+03  0.79430370460E+02 0.  0.
          5    1    5    5  501    0 -0.64320186161E+02 -0.18070520217E+02 -0.42695079691E+03  0.43217207572E+03  0.47000000000E+01 0. -1.
        -11    1    6    6    0    0 -0.19787353897E+02 -0.24710095334E+02 -0.16720939820E+03  0.17017964341E+03  0.00000000000E+00 0.  1.
         12    1    6    6    0    0  0.28118840959E+02 -0.67976472830E+02 -0.10439069195E+03  0.12770625138E+03  0.00000000000E+00 0. -1.
         -5    1    3    3    0  503 -0.19735914810E+02  0.85292144081E+02 -0.10460749228E+03  0.13648836440E+03  0.47000000000E+01 0.  1.
         11    1    4    4    0    0 -0.12734015838E+02 -0.11614296574E+02 -0.73779391715E+02  0.75765728968E+02  0.00000000000E+00 0. -1.
        -12    1    4    4    0    0  0.88458629747E+02  0.37079240874E+02 -0.26068872784E+03  0.27777403065E+03  0.00000000000E+00 0.  1.
</event>
<event>
12    1  0.1035051E+000  0.1751866E+03  0.7818608E-02  0.1176556E+00
         21   -1    0    0  501  502  0.00000000000E+00  0.00000000000E+00  0.96503687230E+02  0.96503687230E+02  0.00000000000E+00 0. -1.
         21   -1    0    0  502  503 -0.00000000000E+00 -0.00000000000E+00 -0.40004132110E+03  0.40004132110E+03  0.00000000000E+00 0. -1.
         -6    2    1    2    0  503  0.82379586459E+01  0.26283516083E+02 -0.17195386228E+02  0.16086328856E+03  0.15755198862E+03 0.  0.
        -24    2    3    3    0    0  0.57045452036E+02  0.15575857027E+02  0.16576549743E+02  0.10036982583E+03  0.79388469038E+02 0.  0.
          6    2    1    2  501    0 -0.82379586459E+01 -0.26283516083E+02 -0.28634224764E+03  0.33568171977E+03  0.17300765019E+03 0.  0.
         24    2    5    5    0    0 -0.32479614629E+02 -0.78850904372E+02 -0.20493807159E+03  0.23568312941E+03  0.79211954985E+02 0.  0.
          5    1    5    5  501    0  0.24241655983E+02  0.52567388289E+02 -0.81404176047E+02  0.99998590361E+02  0.47000000000E+01 0. -1.
        -11    1    6    6    0    0 -0.57795947757E+01 -0.72522043332E+02 -0.81569321577E+02  0.10929960982E+03  0.00000000000E+00 0.  1.
         12    1    6    6    0    0 -0.26700019853E+02 -0.63288610391E+01 -0.12336875002E+03  0.12638351958E+03  0.00000000000E+00 0. -1.
         -5    1    3    3    0  503 -0.48807493390E+02  0.10707659056E+02 -0.33771935970E+02  0.60493462726E+02  0.47000000000E+01 0.  1.
         13    1    4    4    0    0 -0.12475369581E+00 -0.10124316143E+02 -0.23762771339E+02  0.25829956302E+02  0.00000000000E+00 0. -1.
        -14    1    4    4    0    0  0.57170205731E+02  0.25700173170E+02  0.40339321081E+02  0.74539869531E+02  0.00000000000E+00 0.  1.
</event>
<event>
12    1  0.1035051E+000  0.2530831E+03  0.7818608E-02  0.1111465E+00
         21   -1    0    0  503  502  0.00000000000E+00  0.00000000000E+00  0.53653447404E+03  0.53653447404E+03  0.00000000000E+00 0.  1.
         21   -1    0    0  501  503 -0.00000000000E+00 -0.00000000000E+00 -0.14227022216E+03  0.14227022216E+03  0.00000000000E+00 0.  1.
          6    2    1    2  501    0 -0.19736496426E+02 -0.18353270526E+03  0.33391497624E+03  0.41862575017E+03  0.17226295061E+03 0.  0.
         24    2    3    3    0    0 -0.41271466314E+02 -0.14674673515E+03  0.14390382846E+03  0.22383537873E+03  0.78460351234E+02 0.  0.
         -6    2    1    2    0  502  0.19736496426E+02  0.18353270526E+03  0.60349275634E+02  0.26017894603E+03  0.17313944004E+03 0.  0.
        -24    2    5    5    0    0  0.77603593924E+02  0.14271862944E+03  0.34332817019E+02  0.18459233428E+03  0.80651488333E+02 0.  0.
          5    1    3    3  501    0  0.21534969888E+02 -0.36785970117E+02  0.19001114778E+03  0.19479037144E+03  0.47000000000E+01 0. -1.
        -11    1    4    4    0    0 -0.46483319916E+02 -0.63887835660E+02  0.33791513510E+02  0.85931489927E+02  0.00000000000E+00 0.  1.
         12    1    4    4    0    0  0.52118536020E+01 -0.82858899486E+02  0.11011231495E+03  0.13790388880E+03  0.00000000000E+00 0. -1.
         -5    1    5    5    0  502 -0.57867097498E+02  0.40814075824E+02  0.26016458615E+02  0.75586611758E+02  0.47000000000E+01 0.  1.
         11    1    6    6    0    0  0.76941402897E+02  0.67733859335E+02  0.38474441494E+02  0.10949035496E+03  0.00000000000E+00 0. -1.
        -12    1    6    6    0    0  0.66219102665E+00  0.74984770104E+02 -0.41416244746E+01  0.75101979320E+02  0.00000000000E+00 0.  1.
</event>
<event>
12    1  0.1035051E+000  0.1925652E+03  0.7818608E-02  0.1156656E+00
         21   -1    0    0  503  502  0.00000000000E+00  0.00000000000E+00  0.11157384237E+04  0.11157384237E+04  0.00000000000E+00 0.  1.
         21   -1    0    0  501  503 -0.00000000000E+00 -0.00000000000E+00 -0.55841936093E+02  0.55841936093E+02  0.00000000000E+00 0.  1.
          6    2    1    2  501    0  0.65887937307E+02  0.56265158401E+02  0.15591920838E+03  0.24777437388E+03  0.17197195260E+03 0.  0.
         24    2    3    3    0    0 -0.17074835932E+02  0.74184554757E+01  0.11897807523E+03  0.14454860458E+03  0.79949566584E+02 0.  0.
         -6    2    1    2    0  502 -0.65887937307E+02 -0.56265158401E+02  0.90397727919E+03  0.92380598587E+03  0.16951575120E+03 0.  0.
        -24    2    5    5    0    0 -0.51776665067E+02 -0.48218910526E+02  0.90033123778E+03  0.90650703425E+03  0.78439652337E+02 0.  0.
          5    1    3    3  501    0  0.82962773239E+02  0.48846702925E+02  0.36941133149E+02  0.10322576930E+03  0.47000000000E+01 0. -1.
        -11    1    4    4    0    0 -0.21621410478E+01 -0.11872102000E+02 -0.84994671764E+01  0.14760169447E+02  0.00000000000E+00 0.  1.
         12    1    4    4    0    0 -0.14912694884E+02  0.19290557476E+02  0.12747754241E+03  0.12978843513E+03  0.00000000000E+00 0. -1.
         -5    1    5    5    0  502 -0.14111272240E+02 -0.80462478744E+01  0.36460414151E+01  0.17298951618E+02  0.47000000000E+01 0.  1.
         13    1    6    6    0    0 -0.32607243666E+02  0.15616531205E+02  0.42343793461E+03  0.42497857928E+03  0.00000000000E+00 0. -1.
        -14    1    6    6    0    0 -0.19169421401E+02 -0.63835441731E+02  0.47689330317E+03  0.48152845497E+03  0.00000000000E+00 0.  1.
</event>
<event>
12    1  0.1035051E+000  0.2680248E+03  0.7818608E-02  0.1103469E+00
         21   -1    0    0  501  502  0.00000000000E+00  0.00000000000E+00  0.28111678480E+03  0.28111678480E+03  0.00000000000E+00 0.  1.
         21   -1    0    0  502  503 -0.00000000000E+00 -0.00000000000E+00 -0.42006120052E+03  0.42006120052E+03  0.00000000000E+00 0.  1.
         -6    2    1    2    0  503  0.13110392338E+03  0.14575964981E+03 -0.29280045503E+03  0.39213270440E+03  0.17205184438E+03 0.  0.
        -24    2    3    3    0    0  0.80108389947E+02  0.93331525445E+02 -0.78383790455E+02  0.16553648046E+03  0.78295465873E+02 0.  0.
          6    2    1    2  501    0 -0.13110392338E+03 -0.14575964981E+03  0.15385603931E+03  0.30904528092E+03  0.18276539768E+03 0.  0.
         24    2    5    5    0    0 -0.12382940800E+03 -0.97218605517E+02  0.35767401485E+02  0.18107587857E+03  0.81999922241E+02 0.  0.
          5    1    5    5  501    0 -0.72745153832E+01 -0.48541044288E+02  0.11808863782E+03  0.12796940235E+03  0.47000000000E+01 0. -1.
        -11    1    6    6    0    0  0.86019984520E+01 -0.10700434006E+02  0.16888846705E+02  0.21765266098E+02  0.00000000000E+00 0.  1.
         12    1    6    6    0    0 -0.13243140645E+03 -0.86518171511E+02  0.18878554780E+02  0.15931061247E+03  0.00000000000E+00 0. -1.
         -5    1    3    3    0  503  0.50995533436E+02  0.52428124361E+02 -0.21441666457E+03  0.22659622393E+03  0.47000000000E+01 0.  1.
         11    1    4    4    0    0  0.39998763090E+02  0.39557495345E+02 -0.80745111693E+02  0.98409702515E+02  0.00000000000E+00 0. -1.
        -12    1    4    4    0    0  0.40109626857E+02  0.53774030099E+02  0.23613212380E+01  0.67126777948E+02  0.00000000000E+00 0.  1.
</event>
<event>
12    1  0.1035051E+000  0.2770773E+03  0.7818608E-02  0.1097316E+00
         21   -1    0    0  501  502  0.00000000000E+00  0.00000000000E+00  0.11003623830E+04  0.11003623830E+04  0.00000000000E+00 0. -1.
         21   -1    0    0  502  503 -0.00000000000E+00 -0.00000000000E+00 -0.10591740887E+03  0.10591740887E+03  0.00000000000E+00 0.  1.
         -6    2    1    2    0  503 -0.12835925479E+03 -0.17553975574E+03  0.84966513974E+03  0.89365694501E+03  0.17146889383E+03 0.  0.
        -24    2    3    3    0    0 -0.15708710953E+03 -0.12602534251E+03  0.71469148973E+03  0.74697039842E+03  0.81376309112E+02 0.  0.
          6    2    1    2  501    0  0.12835925479E+03  0.17553975574E+03  0.14477983444E+03  0.31262284690E+03  0.17170189226E+03 0.  0.
         24    2    5    5    0    0  0.50487994416E+02  0.35096484362E+02  0.10810659439E+03  0.14783430905E+03  0.79919624552E+02 0.  0.
          5    1    5    5  501    0  0.77871260375E+02  0.14044327138E+03  0.36673240052E+02  0.16478853784E+03  0.47000000000E+01 0. -1.
        -13    1    6    6    0    0  0.14839830855E+02  0.20059004666E+02 -0.73953802698E+01  0.26024524920E+02  0.00000000000E+00 0.  1.
         14    1    6    6    0    0  0.35648163561E+02  0.15037479697E+02  0.11550197466E+03  0.12180978413E+03  0.00000000000E+00 0. -1.
         -5    1    3    3    0  503  0.28727854742E+02 -0.49514413231E+02  0.13497365000E+03  0.14668654659E+03  0.47000000000E+01 0.  1.
         13    1    4    4    0    0 -0.26793140838E+02 -0.11085351263E+02  0.23500874899E+03  0.23679077159E+03  0.00000000000E+00 0. -1.
        -14    1    4    4    0    0 -0.13029396870E+03 -0.11493999125E+03  0.47968274074E+03  0.51017962683E+03  0.00000000000E+00 0.  1.
</event>
<event>
12    1  0.1035051E+000  0.4675642E+03  0.7818608E-02  0.1022684E+00
         21   -1    0    0  503  502  0.00000000000E+00  0.00000000000E+00  0.11507999218E+04  0.11507999218E+04  0.00000000000E+00 0. -1.
         21   -1    0    0  501  503 -0.00000000000E+00 -0.00000000000E+00 -0.19340524715E+03  0.19340524715E+03  0.00000000000E+00 0. -1.
          6    2    1    2  501    0  0.42106897495E+03 -0.10419992618E+03  0.57311594908E+03  0.73898912585E+03  0.17171584305E+03 0.  0.
         24    2    3    3    0    0  0.14717638355E+03 -0.69929813071E+02  0.15718885810E+03  0.23978072519E+03  0.78964501085E+02 0.  0.
         -6    2    1    2    0  502 -0.42106897495E+03  0.10419992618E+03  0.38427872552E+03  0.60521604305E+03  0.17452682773E+03 0.  0.
        -24    2    5    5    0    0 -0.14406688107E+03 -0.13443868127E+02  0.11097390567E+03  0.19865997446E+03  0.78832568791E+02 0.  0.
          5    1    3    3  501    0  0.27389259140E+03 -0.34270113113E+02  0.41592709098E+03  0.49920840066E+03  0.47000000000E+01 0. -1.
        -11    1    4    4    0    0  0.11244508202E+03 -0.20584070791E+02  0.13137996444E+03  0.17415020959E+03  0.00000000000E+00 0.  1.
         12    1    4    4    0    0  0.34731301528E+02 -0.49345742279E+02  0.25808893655E+02  0.65630515605E+02  0.00000000000E+00 0. -1.
         -5    1    5    5    0  502 -0.27700209388E+03  0.11764379431E+03  0.27330481985E+03  0.40655606859E+03  0.47000000000E+01 0.  1.
         11    1    6    6    0    0 -0.46399310965E+02  0.48050650207E+01  0.83379879799E+02  0.95541556734E+02  0.00000000000E+00 0. -1.
        -12    1    6    6    0    0 -0.97667570100E+02 -0.18248933148E+02  0.27594025873E+02  0.10311841773E+03  0.00000000000E+00 0.  1.
</event>
<event>
12    1  0.1035051E+000  0.2223390E+03  0.7818608E-02  0.1132327E+00
         21   -1    0    0  501  502  0.00000000000E+00  0.00000000000E+00  0.11169280305E+03  0.11169280305E+03  0.00000000000E+00 0. -1.
         21   -1    0    0  502  503 -0.00000000000E+00 -0.00000000000E+00 -0.61723354451E+03  0.61723354451E+03  0.00000000000E+00 0. -1.
         -6    2    1    2    0  503 -0.90756040598E+02  0.10819573693E+03 -0.58243475016E+02  0.22984105903E+03  0.17173128322E+03 0.  0.
        -24    2    3    3    0    0 -0.23218432611E+02  0.15775708842E+01  0.16290603373E+02  0.83191201661E+02  0.78190843024E+02 0.  0.
          6    2    1    2  501    0  0.90756040598E+02 -0.10819573693E+03 -0.44729726645E+03  0.49908528853E+03  0.17049429393E+03 0.  0.
         24    2    5    5    0    0  0.78028280792E+02 -0.11025470096E+03 -0.45648842227E+03  0.48256855314E+03  0.79033012911E+02 0.  0.
          5    1    5    5  501    0  0.12727759806E+02  0.20589640254E+01  0.91911558239E+01  0.16516735389E+02  0.47000000000E+01 0. -1.
        -11    1    6    6    0    0  0.45148290084E+02 -0.20673087284E+02 -0.25286161126E+03  0.25769116998E+03  0.00000000000E+00 0.  1.
         12    1    6    6    0    0  0.32879990708E+02 -0.89581613676E+02 -0.20362681101E+03  0.22487738317E+03  0.00000000000E+00 0. -1.
         -5    1    3    3    0  503 -0.67537607987E+02  0.10661816605E+03 -0.74534078389E+02  0.14664985737E+03  0.47000000000E+01 0.  1.
         11    1    4    4    0    0  0.27024540685E+02  0.12229673490E+02  0.13124985891E+01  0.29691974765E+02  0.00000000000E+00 0. -1.
        -12    1    4    4    0    0 -0.50242973296E+02 -0.10652102605E+02  0.14978104783E+02  0.53499226896E+02  0.00000000000E+00 0.  1.
</event>
<event>
12    1  0.1035051E+000  0.1812852E+03  0.7818608E-02  0.1166801E+00
         21   -1    0    0  503  502  0.00000000000E+00  0.00000000000E+00  0.13454257154E+03  0.13454257154E+03  0.00000000000E+00 0. -1.
         21   -1    0    0  501  503 -0.00000000000E+00 -0.00000000000E+00 -0.24441781860E+03  0.24441781860E+03  0.00000000000E+00 0. -1.
          6    2    1    2  501    0  0.38187116318E+02  0.38879104901E+02 -0.40087813071E+02  0.18470637644E+03  0.17187080057E+03 0.  0.
         24    2    3    3    0    0  0.70127221184E+02 -0.20832096868E+02 -0.91301340124E+01  0.11010030559E+03  0.81773556436E+02 0.  0.
         -6    2    1    2    0  502 -0.38187116318E+02 -0.38879104901E+02 -0.69787433991E+02  0.19425401370E+03  0.17290024651E+03 0.  0.
        -24    2    5    5    0    0  0.41561976411E+02  0.18099109865E+02 -0.65071150384E+02  0.96015690827E+02  0.54127466332E+02 0.  0.
          5    1    3    3  501    0 -0.31940104866E+02  0.59711201769E+02 -0.30957679058E+02  0.74606070854E+02  0.47000000000E+01 0. -1.
        -13    1    4    4    0    0  0.69255877004E+01  0.28588000585E+02 -0.63014274930E+00  0.29421669264E+02  0.00000000000E+00 0.  1.
         14    1    4    4    0    0  0.63201633484E+02 -0.49420097453E+02 -0.84999912631E+01  0.80678636322E+02  0.00000000000E+00 0. -1.
         -5    1    5    5    0  502 -0.79749092730E+02 -0.56978214766E+02 -0.47162836068E+01  0.98238322869E+02  0.47000000000E+01 0.  1.
         11    1    6    6    0    0  0.45106430312E+02  0.57514439765E+01 -0.20956023354E+02  0.50068194277E+02  0.00000000000E+00 0. -1.
        -12    1    6    6    0    0 -0.35444539008E+01  0.12347665888E+02 -0.44115127029E+02  0.45947496550E+02  0.00000000000E+00 0.  1.
</event>
<event>
12    1  0.1035051E+000  0.2540984E+03  0.7818608E-02  0.1110931E+00
         21   -1    0    0  503  502  0.00000000000E+00  0.00000000000E+00  0.64698681521E+03  0.64698681521E+03  0.00000000000E+00 0. -1.
         21   -1    0    0  501  503 -0.00000000000E+00 -0.00000000000E+00 -0.99319677366E+02  0.99319677366E+02  0.00000000000E+00 0. -1.
          6    2    1    2  501    0  0.16806458117E+03  0.80756427851E+02  0.27619978422E+03  0.37530295036E+03  0.17262294072E+03 0.  0.
         24    2    3    3    0    0  0.13878117828E+03  0.70566002831E+02  0.29215339443E+03  0.34011815072E+03  0.78019064127E+02 0.  0.
         -6    2    1    2    0  502 -0.16806458117E+03 -0.80756427851E+02  0.27146735363E+03  0.37100354222E+03  0.17082681338E+03 0.  0.
        -24    2    5    5    0    0 -0.10487138971E+03  0.15802501914E+02  0.18012815233E+03  0.22375563542E+03  0.79829228178E+02 0.  0.
          5    1    3    3  501    0  0.29283402892E+02  0.10190425020E+02 -0.15953610214E+02  0.35184799642E+02  0.47000000000E+01 0. -1.
        -13    1    4    4    0    0  0.84812233684E+02  0.12307837319E+02  0.97059208205E+02  0.12948006696E+03  0.00000000000E+00 0.  1.
         14    1    4    4    0    0  0.53968944599E+02  0.58258165511E+02  0.19509418623E+03  0.21063808376E+03  0.00000000000E+00 0. -1.
         -5    1    5    5    0  502 -0.63193191460E+02 -0.96558929764E+02  0.91339201298E+02  0.14724790680E+03  0.47000000000E+01 0.  1.
         13    1    6    6    0    0 -0.11973079498E+02 -0.27524634850E+02  0.46364622585E+02  0.55232584438E+02  0.00000000000E+00 0. -1.
        -14    1    6    6    0    0 -0.92898310217E+02  0.43327136764E+02  0.13376352975E+03  0.16852305098E+03  0.00000000000E+00 0.  1.
</event>
<event>
12    1  0.1035051E+000  0.1767886E+03  0.7818608E-02  0.1171173E+00
         21   -1    0    0  503  502  0.00000000000E+00  0.00000000000E+00  0.10402693321E+03  0.10402693321E+03  0.00000000000E+00 0.  1.
         21   -1    0    0  501  503 -0.00000000000E+00 -0.00000000000E+00 -0.30119391996E+03  0.30119391996E+03  0.00000000000E+00 0.  1.
          6    2    1    2  501    0  0.35399126443E+02 -0.15400740203E+02 -0.81162274487E+02  0.19452897910E+03  0.17252225352E+03 0.  0.
         24    2    3    3    0    0  0.95652984440E+01 -0.76589653224E+02 -0.49544243760E+02  0.12081833121E+03  0.78644562123E+02 0.  0.
         -6    2    1    2    0  502 -0.35399126443E+02  0.15400740203E+02 -0.11600471226E+03  0.21069187406E+03  0.17159164192E+03 0.  0.
        -24    2    5    5    0    0 -0.20970550502E+02  0.50260571809E+02 -0.13532801304E+03  0.16804364296E+03  0.83421254836E+02 0.  0.
          5    1    3    3  501    0  0.25833827999E+02  0.61188913021E+02 -0.31618030727E+02  0.73710647893E+02  0.47000000000E+01 0. -1.
        -13    1    4    4    0    0  0.28442235996E+01  0.12467901481E+02  0.75183598143E+01  0.14834551207E+02  0.00000000000E+00 0.  1.
         14    1    4    4    0    0  0.67210748443E+01 -0.89057554705E+02 -0.57062603574E+02  0.10598378000E+03  0.00000000000E+00 0. -1.
         -5    1    5    5    0  502 -0.14428575941E+02 -0.34859831606E+02  0.19323300780E+02  0.42648231104E+02  0.47000000000E+01 0.  1.
         13    1    6    6    0    0 -0.13621796336E+02  0.27382322015E+02  0.15610289122E-01  0.30583412793E+02  0.00000000000E+00 0. -1.
        -14    1    6    6    0    0 -0.73487541660E+01  0.22878249794E+02 -0.13534362333E+03  0.13746023016E+03  0.00000000000E+00 0.  1.
</event>
<event>
12    1  0.1035051E+000  0.2021306E+03  0.7818608E-02  0.1147972E+00
         21   -1    0    0  503  502  0.00000000000E+00  0.00000000000E+00  0.73253803273E+02  0.73253803273E+02  0.00000000000E+00 0. -1.
         21   -1    0    0  501  503 -0.00000000000E+00 -0.00000000000E+00 -0.61173487905E+03  0.61173487905E+03  0.00000000000E+00 0. -1.
          6    2    1    2  501    0 -0.53211852246E+02 -0.93121774888E+02 -0.37126678562E+03  0.42272428489E+03  0.17132900733E+03 0.  0.
         24    2    3    3    0    0 -0.45936095243E+02 -0.10877293016E+03 -0.37771620355E+03  0.40370902016E+03  0.79810822287E+02 0.  0.
         -6    2    1    2    0  502  0.53211852246E+02  0.93121774888E+02 -0.16721429016E+03  0.26226439744E+03  0.17122741939E+03 0.  0.
        -24    2    5    5    0    0 -0.19293448243E+02 -0.15495167634E+01 -0.57078696027E+02  0.99871013469E+02  0.79634186402E+02 0.  0.
          5    1    3    3  501    0 -0.72757570024E+01  0.15651155267E+02  0.64494179268E+01  0.19015264730E+02  0.47000000000E+01 0. -1.
        -13    1    4    4    0    0 -0.29644855884E+02 -0.10939003568E+03 -0.24440354079E+03  0.26940320736E+03  0.00000000000E+00 0.  1.
         14    1    4    4    0    0 -0.16291239359E+02  0.61710552569E+00 -0.13331266276E+03  0.13430581280E+03  0.00000000000E+00 0. -1.
         -5    1    5    5    0  502  0.72505300488E+02  0.94671291652E+02 -0.11013559413E+03  0.16239338397E+03  0.47000000000E+01 0.  1.
         11    1    6    6    0    0 -0.43432944282E+02  0.19131841755E+02 -0.21327296434E+02  0.52031736384E+02  0.00000000000E+00 0. -1.
        -12    1    6    6    0    0  0.24139496039E+02 -0.20681358518E+02 -0.35751399593E+02  0.47839277085E+02  0.00000000000E+00 0.  1.
</event>
<event>
12    1  0.1035051E+000  0.2053024E+03  0.7818608E-02  0.1145488E+00
         21   -1    0    0  503  502  0.00000000000E+00  0.00000000000E+00  0.63625738053E+03  0.63625738053E+03  0.00000000000E+00 0. -1.
         21   -1    0    0  501  503 -0.00000000000E+00 -0.00000000000E+00 -0.68274177023E+02  0.68274177023E+02  0.00000000000E+00 0. -1.
          6    2    1    2  501    0 -0.50927456040E+02  0.97793338972E+02  0.34762103062E+03  0.40335290917E+03  0.17232540579E+03 0.  0.
         24    2    3    3    0    0 -0.96015389588E+02  0.51127711419E+02  0.23385035942E+03  0.27229392180E+03  0.87321196360E+02 0.  0.
         -6    2    1    2    0  502  0.50927456040E+02 -0.97793338972E+02  0.22036217288E+03  0.30117864838E+03  0.17318183529E+03 0.  0.
        -24    2    5    5    0    0 -0.19508209260E+02 -0.65961216362E+02  0.58900294652E+02  0.12210744718E+03  0.81911730872E+02 0.  0.
          5    1    3    3  501    0  0.45087933548E+02  0.46665627553E+02  0.11377067120E+03  0.13105898738E+03  0.47000000000E+01 0. -1.
        -13    1    4    4    0    0 -0.48553425839E+02  0.12064511240E+01  0.17525561599E+03  0.18186099533E+03  0.00000000000E+00 0.  1.
         14    1    4    4    0    0 -0.47461963748E+02  0.49921260295E+02  0.58594743431E+02  0.90432926470E+02  0.00000000000E+00 0. -1.
         -5    1    5    5    0  502  0.70435665300E+02 -0.31832122610E+02  0.16146187823E+03  0.17907120120E+03  0.47000000000E+01 0.  1.
         11    1    6    6    0    0 -0.16349704047E+02  0.17177730992E+02  0.14614027933E+02  0.27856006119E+02  0.00000000000E+00 0. -1.
        -12    1    6    6    0    0 -0.31585052133E+01 -0.83138947355E+02  0.44286266719E+02  0.94251441062E+02  0.00000000000E+00 0.  1.
</event>
<event>
12    1  0.1035051E+000  0.1813881E+03  0.7818608E-02  0.1167167E+00
         21   -1    0    0  503  502  0.00000000000E+00  0.00000000000E+00  0.42707806385E+03  0.42707806385E+03  0.00000000000E+00 0.  1.
         21   -1    0    0  501  503 -0.00000000000E+00 -0.00000000000E+00 -0.77485664549E+02  0.77485664549E+02  0.00000000000E+00 0.  1.
          6    2    1    2  501    0  0.38480923135E+02  0.29542783705E+02  0.13909641635E+03  0.22858135925E+03  0.17478005390E+03 0.  0.
         24    2    3    3    0    0 -0.54283980308E+02  0.41242969354E+02  0.87755798893E+02  0.12180977756E+03  0.49887960784E+02 0.  0.
         -6    2    1    2    0  502 -0.38480923135E+02 -0.29542783705E+02  0.21049598295E+03  0.27598236915E+03  0.17176772610E+03 0.  0.
        -24    2    5    5    0    0 -0.39820888617E+02 -0.73349626744E+01  0.22923976008E+03  0.24651370777E+03  0.81108789091E+02 0.  0.
          5    1    3    3  501    0  0.92764903443E+02 -0.11700185649E+02  0.51340617459E+02  0.10677158169E+03  0.47000000000E+01 0. -1.
        -11    1    4    4    0    0 -0.43484259560E+02  0.17358907475E+02  0.23446535677E+02  0.52363656608E+02  0.00000000000E+00 0.  1.
         12    1    4    4    0    0 -0.10799720749E+02  0.23884061879E+02  0.64309263216E+02  0.69446120954E+02  0.00000000000E+00 0. -1.
         -5    1    5    5    0  502  0.13399654825E+01 -0.22207821030E+02 -0.18743777132E+02  0.29468661381E+02  0.47000000000E+01 0.  1.
         13    1    6    6    0    0 -0.17712245346E+02  0.19672649069E+02  0.17082758648E+02  0.31504878981E+02  0.00000000000E+00 0. -1.
        -14    1    6    6    0    0 -0.22108643271E+02 -0.27007611743E+02  0.21215700143E+03  0.21500882879E+03  0.00000000000E+00 0.  1.
</event>
<event>
12    1  0.1035051E+000  0.1875671E+03  0.7818608E-02  0.1161037E+00
         21   -1    0    0  503  502  0.00000000000E+00  0.00000000000E+00  0.12031039602E+04  0.12031039602E+04  0.00000000000E+00 0.  1.
         21   -1    0    0  501  503 -0.00000000000E+00 -0.00000000000E+00 -0.43823525337E+02  0.43823525337E+02  0.00000000000E+00 0.  1.
          6    2    1    2  501    0 -0.46465070846E+02  0.54978488791E+02  0.94389596089E+03  0.96235181180E+03  0.17320446772E+03 0.  0.
         24    2    3    3    0    0  0.39228311885E+02  0.24142748555E+02  0.36986960176E+03  0.38112676958E+03  0.79576123451E+02 0.  0.
         -6    2    1    2    0  502  0.46465070846E+02 -0.54978488791E+02  0.21538447397E+03  0.28457567374E+03  0.17149695455E+03 0.  0.
        -24    2    5    5    0    0 -0.18618606351E+00 -0.44201969496E+02  0.34470501848E+02  0.97374102036E+02  0.79621928369E+02 0.  0.
          5    1    3    3  501    0 -0.85693382731E+02  0.30835740236E+02  0.57402635913E+03  0.58122504222E+03  0.47000000000E+01 0. -1.
        -13    1    4    4    0    0  0.93101494024E+01 -0.28249856793E+02  0.88615137352E+02  0.93473931439E+02  0.00000000000E+00 0.  1.
         14    1    4    4    0    0  0.29918162483E+02  0.52392605348E+02  0.28125446441E+03  0.28765283814E+03  0.00000000000E+00 0. -1.
         -5    1    5    5    0  502  0.46651256909E+02 -0.10776519295E+02  0.18091397212E+03  0.18720157170E+03  0.47000000000E+01 0.  1.
         11    1    6    6    0    0  0.33503594480E+02 -0.44865100656E+02  0.13210667246E+02  0.57531641981E+02  0.00000000000E+00 0. -1.
        -12    1    6    6    0    0 -0.33689780543E+02  0.66313115954E+00  0.21259834602E+02  0.39842460056E+02  0.00000000000E+00 0.  1.
</event>
<event>
12    1  0.1035051E+000  0.2235805E+03  0.7818608E-02  0.1131284E+00
         21   -1    0    0  503  502  0.00000000000E+00  0.00000000000E+00  0.42033890841E+03  0.42033890841E+03  0.00000000000E+00 0.  1.
         21   -1    0    0  501  503 -0.00000000000E+00 -0.00000000000E+00 -0.14156341355E+03  0.14156341355E+03  0.00000000000E+00 0.  1.
          6    2    1    2  501    0  0.10936116200E+03 -0.90765306095E+02  0.26660965489E+02  0.22493052383E+03  0.17229256781E+03 0.  0.
         24    2    3    3    0    0  0.10564773232E+03 -0.34734450460E+01  0.35119121511E+02  0.13702552415E+03  0.79806850630E+02 0.  0.
         -6    2    1    2    0  502 -0.10936116200E+03  0.90765306095E+02  0.25211452937E+03  0.33697179813E+03  0.17259794978E+03 0.  0.
        -24    2    5    5    0    0 -0.97973017644E+02  0.52574743362E+02  0.26171772303E+03  0.29571019076E+03  0.81151306519E+02 0.  0.
          5    1    3    3  501    0  0.37134296851E+01 -0.87291861050E+02 -0.84581560219E+01  0.87904999680E+02  0.47000000000E+01 0. -1.
        -11    1    4    4    0    0  0.90646241915E+02 -0.35067891607E+02  0.29724939247E+02  0.10163695297E+03  0.00000000000E+00 0.  1.
         12    1    4    4    0    0  0.15001490403E+02  0.31594446561E+02  0.53941822634E+01  0.35388571180E+02  0.00000000000E+00 0. -1.
         -5    1    5    5    0  502 -0.11388144359E+02  0.38190562734E+02 -0.96031936540E+01  0.41261607363E+02  0.47000000000E+01 0.  1.
         11    1    6    6    0    0 -0.11872755243E+02  0.42190730047E+02  0.13672072395E+03  0.14357428870E+03  0.00000000000E+00 0. -1.
        -12    1    6    6    0    0 -0.86100262401E+02  0.10384013314E+02  0.12499699908E+03  0.15213590206E+03  0.00000000000E+00 0.  1.
</event>
<event>
12    1  0.1035051E+000  0.2339399E+03  0.7818608E-02  0.1124048E+00
         21   -1    0    0  503  502  0.00000000000E+00  0.00000000000E+00  0.10414544014E+03  0.10414544014E+03  0.00000000000E+00 0.  1.
         21   -1    0    0  501  503 -0.00000000000E+00 -0.00000000000E+00 -0.63316748664E+03  0.63316748664E+03  0.00000000000E+00 0.  1.
          6    2    1    2  501    0 -0.12114476705E+03  0.10182440559E+03 -0.11069931777E+03  0.25801994273E+03  0.17110139607E+03 0.  0.
         24    2    3    3    0    0  0.75105430736E+01  0.16202080627E+02 -0.28269146510E+02  0.82805233050E+02  0.75753853381E+02 0.  0.
         -6    2    1    2    0  502  0.12114476705E+03 -0.10182440559E+03 -0.41832272873E+03  0.47929298405E+03  0.17228927718E+03 0.  0.
        -24    2    5    5    0    0  0.11634878706E+03 -0.74131230649E+01 -0.22985942202E+03  0.26839727602E+03  0.74898259245E+02 0.  0.
          5    1    3    3  501    0 -0.12865531013E+03  0.85622324959E+02 -0.82430171256E+02  0.17521470968E+03  0.47000000000E+01 0. -1.
        -13    1    4    4    0    0  0.14190478210E+02  0.41952062798E+02 -0.33703985678E+02  0.55653426627E+02  0.00000000000E+00 0.  1.
         14    1    4    4    0    0 -0.66799351365E+01 -0.25749982171E+02  0.54348391680E+01  0.27151806422E+02  0.00000000000E+00 0. -1.
         -5    1    5    5    0  502  0.47959799917E+01 -0.94411282522E+02 -0.18846330671E+03  0.21089570803E+03  0.47000000000E+01 0.  1.
         11    1    6    6    0    0  0.95753536391E+02 -0.36537818689E+02 -0.16112732697E+03  0.19096011998E+03  0.00000000000E+00 0. -1.
        -12    1    6    6    0    0  0.20595250671E+02  0.29124695624E+02 -0.68732095052E+02  0.77437156041E+02  0.00000000000E+00 0.  1.
</event>
<event>
12    1  0.1035051E+000  0.3735955E+03  0.7818608E-02  0.1053327E+00
         21   -1    0    0  503  502  0.00000000000E+00  0.00000000000E+00  0.47463592839E+03  0.47463592839E+03  0.00000000000E+00 0.  1.
         21   -1    0    0  501  503 -0.00000000000E+00 -0.00000000000E+00 -0.36663530160E+03  0.36663530160E+03  0.00000000000E+00 0. -1.
          6    2    1    2  501    0  0.11560070757E+03  0.31093280415E+03 -0.13314568191E+03  0.39661238869E+03  0.17184551774E+03 0.  0.
         24    2    3    3    0    0  0.28872071850E+02  0.24907321012E+03 -0.80779530049E+02  0.27781521075E+03  0.88232070772E+02 0.  0.
         -6    2    1    2    0  502 -0.11560070757E+03 -0.31093280415E+03  0.24114630871E+03  0.44465884130E+03  0.17183483538E+03 0.  0.
        -24    2    5    5    0    0  0.11369544408E+01 -0.18437885808E+03  0.13872566036E+03  0.24427006365E+03  0.80163577646E+02 0.  0.
          5    1    3    3  501    0  0.86728635723E+02  0.61859594026E+02 -0.52366151863E+02  0.11879717795E+03  0.47000000000E+01 0. -1.
        -11    1    4    4    0    0  0.19679803654E+02  0.71324686738E+02  0.15295551254E+02  0.75554347978E+02  0.00000000000E+00 0.  1.
         12    1    4    4    0    0  0.91922681954E+01  0.17774852338E+03 -0.96075081303E+02  0.20226086277E+03  0.00000000000E+00 0. -1.
         -5    1    5    5    0  502 -0.11673766201E+03 -0.12655394607E+03  0.10242064835E+03  0.20038877765E+03  0.47000000000E+01 0.  1.
         11    1    6    6    0    0  0.31463618016E+02 -0.60578382783E+02  0.76183768694E+02  0.10229206387E+03  0.00000000000E+00 0. -1.
        -12    1    6    6    0    0 -0.30326663575E+02 -0.12380047529E+03  0.62541891668E+02  0.14197799977E+03  0.00000000000E+00 0.  1.
</event>
<event>
12    1  0.1035051E+000  0.2468992E+03  0.7818608E-02  0.1115384E+00
         21   -1    0    0  501  502  0.00000000000E+00  0.00000000000E+00  0.13775799165E+04  0.13775799165E+04  0.00000000000E+00 0. -1.
         21   -1    0    0  502  503 -0.00000000000E+00 -0.00000000000E+00 -0.75451687199E+02  0.75451687199E+02  0.00000000000E+00 0. -1.
         -6    2    1    2    0  503  0.13066236517E+03 -0.11758906492E+03  0.18251554354E+03  0.30651872762E+03  0.17245858892E+03 0.  0.
        -24    2    3    3    0    0  0.25891418281E+02  0.48538708229E+01  0.79375665610E+02  0.11513129793E+03  0.79125178485E+02 0.  0.
          6    2    1    2  501    0 -0.13066236517E+03  0.11758906492E+03  0.11196126858E+04  0.11465128761E+04  0.17337637389E+03 0.  0.
         24    2    5    5    0    0 -0.31034202851E+02  0.61752882884E+02  0.28813084060E+03  0.30721102407E+03  0.81133788961E+02 0.  0.
          5    1    5    5  501    0 -0.99628162317E+02  0.55836182033E+02  0.83148184519E+03  0.83930185204E+03  0.47000000000E+01 0. -1.
        -11    1    6    6    0    0  0.89604892477E+01  0.65759971918E+02  0.17676854868E+03  0.18881680030E+03  0.00000000000E+00 0.  1.
         12    1    6    6    0    0 -0.39994692098E+02 -0.40070890335E+01  0.11136229192E+03  0.11839422377E+03  0.00000000000E+00 0. -1.
         -5    1    3    3    0  503  0.10477094689E+03 -0.12244293574E+03  0.10313987793E+03  0.19138742969E+03  0.47000000000E+01 0.  1.
         13    1    4    4    0    0  0.10838913045E+02  0.37976806208E+02  0.17163887527E+02  0.43061803037E+02  0.00000000000E+00 0. -1.
        -14    1    4    4    0    0  0.15052505237E+02 -0.33122935385E+02  0.62211778083E+02  0.72069494896E+02  0.00000000000E+00 0.  1.
</event>
<event>
12    1  0.1035051E+000  0.2854889E+03  0.7818608E-02  0.1093310E+00
         21   -1    0    0  503  502  0.00000000000E+00  0.00000000000E+00  0.26564864633E+03  0.26564864633E+03  0.00000000000E+00 0.  1.
         21   -1    0    0  501  503 -0.00000000000E+00 -0.00000000000E+00 -0.33076988649E+03  0.33076988649E+03  0.00000000000E+00 0.  1.
          6    2    1    2  501    0  0.21612037322E+03 -0.59253705080E+02 -0.12046884999E+03  0.30986554665E+03  0.17687536827E+03 0.  0.
         24    2    3    3    0    0  0.20980955166E+03 -0.39486701715E+02 -0.47215884019E+02  0.23358548429E+03  0.82180235971E+02 0.  0.
         -6    2    1    2    0  502 -0.21612037322E+03  0.59253705080E+02  0.55347609834E+02  0.28655298617E+03  0.16979469568E+03 0.  0.
        -24    2    5    5    0    0 -0.20227150695E+03 -0.75268702362E+00  0.42600077489E+02  0.22348835447E+03  0.84958512940E+02 0.  0.
          5    1    3    3  501    0  0.63108215542E+01 -0.19767003365E+02 -0.73252965975E+02  0.76280062368E+02  0.47000000000E+01 0. -1.
        -13    1    4    4    0    0  0.12795296647E+03  0.17224037888E+02 -0.23698279137E+02  0.13126399942E+03  0.00000000000E+00 0.  1.
         14    1    4    4    0    0  0.81856585190E+02 -0.56710739604E+02 -0.23517604882E+02  0.10232148486E+03  0.00000000000E+00 0. -1.
         -5    1    5    5    0  502 -0.13848866268E+02  0.60006392103E+02  0.12747532345E+02  0.63064631697E+02  0.47000000000E+01 0.  1.
         13    1    6    6    0    0 -0.11298698696E+03  0.37915727531E+02  0.41455430388E+02  0.12618325692E+03  0.00000000000E+00 0. -1.
        -14    1    6    6    0    0 -0.89284519984E+02 -0.38668414555E+02  0.11446471013E+01  0.97305097554E+02  0.00000000000E+00 0.  1.
</event>
<event>
12    1  0.1035051E+000  0.1680135E+03  0.7818608E-02  0.1180311E+00
         21   -1    0    0  501  502  0.00000000000E+00  0.00000000000E+00  0.15779711401E+02  0.15779711401E+02  0.00000000000E+00 0. -1.
         21   -1    0    0  502  503 -0.00000000000E+00 -0.00000000000E+00 -0.17829975065E+04  0.17829975065E+04  0.00000000000E+00 0. -1.
         -6    2    1    2    0  503 -0.80274562884E+00 -0.15777524193E+01 -0.94405927524E+03  0.95864717057E+03  0.16659336352E+03 0.  0.
        -24    2    3    3    0    0 -0.57369807117E+02  0.22357398751E+02 -0.68429641412E+03  0.69167983563E+03  0.79801407207E+02 0.  0.
          6    2    1    2  501    0  0.80274562884E+00  0.15777524193E+01 -0.82315851989E+03  0.84013004737E+03  0.16800420802E+03 0.  0.
         24    2    5    5    0    0  0.27177156623E+02  0.57996484170E+02 -0.53940664366E+03  0.54958590251E+03  0.83564029281E+02 0.  0.
          5    1    5    5  501    0 -0.26374410994E+02 -0.56418731751E+02 -0.28375187623E+03  0.29054414486E+03  0.47000000000E+01 0. -1.
        -11    1    6    6    0    0  0.29191263567E+02 -0.52458518981E+01 -0.71306949144E+02  0.77229073716E+02  0.00000000000E+00 0.  1.
         12    1    6    6    0    0 -0.20141069439E+01  0.63242336069E+02 -0.46809969452E+03  0.47235682879E+03  0.00000000000E+00 0. -1.
         -5    1    3    3    0  503  0.56567061489E+02 -0.23935151171E+02 -0.25976286112E+03  0.26696733494E+03  0.47000000000E+01 0.  1.
         11    1    4    4    0    0  0.20377449958E+02  0.48217728326E+01 -0.12748790520E+03  0.12919619163E+03  0.00000000000E+00 0. -1.
        -12    1    4    4    0    0 -0.77747257076E+02  0.17535625919E+02 -0.55680850892E+03  0.56248364400E+03  0.00000000000E+00 0.  1.
</event>
<event>
12    1  0.1035051E+000  0.2786786E+03  0.7818608E-02  0.1096430E+00
         21   -1    0    0  503  502  0.00000000000E+00  0.00000000000E+00  0.65805331187E+03  0.65805331187E+03  0.00000000000E+00 0.  1.
         21   -1    0    0  501  503 -0.00000000000E+00 -0.00000000000E+00 -0.30181795021E+03  0.30181795021E+03  0.00000000000E+00 0. -1.
          6    2    1    2  501    0 -0.21074140852E+03 -0.61078883142E+02 -0.19644723934E+03  0.34095932763E+03  0.17181144905E+03 0.  0.
         24    2    3    3    0    0 -0.70630698279E+02 -0.79852641576E+02 -0.12382583809E+03  0.18196428668E+03  0.80081355762E+02 0.  0.
         -6    2    1    2    0  502  0.21074140852E+03  0.61078883142E+02  0.55268260100E+03  0.61891193445E+03  0.17161396777E+03 0.  0.
        -24    2    5    5    0    0  0.22531197077E+03  0.57052741454E+02  0.55053417064E+03  0.60293642651E+03  0.80149621883E+02 0.  0.
          5    1    3    3  501    0 -0.14011071024E+03  0.18773758434E+02 -0.72621401247E+02  0.15899504096E+03  0.47000000000E+01 0. -1.
        -13    1    4    4    0    0 -0.15368255817E+02 -0.95420792177E+00  0.90388296793E+01  0.17854810040E+02  0.00000000000E+00 0.  1.
         14    1    4    4    0    0 -0.55262442462E+02 -0.78898433654E+02 -0.13286466777E+03  0.16410947664E+03  0.00000000000E+00 0. -1.
         -5    1    5    5    0  502 -0.14570562250E+02  0.40261416880E+01  0.21484303591E+01  0.15975507948E+02  0.47000000000E+01 0.  1.
         11    1    6    6    0    0  0.27381869331E+02 -0.68604074666E+01  0.24878699007E+02  0.37626873680E+02  0.00000000000E+00 0. -1.
        -12    1    6    6    0    0  0.19793010144E+03  0.63913148921E+02  0.52565547163E+03  0.56530955283E+03  0.00000000000E+00 0.  1.
</event>
<event>
12    1  0.1035051E+000  0.1995400E+03  0.7818608E-02  0.1150250E+00
         21   -1    0    0  501  502  0.00000000000E+00  0.00000000000E+00  0.27304239992E+03  0.27304239992E+03  0.00000000000E+00 0.  1.
         21   -1    0    0  502  503 -0.00000000000E+00 -0.00000000000E+00 -0.18163401088E+03  0.18163401088E+03  0.00000000000E+00 0.  1.
         -6    2    1    2    0  503 -0.97730185364E+02 -0.15352170157E+02  0.14729051338E+03  0.24801353573E+03  0.17328975825E+03 0.  0.
        -24    2    3    3    0    0 -0.11513389161E+03 -0.38093581291E+02  0.16041912432E+03  0.21616214335E+03  0.79277000685E+02 0.  0.
          6    2    1    2  501    0  0.97730185364E+02  0.15352170157E+02 -0.55882124334E+02  0.20666287507E+03  0.17262634171E+03 0.  0.
         24    2    5    5    0    0  0.23268020093E+02 -0.14194531034E+02  0.30027939269E+02  0.89103312988E+02  0.79340013728E+02 0.  0.
          5    1    5    5  501    0  0.74462165271E+02  0.29546701191E+02 -0.85910063603E+02  0.11755956208E+03  0.47000000000E+01 0. -1.
        -11    1    6    6    0    0  0.36113748490E+02  0.64265553333E+01  0.46887928389E+02  0.59531346970E+02  0.00000000000E+00 0.  1.
         12    1    6    6    0    0 -0.12845728397E+02 -0.20621086367E+02 -0.16859989120E+02  0.29571966017E+02  0.00000000000E+00 0. -1.
         -5    1    3    3    0  503  0.17403706245E+02  0.22741411134E+02 -0.13128610941E+02  0.31851392382E+02  0.47000000000E+01 0.  1.
         11    1    4    4    0    0 -0.96187337165E+02 -0.11963572951E+01  0.77809710417E+02  0.12372463836E+03  0.00000000000E+00 0. -1.
        -12    1    4    4    0    0 -0.18946554444E+02 -0.36897223996E+02  0.82609413900E+02  0.92437504990E+02  0.00000000000E+00 0.  1.
</event>
<event>
12    1  0.1035051E+000  0.5471970E+03  0.7818608E-02  0.1002155E+00
         21   -1    0    0  501  502  0.00000000000E+00  0.00000000000E+00  0.79088220008E+03  0.79088220008E+03  0.00000000000E+00 0.  1.
         21   -1    0    0  502  503 -0.00000000000E+00 -0.00000000000E+00 -0.42008098091E+03  0.42008098091E+03  0.00000000000E+00 0.  1.
         -6    2    1    2    0  503 -0.50594015371E+03  0.11704621186E+03  0.37593271440E+03  0.66374213176E+03  0.17190973466E+03 0.  0.
        -24    2    3    3    0    0 -0.13744516117E+03  0.80181003316E+01  0.82046640986E+02  0.17993762292E+03  0.81795076759E+02 0.  0.
          6    2    1    2  501    0  0.50594015371E+03 -0.11704621186E+03 -0.51314952329E+01  0.54722104923E+03  0.17247982384E+03 0.  0.
         24    2    5    5    0    0  0.24161830896E+03 -0.94290943546E+02  0.51236976269E+02  0.27595856670E+03  0.79105711169E+02 0.  0.
          5    1    5    5  501    0  0.26432184475E+03 -0.22755268319E+02 -0.56368471502E+02  0.27126248253E+03  0.47000000000E+01 0. -1.
        -11    1    6    6    0    0  0.14658142163E+03 -0.94213593878E+02  0.17556644409E+02  0.17513009508E+03  0.00000000000E+00 0.  1.
         12    1    6    6    0    0  0.95036887327E+02 -0.77349668393E-01  0.33680331860E+02  0.10082847162E+03  0.00000000000E+00 0. -1.
         -5    1    3    3    0  503 -0.36849499254E+03  0.10902811153E+03  0.29388607342E+03  0.48380450885E+03  0.47000000000E+01 0.  1.
         13    1    4    4    0    0 -0.46798597765E+02  0.12259767429E+01 -0.12832255952E+02  0.48541513826E+02  0.00000000000E+00 0. -1.
        -14    1    4    4    0    0 -0.90646563402E+02  0.67921235887E+01  0.94878896938E+02  0.13139610909E+03  0.00000000000E+00 0.  1.
</event>
<event>
12    1  0.1035051E+000  0.1793928E+03  0.7818608E-02  0.1169198E+00
         21   -1    0    0  503  502  0.00000000000E+00  0.00000000000E+00  0.60088099295E+02  0.60088099295E+02  0.00000000000E+00 0. -1.
         21   -1    0    0  501  503 -0.00000000000E+00 -0.00000000000E+00 -0.57016408076E+03  0.57016408076E+03  0.00000000000E+00 0. -1.
          6    2    1    2  501    0  0.13503796976E+02 -0.40735700528E+02 -0.34508993868E+03  0.38893295983E+03  0.17418390176E+03 0.  0.
         24    2    3    3    0    0  0.62550595610E+01 -0.79100713422E+02 -0.13638743170E+03  0.17655771450E+03  0.79215190398E+02 0.  0.
         -6    2    1    2    0  502 -0.13503796976E+02  0.40735700528E+02 -0.16498604279E+03  0.24131922023E+03  0.17080053251E+03 0.  0.
        -24    2    5    5    0    0 -0.51463213697E+02  0.75476014313E+02 -0.13845547318E+03  0.18323507572E+03  0.77846540195E+02 0.  0.
          5    1    3    3  501    0  0.72487374150E+01  0.38365012894E+02 -0.20870250698E+03  0.21237524533E+03  0.47000000000E+01 0. -1.
        -11    1    4    4    0    0  0.22566164462E+02 -0.81001929186E+01 -0.24636987130E+01  0.24102172416E+02  0.00000000000E+00 0.  1.
         12    1    4    4    0    0 -0.16311104901E+02 -0.71000520503E+02 -0.13392373299E+03  0.15245554209E+03  0.00000000000E+00 0. -1.
         -5    1    5    5    0  502  0.37959416721E+02 -0.34740313785E+02 -0.26530569610E+02  0.58084144511E+02  0.47000000000E+01 0.  1.
         11    1    6    6    0    0 -0.24741030030E+02 -0.11921584398E+02 -0.43497297431E+02  0.51441788706E+02  0.00000000000E+00 0. -1.
        -12    1    6    6    0    0 -0.26722183667E+02  0.87397598711E+02 -0.94958175747E+02  0.13179328701E+03  0.00000000000E+00 0.  1.
</event>
<event>
12    1  0.1035051E+000  0.2325229E+03  0.7818608E-02  0.1124907E+00
         21   -1    0    0  503  502  0.00000000000E+00  0.00000000000E+00  0.12727435893E+03  0.12727435893E+03  0.00000000000E+00 0. -1.
         21   -1    0    0  501  503 -0.00000000000E+00 -0.00000000000E+00 -0.48169348727E+03  0.48169348727E+03  0.00000000000E+00 0. -1.
          6    2    1    2  501    0 -0.15566748520E+03 -0.55415497239E+01 -0.72221949715E+02  0.24331482803E+03  0.17240365656E+03 0.  0.
         24    2    3    3    0    0 -0.12498760749E+03  0.48528773357E+02 -0.33667602111E+02  0.17001146894E+03  0.98961852599E+02 0.  0.
         -6    2    1    2    0  502  0.15566748520E+03  0.55415497239E+01 -0.28219717863E+03  0.36565301816E+03  0.17263779234E+03 0.  0.
        -24    2    5    5    0    0  0.56658719422E+02 -0.32024924633E+02 -0.60414284495E+02  0.11984065512E+03  0.80474160844E+02 0.  0.
          5    1    3    3  501    0 -0.30679877717E+02 -0.54070323081E+02 -0.38554347604E+02  0.73303359090E+02  0.47000000000E+01 0. -1.
        -11    1    4    4    0    0 -0.70076903265E+02 -0.23749427055E+02 -0.24839029468E+01  0.74033623649E+02  0.00000000000E+00 0.  1.
         12    1    4    4    0    0 -0.54910704221E+02  0.72278200412E+02 -0.31183699164E+02  0.95977845290E+02  0.00000000000E+00 0. -1.
         -5    1    5    5    0  502  0.99008765781E+02  0.37566474357E+02 -0.22178289413E+03  0.24581236305E+03  0.47000000000E+01 0.  1.
         13    1    6    6    0    0  0.44424673784E+02  0.19668797175E+02 -0.39998744346E+02  0.62931015981E+02  0.00000000000E+00 0. -1.
        -14    1    6    6    0    0  0.12234045638E+02 -0.51693721809E+02 -0.20415540149E+02  0.56909639137E+02  0.00000000000E+00 0.  1.
</event>
<event>
12    1  0.1035051E+000  0.2742225E+03  0.7818608E-02  0.1098904E+00
         21   -1    0    0  501  502  0.00000000000E+00  0.00000000000E+00  0.90446244828E+02  0.90446244828E+02  0.00000000000E+00 0. -1.
         21   -1    0    0  502  503 -0.00000000000E+00 -0.00000000000E+00 -0.92139473860E+03  0.92139473860E+03  0.00000000000E+00 0. -1.
         -6    2    1    2    0  503 -0.65680899852E+02 -0.20359677194E+03 -0.57381782566E+03  0.63592323958E+03  0.17136465053E+03 0.  0.
        -24    2    3    3    0    0 -0.10021978462E+03 -0.19004326128E+03 -0.42879457855E+03  0.48615520423E+03  0.79508776997E+02 0.  0.
          6    2    1    2  501    0  0.65680899852E+02  0.20359677194E+03 -0.25713066811E+03  0.37591774384E+03  0.17155857163E+03 0.  0.
         24    2    5    5    0    0  0.48302563956E+02  0.61822203173E+02 -0.18328824959E+03  0.21505498345E+03  0.80616009435E+02 0.  0.
          5    1    5    5  501    0  0.17378335896E+02  0.14177456877E+03 -0.73842418519E+02  0.16086276039E+03  0.47000000000E+01 0. -1.
        -11    1    6    6    0    0  0.63735448471E+02  0.60540468500E+02 -0.11345291562E+03  0.14352323777E+03  0.00000000000E+00 0.  1.
         12    1    6    6    0    0 -0.15432884515E+02  0.12817346725E+01 -0.69835333976E+02  0.71531745678E+02  0.00000000000E+00 0. -1.
         -5    1    3    3    0  503  0.34538884766E+02 -0.13553510665E+02 -0.14502324711E+03  0.14976803536E+03  0.47000000000E+01 0.  1.
         11    1    4    4    0    0 -0.53545977864E+02 -0.33451107981E+02 -0.89066200742E+02  0.10917388188E+03  0.00000000000E+00 0. -1.
        -12    1    4    4    0    0 -0.46673806755E+02 -0.15659215330E+03 -0.33972837780E+03  0.37698132234E+03  0.00000000000E+00 0.  1.
</event>
<event>
12    1  0.1035051E+000  0.2352539E+03  0.7818608E-02  0.1123144E+00
         21   -1    0    0  501  502  0.00000000000E+00  0.00000000000E+00  0.17519896159E+03  0.17519896159E+03  0.00000000000E+00 0. -1.
         21   -1    0    0  502  503 -0.00000000000E+00 -0.00000000000E+00 -0.37309872552E+03  0.37309872552E+03  0.00000000000E+00 0.  1.
         -6    2    1    2    0  503  0.15712473353E+03  0.34760985085E+02 -0.20753520154E+03  0.31371203358E+03  0.17160382327E+03 0.  0.
        -24    2    3    3    0    0  0.23302685537E+02 -0.50224290513E+01 -0.12714716824E+03  0.15254322001E+03  0.80838058066E+02 0.  0.
          6    2    1    2  501    0 -0.15712473353E+03 -0.34760985085E+02  0.96354376104E+01  0.23458565353E+03  0.17041443370E+03 0.  0.
         24    2    5    5    0    0 -0.51844569165E+02  0.28202374422E+02  0.41837519388E+02  0.10767087220E+03  0.79745880255E+02 0.  0.
          5    1    5    5  501    0 -0.10528016436E+03 -0.62963359507E+02 -0.32202081778E+02  0.12691478133E+03  0.47000000000E+01 0. -1.
        -13    1    6    6    0    0 -0.55504136881E+02  0.13218960596E+02  0.60699234317E+02  0.83305745161E+02  0.00000000000E+00 0.  1.
         14    1    6    6    0    0  0.36595677164E+01  0.14983413826E+02 -0.18861714929E+02  0.24365127043E+02  0.00000000000E+00 0. -1.
         -5    1    3    3    0  503  0.13382204799E+03  0.39783414136E+02 -0.80388033300E+02  0.16116881357E+03  0.47000000000E+01 0.  1.
         13    1    4    4    0    0  0.52379637331E+02 -0.10863960461E+02 -0.93238090905E+02  0.10749415630E+03  0.00000000000E+00 0. -1.
        -14    1    4    4    0    0 -0.29076951794E+02  0.58415314099E+01 -0.33909077339E+02  0.45049063707E+02  0.00000000000E+00 0.  1.
</event>
<event>
12    1  0.1035051E+000  0.1729300E+03  0.7818608E-02  0.1175071E+00
         21   -1    0    0  503  502  0.00000000000E+00  0.00000000000E+00  0.73077886721E+02  0.73077886721E+02  0.00000000000E+00 0. -1.
         21   -1    0    0  501  503 -0.00000000000E+00 -0.00000000000E+00 -0.52053433959E+03  0.52053433959E+03  0.00000000000E+00 0. -1.
          6    2    1    2  501    0 -0.91919452872E+01 -0.22827709031E+02 -0.36285302895E+03  0.40195411617E+03  0.17117007544E+03 0.  0.
         24    2    3    3    0    0  0.30375550634E+02  0.40882972418E+02 -0.15675649755E+03  0.18258568654E+03  0.78554706372E+02 0.  0.
         -6    2    1    2    0  502  0.91919452872E+01  0.22827709031E+02 -0.84603423912E+02  0.19165811014E+03  0.17020427635E+03 0.  0.
        -24    2    5    5    0    0  0.67892236373E+02  0.36217347755E+02 -0.48274217939E+02  0.12118181763E+03  0.80209605216E+02 0.  0.
          5    1    3    3  501    0 -0.39567495921E+02 -0.63710681449E+02 -0.20609653140E+03  0.21936842963E+03  0.47000000000E+01 0. -1.
        -13    1    4    4    0    0 -0.11046906753E+02  0.47376125693E+02 -0.10685790628E+03  0.11741015104E+03  0.00000000000E+00 0.  1.
         14    1    4    4    0    0  0.41422457387E+02 -0.64931532746E+01 -0.49898591277E+02  0.65175535493E+02  0.00000000000E+00 0. -1.
         -5    1    5    5    0  502 -0.58700291086E+02 -0.13389638724E+02 -0.36329205974E+02  0.70476292506E+02  0.47000000000E+01 0.  1.
         11    1    6    6    0    0  0.60257824846E+02 -0.96308251647E+01 -0.42457653909E+02  0.74339832015E+02  0.00000000000E+00 0. -1.
        -12    1    6    6    0    0  0.76344115270E+01  0.45848172920E+02 -0.58165640298E+01  0.46841985617E+02  0.00000000000E+00 0.  1.
</event>
<event>
12    1  0.1589681E+000  0.5746063E+03  0.7818608E-02  0.9960079E-01
         21   -1    0    0  503  502  0.00000000000E+00  0.00000000000E+00  0.30433295614E+03  0.30433295614E+03  0.00000000000E+00 0. -1.
         21   -1    0    0  501  503 -0.00000000000E+00 -0.00000000000E+00 -0.20779305570E+04  0.20779305570E+04  0.00000000000E+00 0.  1.
          6    2    1    2  501    0  0.38666042460E+03 -0.38868588404E+03 -0.62997640675E+02  0.57804943924E+03  0.17201584542E+03 0.  0.
         24    2    3    3    0    0  0.98018567526E+02 -0.11358791067E+03  0.20366069713E+02  0.17066189057E+03  0.78745482831E+02 0.  0.
         -6    2    1    2    0  502 -0.38666042460E+03  0.38868588404E+03 -0.17105999602E+04  0.18042140739E+04  0.16868076425E+03 0.  0.
        -24    2    5    5    0    0 -0.26877708677E+03  0.29848310120E+03 -0.14203946604E+04  0.14782167895E+04  0.79187130066E+02 0.  0.
          5    1    3    3  501    0  0.28864185708E+03 -0.27509797336E+03 -0.83363710388E+02  0.40738754867E+03  0.47000000000E+01 0. -1.
        -13    1    4    4    0    0 -0.51292688056E+01 -0.35377736609E+02 -0.11127903890E+02  0.37439603243E+02  0.00000000000E+00 0.  1.
         14    1    4    4    0    0  0.10314783633E+03 -0.78210174065E+02  0.31493973603E+02  0.13322228733E+03  0.00000000000E+00 0. -1.
         -5    1    5    5    0  502 -0.11788333784E+03  0.90202782832E+02 -0.29020529987E+03  0.32599728441E+03  0.47000000000E+01 0.  1.
         11    1    6    6    0    0 -0.18456780484E+03  0.19624738503E+03 -0.81034008241E+03  0.85394927243E+03  0.00000000000E+00 0. -1.
        -12    1    6    6    0    0 -0.84209281932E+02  0.10223571617E+03 -0.61005457794E+03  0.62426751709E+03  0.00000000000E+00 0.  1.
</event>
<event>
12    1  0.1035051E+000  0.1850315E+03  0.7818608E-02  0.1163117E+00
         21   -1    0    0  503  502  0.00000000000E+00  0.00000000000E+00  0.96060171662E+02  0.96060171662E+02  0.00000000000E+00 0. -1.
         21   -1    0    0  501  503 -0.00000000000E+00 -0.00000000000E+00 -0.35887230299E+03  0.35887230299E+03  0.00000000000E+00 0. -1.
          6    2    1    2  501    0 -0.65900402479E+02 -0.17757942788E+02 -0.15294897568E+03  0.23974290485E+03  0.17153735362E+03 0.  0.
         24    2    3    3    0    0 -0.61572787936E+01 -0.64178623221E+02 -0.11589710825E+03  0.15536843431E+03  0.80934559477E+02 0.  0.
         -6    2    1    2    0  502  0.65900402479E+02  0.17757942788E+02 -0.10986315565E+03  0.21518956980E+03  0.17198380855E+03 0.  0.
        -24    2    5    5    0    0  0.11212024085E+02 -0.46727971825E+02 -0.62074523936E+02  0.11795225579E+03  0.88035647835E+02 0.  0.
          5    1    3    3  501    0 -0.59743123685E+02  0.46420680433E+02 -0.37051867431E+02  0.84374470544E+02  0.47000000000E+01 0. -1.
        -13    1    4    4    0    0 -0.55898889831E+01 -0.79386094634E+02 -0.66592787329E+02  0.10376896552E+03  0.00000000000E+00 0.  1.
         14    1    4    4    0    0 -0.56738981046E+00  0.15207471413E+02 -0.49304320925E+02  0.51599468794E+02  0.00000000000E+00 0. -1.
         -5    1    5    5    0  502  0.54688378394E+02  0.64485914613E+02 -0.47788631710E+02  0.97237314008E+02  0.47000000000E+01 0.  1.
         13    1    6    6    0    0 -0.37079932672E+02 -0.16967401132E+02 -0.39886300864E+02  0.57041485822E+02  0.00000000000E+00 0. -1.
        -14    1    6    6    0    0  0.48291956756E+02 -0.29760570693E+02 -0.22188223072E+02  0.60910769971E+02  0.00000000000E+00 0.  1.
</event>
<event>
12    1  0.1035051E+000  0.1791346E+03  0.7818608E-02  0.1168931E+00
         21   -1    0    0  503  502  0.00000000000E+00  0.00000000000E+00  0.76727618388E+02  0.76727618388E+02  0.00000000000E+00 0. -1.
         21   -1    0    0  501  503 -0.00000000000E+00 -0.00000000000E+00 -0.41644776593E+03  0.41644776593E+03  0.00000000000E+00 0. -1.
          6    2    1    2  501    0  0.35820261841E+02 -0.34307321034E+02 -0.15850964032E+03  0.23919552856E+03  0.17213108776E+03 0.  0.
         24    2    3    3    0    0  0.28360243661E+02  0.41822582111E+02 -0.12222090771E+03  0.15439944293E+03  0.79673119061E+02 0.  0.
         -6    2    1    2    0  502 -0.35820261841E+02  0.34307321034E+02 -0.18121050723E+03  0.25397985576E+03  0.17090475642E+03 0.  0.
        -24    2    5    5    0    0  0.13814900784E+02  0.15286147719E+02 -0.20759679888E+02  0.84888128000E+02  0.79690100831E+02 0.  0.
          5    1    3    3  501    0  0.74600181800E+01 -0.76129903145E+02 -0.36288732612E+02  0.84796085633E+02  0.47000000000E+01 0. -1.
        -11    1    4    4    0    0 -0.57724205738E+01 -0.97405798471E+01 -0.76909196589E+02  0.77738177590E+02  0.00000000000E+00 0.  1.
         12    1    4    4    0    0  0.34132664234E+02  0.51563161958E+02 -0.45311711117E+02  0.76661265337E+02  0.00000000000E+00 0. -1.
         -5    1    5    5    0  502 -0.49635162625E+02  0.19021173315E+02 -0.16045082734E+03  0.16909172776E+03  0.47000000000E+01 0.  1.
         13    1    6    6    0    0  0.38210230749E+02  0.32936295678E+02 -0.21333902067E+02  0.54771860333E+02  0.00000000000E+00 0. -1.
        -14    1    6    6    0    0 -0.24395329965E+02 -0.17650147959E+02  0.57422217866E+00  0.30116267667E+02  0.00000000000E+00 0.  1.
</event>
<event>
12    1  0.1035051E+000  0.1819142E+03  0.7818608E-02  0.1166018E+00
         21   -1    0    0  503  502  0.00000000000E+00  0.00000000000E+00  0.50297787601E+03  0.50297787601E+03  0.00000000000E+00 0.  1.
         21   -1    0    0  501  503 -0.00000000000E+00 -0.00000000000E+00 -0.69029788800E+02  0.69029788800E+02  0.00000000000E+00 0.  1.
          6    2    1    2  501    0  0.48739420813E+02  0.34117632364E+02  0.27980912931E+03  0.33374527275E+03  0.17191048328E+03 0.  0.
         24    2    3    3    0    0  0.14441938152E+02 -0.30599864065E+02  0.22779173504E+03  0.24378655463E+03  0.79986801445E+02 0.  0.
         -6    2    1    2    0  502 -0.48739420813E+02 -0.34117632364E+02  0.15413895790E+03  0.23826239205E+03  0.17167004731E+03 0.  0.
        -24    2    5    5    0    0 -0.66088134680E+02  0.32464934107E+02  0.75256876638E+02  0.13348315377E+03  0.82052064980E+02 0.  0.
          5    1    3    3  501    0  0.34297482661E+02  0.64717496429E+02  0.52017394269E+02  0.89958718129E+02  0.47000000000E+01 0. -1.
        -13    1    4    4    0    0  0.45416272620E+02 -0.31612333464E+02  0.13280342213E+03  0.14387051948E+03  0.00000000000E+00 0.  1.
         14    1    4    4    0    0 -0.30974334467E+02  0.10124693989E+01  0.94988312910E+02  0.99916035147E+02  0.00000000000E+00 0. -1.
         -5    1    5    5    0  502  0.17348713867E+02 -0.66582566471E+02  0.78882081259E+02  0.10477923828E+03  0.47000000000E+01 0.  1.
         11    1    6    6    0    0 -0.13876426522E+02 -0.24559099967E+02  0.42852871307E+01  0.28531881992E+02  0.00000000000E+00 0. -1.
        -12    1    6    6    0    0 -0.52211708158E+02  0.57024034074E+02  0.70971589508E+02  0.10495127178E+03  0.00000000000E+00 0.  1.
</event>
<event>
12    1  0.1035051E+000  0.2971055E+03  0.7818608E-02  0.1086744E+00
         21   -1    0    0  503  502  0.00000000000E+00  0.00000000000E+00  0.16791935985E+03  0.16791935985E+03  0.00000000000E+00 0. -1.
         21   -1    0    0  501  503 -0.00000000000E+00 -0.00000000000E+00 -0.52932314519E+03  0.52932314519E+03  0.00000000000E+00 0. -1.
          6    2    1    2  501    0  0.24259250548E+03  0.56413903206E+00 -0.14912937906E+03  0.33209578481E+03  0.17087011623E+03 0.  0.
         24    2    3    3    0    0  0.25083439364E+03  0.67401342837E+01 -0.16638088595E+03  0.31146144140E+03  0.79764076049E+02 0.  0.
         -6    2    1    2    0  502 -0.24259250548E+03 -0.56413903206E+00 -0.21227440629E+03  0.36514672023E+03  0.17152335632E+03 0.  0.
        -24    2    5    5    0    0 -0.12091380488E+03  0.18020966214E+02 -0.35704763170E+02  0.14985612316E+03  0.78975465193E+02 0.  0.
          5    1    3    3  501    0 -0.82418881584E+01 -0.61759952517E+01  0.17251506891E+02  0.20634343406E+02  0.47000000000E+01 0. -1.
        -13    1    4    4    0    0  0.63810514312E+02 -0.31986029552E+02 -0.57168274914E+02  0.91449983488E+02  0.00000000000E+00 0.  1.
         14    1    4    4    0    0  0.18702387933E+03  0.38726163836E+02 -0.10921261103E+03  0.22001145791E+03  0.00000000000E+00 0. -1.
         -5    1    5    5    0  502 -0.12167870061E+03 -0.18585105246E+02 -0.17656964312E+03  0.21529059708E+03  0.47000000000E+01 0.  1.
         13    1    6    6    0    0 -0.93134174650E+00 -0.17812925615E+01  0.17145188515E+02  0.17262615383E+02  0.00000000000E+00 0. -1.
        -14    1    6    6    0    0 -0.11998246313E+03  0.19802258776E+02 -0.52849951686E+02  0.13259350778E+03  0.00000000000E+00 0.  1.
</event>
<event>
12    1  0.1035051E+000  0.2257354E+03  0.7818608E-02  0.1129932E+00
         21   -1    0    0  503  502  0.00000000000E+00  0.00000000000E+00  0.15648237148E+03  0.15648237148E+03  0.00000000000E+00 0.  1.
         21   -1    0    0  501  503 -0.00000000000E+00 -0.00000000000E+00 -0.16351157162E+04  0.16351157162E+04  0.00000000000E+00 0.  1.
          6    2    1    2  501    0  0.12781192744E+03 -0.71102770561E+02 -0.15411299804E+04  0.15573710597E+04  0.17009264595E+03 0.  0.
         24    2    3    3    0    0  0.44691123107E+02  0.31008460021E+01 -0.37574362811E+03  0.38666072618E+03  0.79475350719E+02 0.  0.
         -6    2    1    2    0  502 -0.12781192744E+03  0.71102770561E+02  0.62496635742E+02  0.23422702795E+03  0.17194469566E+03 0.  0.
        -24    2    5    5    0    0 -0.27664956252E+02  0.55473673760E+02 -0.21608919470E+02  0.10243355724E+03  0.78632117886E+02 0.  0.
          5    1    3    3  501    0  0.83120804335E+02 -0.74203616564E+02 -0.11653863523E+04  0.11707103335E+04  0.47000000000E+01 0. -1.
        -13    1    4    4    0    0  0.54152117096E+00  0.21434309306E+02 -0.26716774210E+03  0.26802672493E+03  0.00000000000E+00 0.  1.
         14    1    4    4    0    0  0.44149601936E+02 -0.18333463304E+02 -0.10857588601E+03  0.11863400125E+03  0.00000000000E+00 0. -1.
         -5    1    5    5    0  502 -0.10014697119E+03  0.15629096801E+02  0.84105555211E+02  0.13179347071E+03  0.47000000000E+01 0.  1.
         11    1    6    6    0    0 -0.18835569446E+01  0.68417745135E+02 -0.38386431049E+01  0.68551227684E+02  0.00000000000E+00 0. -1.
        -12    1    6    6    0    0 -0.25781399308E+02 -0.12944071375E+02 -0.17770276365E+02  0.33882329555E+02  0.00000000000E+00 0.  1.
</event>
<event>
12    1  0.1035051E+000  0.1823241E+03  0.7818608E-02  0.1165678E+00
         21   -1    0    0  501  502  0.00000000000E+00  0.00000000000E+00  0.28737885932E+02  0.28737885932E+02  0.00000000000E+00 0.  1.
         21   -1    0    0  502  503 -0.00000000000E+00 -0.00000000000E+00 -0.12426487263E+04  0.12426487263E+04  0.00000000000E+00 0.  1.
         -6    2    1    2    0  503  0.35489073756E+02  0.48754307247E+02 -0.77612089009E+03  0.79714813581E+03  0.17159562221E+03 0.  0.
        -24    2    3    3    0    0  0.79767012071E+02  0.41435100899E+02 -0.68387248146E+03  0.69445458442E+03  0.80659501111E+02 0.  0.
          6    2    1    2  501    0 -0.35489073756E+02 -0.48754307247E+02 -0.43778995028E+03  0.47423847642E+03  0.17206288130E+03 0.  0.
         24    2    5    5    0    0  0.24757023693E+02 -0.47132506398E+02 -0.12871002700E+03  0.15930243296E+03  0.77308542321E+02 0.  0.
          5    1    5    5  501    0 -0.60246097449E+02 -0.16218008497E+01 -0.30907992328E+03  0.31493604346E+03  0.47000000000E+01 0. -1.
        -11    1    6    6    0    0  0.56243615995E+01 -0.47194918445E+02 -0.13163009651E+03  0.13994811923E+03  0.00000000000E+00 0.  1.
         12    1    6    6    0    0  0.19132662093E+02  0.62412047171E-01  0.29200695059E+01  0.19354313730E+02  0.00000000000E+00 0. -1.
         -5    1    3    3    0  503 -0.44277938315E+02  0.73192063488E+01 -0.92248408624E+02  0.10269355139E+03  0.47000000000E+01 0.  1.
         13    1    4    4    0    0  0.34353560091E+02 -0.23286801546E+02 -0.25490576854E+03  0.25826225634E+03  0.00000000000E+00 0. -1.
        -14    1    4    4    0    0  0.45413451980E+02  0.64721902444E+02 -0.42896671293E+03  0.43619232808E+03  0.00000000000E+00 0.  1.
</event>
<event>
12    1  0.1035051E+000  0.1924321E+03  0.7818608E-02  0.1156492E+00
         21   -1    0    0  501  502  0.00000000000E+00  0.00000000000E+00  0.43842142169E+03  0.43842142169E+03  0.00000000000E+00 0.  1.
         21   -1    0    0  502  503 -0.00000000000E+00 -0.00000000000E+00 -0.10646553060E+03  0.10646553060E+03  0.00000000000E+00 0.  1.
         -6    2    1    2    0  503  0.24691877067E+02 -0.80261007358E+02  0.40670683412E+02  0.19577783498E+03  0.17211431691E+03 0.  0.
        -24    2    3    3    0    0  0.55676509541E+02 -0.68290140414E+01 -0.13808265643E+02  0.99121997170E+02  0.80548078657E+02 0.  0.
          6    2    1    2  501    0 -0.24691877067E+02  0.80261007358E+02  0.29128520767E+03  0.34910911731E+03  0.17314325134E+03 0.  0.
         24    2    5    5    0    0  0.89804336753E+00  0.93910506550E+02  0.29487600298E+03  0.31950951145E+03  0.79463709024E+02 0.  0.
          5    1    5    5  501    0 -0.25589920434E+02 -0.13649499191E+02 -0.35907953069E+01  0.29599605858E+02  0.47000000000E+01 0. -1.
        -11    1    6    6    0    0  0.10299810658E+02  0.69666083945E+01  0.14835560825E+03  0.14887580808E+03  0.00000000000E+00 0.  1.
         12    1    6    6    0    0 -0.94017672901E+01  0.86943898155E+02  0.14652039473E+03  0.17063370338E+03  0.00000000000E+00 0. -1.
         -5    1    3    3    0  503 -0.30984632475E+02 -0.73431993317E+02  0.54478949055E+02  0.96655837807E+02  0.47000000000E+01 0.  1.
         13    1    4    4    0    0  0.67339591381E+02  0.14327011027E+02  0.42239324748E+01  0.68976267063E+02  0.00000000000E+00 0. -1.
        -14    1    4    4    0    0 -0.11663081840E+02 -0.21156025069E+02 -0.18032198118E+02  0.30145730107E+02  0.00000000000E+00 0.  1.
</event>
<event>
12    1  0.1035051E+000  0.2022419E+03  0.7818608E-02  0.1147999E+00
         21   -1    0    0  501  502  0.00000000000E+00  0.00000000000E+00  0.16750483149E+04  0.16750483149E+04  0.00000000000E+00 0.  1.
         21   -1    0    0  502  503 -0.00000000000E+00 -0.00000000000E+00 -0.25768905123E+02  0.25768905123E+02  0.00000000000E+00 0.  1.
         -6    2    1    2    0  503  0.59703690590E+02 -0.87606127115E+02  0.10237272284E+04  0.10433848428E+04  0.17145007393E+03 0.  0.
        -24    2    3    3    0    0  0.27865705538E+02  0.18002983354E+02  0.34704671196E+03  0.35775698979E+03  0.80299679349E+02 0.  0.
          6    2    1    2  501    0 -0.59703690590E+02  0.87606127115E+02  0.62555218136E+03  0.65743237720E+03  0.17222785724E+03 0.  0.
         24    2    5    5    0    0 -0.43838492068E+02 -0.19783495689E+02  0.29427784512E+03  0.30879357922E+03  0.80254746572E+02 0.  0.
          5    1    5    5  501    0 -0.15865198522E+02  0.10738962280E+03  0.33127433624E+03  0.34863879799E+03  0.47000000000E+01 0. -1.
        -11    1    6    6    0    0 -0.11273012128E+02 -0.21699902256E+02  0.17427853426E+02  0.30028263943E+02  0.00000000000E+00 0.  1.
         12    1    6    6    0    0 -0.32565479939E+02  0.19164065673E+01  0.27684999170E+03  0.27876531527E+03  0.00000000000E+00 0. -1.
         -5    1    3    3    0  503  0.31837985052E+02 -0.10560911047E+03  0.67668051644E+03  0.68562785302E+03  0.47000000000E+01 0.  1.
         13    1    4    4    0    0  0.38886789153E+02 -0.13342334190E+02  0.27920600433E+03  0.28221657129E+03  0.00000000000E+00 0. -1.
        -14    1    4    4    0    0 -0.11021083614E+02  0.31345317544E+02  0.67840707630E+02  0.75540418504E+02  0.00000000000E+00 0.  1.
</event>
<event>
12    1  0.1035051E+000  0.2032505E+03  0.7818608E-02  0.1147265E+00
         21   -1    0    0  503  502  0.00000000000E+00  0.00000000000E+00  0.21885446666E+03  0.21885446666E+03  0.00000000000E+00 0.  1.
         21   -1    0    0  501  503 -0.00000000000E+00 -0.00000000000E+00 -0.32323650987E+03  0.32323650987E+03  0.00000000000E+00 0. -1.
          6    2    1    2  501    0 -0.35232702934E+02 -0.10177971651E+03  0.12324400910E+03  0.23769699910E+03  0.17236682847E+03 0.  0.
         24    2    3    3    0    0 -0.73475997471E+02 -0.11321767966E+03  0.11985829448E+03  0.19736178321E+03  0.79804119719E+02 0.  0.
         -6    2    1    2    0  502  0.35232702934E+02  0.10177971651E+03 -0.22762605230E+03  0.30439397743E+03  0.17100181215E+03 0.  0.
        -24    2    5    5    0    0  0.46754891493E+02  0.71457364495E+02 -0.24174020700E+03  0.26870777248E+03  0.80457221509E+02 0.  0.
          5    1    3    3  501    0  0.38243294537E+02  0.11437963147E+02  0.33857146177E+01  0.40335215897E+02  0.47000000000E+01 0. -1.
        -13    1    4    4    0    0 -0.49569356131E+02 -0.15032712290E+02  0.62462877094E+02  0.81146253893E+02  0.00000000000E+00 0.  1.
         14    1    4    4    0    0 -0.23906641340E+02 -0.98184967367E+02  0.57395417383E+02  0.11621552931E+03  0.00000000000E+00 0. -1.
         -5    1    5    5    0  502 -0.11522188560E+02  0.30322352016E+02  0.14114154692E+02  0.35686204948E+02  0.47000000000E+01 0.  1.
         13    1    6    6    0    0 -0.14893899675E+02 -0.76984169711E+01 -0.40856310080E+02  0.44162562705E+02  0.00000000000E+00 0. -1.
        -14    1    6    6    0    0  0.61648791168E+02  0.79155781466E+02 -0.20088389692E+03  0.22454520977E+03  0.00000000000E+00 0.  1.
</event>
<event>
12    1  0.1035051E+000  0.3206188E+03  0.7818608E-02  0.1075717E+00
         21   -1    0    0  501  502  0.00000000000E+00  0.00000000000E+00  0.18293470287E+03  0.18293470287E+03  0.00000000000E+00 0. -1.
         21   -1    0    0  502  503 -0.00000000000E+00 -0.00000000000E+00 -0.15772614768E+04  0.15772614768E+04  0.00000000000E+00 0. -1.
         -6    2    1    2    0  503 -0.79892557441E+02 -0.25434523513E+03  0.96379332135E+01  0.32076358386E+03  0.17810689938E+03 0.  0.
        -24    2    3    3    0    0 -0.11953107134E+03 -0.22515007320E+03 -0.10435955726E+02  0.26739111642E+03  0.80055402626E+02 0.  0.
          6    2    1    2  501    0  0.79892557441E+02  0.25434523513E+03 -0.14039647071E+04  0.14394325958E+04  0.17255428016E+03 0.  0.
         24    2    5    5    0    0  0.89587844732E+02  0.21890396307E+03 -0.88747387669E+03  0.92161510836E+03  0.76286297498E+02 0.  0.
          5    1    5    5  501    0 -0.96952872913E+01  0.35441272055E+02 -0.51649083041E+03  0.51781748740E+03  0.47000000000E+01 0. -1.
        -13    1    6    6    0    0  0.55967169194E+02  0.10457553833E+03 -0.30874921412E+03  0.33074830985E+03  0.00000000000E+00 0.  1.
         14    1    6    6    0    0  0.33620675538E+02  0.11432842474E+03 -0.57872466257E+03  0.59086679852E+03  0.00000000000E+00 0. -1.
         -5    1    3    3    0  503  0.39638513897E+02 -0.29195161927E+02  0.20073888940E+02  0.53372467444E+02  0.47000000000E+01 0.  1.
         13    1    4    4    0    0  0.68916966603E+01 -0.49686564388E+02 -0.98817738379E+01  0.51126310426E+02  0.00000000000E+00 0. -1.
        -14    1    4    4    0    0 -0.12642276800E+03 -0.17546350881E+03 -0.55418188818E+00  0.21626480599E+03  0.00000000000E+00 0.  1.
</event>
<event>
12    1  0.1035051E+000  0.3883776E+03  0.7818608E-02  0.1048077E+00
         21   -1    0    0  501  502  0.00000000000E+00  0.00000000000E+00  0.70684212320E+03  0.70684212320E+03  0.00000000000E+00 0.  1.
         21   -1    0    0  502  503 -0.00000000000E+00 -0.00000000000E+00 -0.23707758362E+03  0.23707758362E+03  0.00000000000E+00 0.  1.
         -6    2    1    2    0  503  0.32630206819E+03 -0.12151433689E+03  0.82576254775E+02  0.39705916564E+03  0.17204176641E+03 0.  0.
        -24    2    3    3    0    0  0.28175652967E+03 -0.15645403609E+03  0.71083045356E+02  0.33909994337E+03  0.77918963264E+02 0.  0.
          6    2    1    2  501    0 -0.32630206819E+03  0.12151433689E+03  0.38718828481E+03  0.54686054119E+03  0.16704164104E+03 0.  0.
         24    2    5    5    0    0 -0.21669280217E+03  0.10654829222E+03  0.34179370119E+03  0.42719044504E+03  0.85792966335E+02 0.  0.
          5    1    5    5  501    0 -0.10960926602E+03  0.14966044669E+02  0.45394583619E+02  0.11967009615E+03  0.47000000000E+01 0. -1.
        -13    1    6    6    0    0 -0.66048356281E+02 -0.79651624330E+01  0.10099241385E+03  0.12093509348E+03  0.00000000000E+00 0.  1.
         14    1    6    6    0    0 -0.15064444589E+03  0.11451345465E+03  0.24080128734E+03  0.30625535156E+03  0.00000000000E+00 0. -1.
         -5    1    3    3    0  503  0.44545538525E+02  0.34939699206E+02  0.11493209420E+02  0.57959222268E+02  0.47000000000E+01 0.  1.
         13    1    4    4    0    0  0.16879556901E+03 -0.58340900687E+02  0.14660493259E+02  0.17919412623E+03  0.00000000000E+00 0. -1.
        -14    1    4    4    0    0  0.11296096065E+03 -0.98113135406E+02  0.56422552097E+02  0.15990581714E+03  0.00000000000E+00 0.  1.
</event>
<event>
12    1  0.1035051E+000  0.4386087E+03  0.7818608E-02  0.1031189E+00
         21   -1    0    0  503  502  0.00000000000E+00  0.00000000000E+00  0.10396861826E+04  0.10396861826E+04  0.00000000000E+00 0.  1.
         21   -1    0    0  501  503 -0.00000000000E+00 -0.00000000000E+00 -0.24629102142E+03  0.24629102142E+03  0.00000000000E+00 0.  1.
          6    2    1    2  501    0 -0.25129036281E+03 -0.31550898433E+03  0.71750503002E+03  0.84085149105E+03  0.17182839188E+03 0.  0.
         24    2    3    3    0    0 -0.93744821565E+02 -0.61033762500E+02  0.26181420897E+03  0.29564102665E+03  0.79647503967E+02 0.  0.
         -6    2    1    2    0  502  0.25129036281E+03  0.31550898433E+03  0.75890131195E+02  0.44512571301E+03  0.17229284007E+03 0.  0.
        -24    2    5    5    0    0  0.25730549860E+03  0.32189377478E+03  0.88487575274E+02  0.42907164795E+03  0.80316288800E+02 0.  0.
          5    1    3    3  501    0 -0.15754554125E+03 -0.25447522183E+03  0.45569082105E+03  0.54521046439E+03  0.47000000000E+01 0. -1.
        -11    1    4    4    0    0 -0.77881888606E+02 -0.37322783098E+02  0.10360272532E+03  0.13487810572E+03  0.00000000000E+00 0.  1.
         12    1    4    4    0    0 -0.15862932959E+02 -0.23710979402E+02  0.15821148365E+03  0.16076292093E+03  0.00000000000E+00 0. -1.
         -5    1    5    5    0  502 -0.60151357892E+01 -0.63847904503E+01 -0.12597444078E+02  0.16054065061E+02  0.47000000000E+01 0.  1.
         13    1    6    6    0    0  0.68704516707E+02  0.79786132780E+02 -0.12395197928E+02  0.10601782176E+03  0.00000000000E+00 0. -1.
        -14    1    6    6    0    0  0.18860098190E+03  0.24210764200E+03  0.10088277320E+03  0.32305382619E+03  0.00000000000E+00 0.  1.
</event>
<event>
12    1  0.1035051E+000  0.2338374E+03  0.7818608E-02  0.1124021E+00
         21   -1    0    0  503  502  0.00000000000E+00  0.00000000000E+00  0.59211373159E+03  0.59211373159E+03  0.00000000000E+00 0. -1.
         21   -1    0    0  501  503 -0.00000000000E+00 -0.00000000000E+00 -0.12595063740E+03  0.12595063740E+03  0.00000000000E+00 0. -1.
          6    2    1    2  501    0 -0.15398221673E+03  0.31208030572E+02  0.41898040872E+03  0.47981717063E+03  0.17319200356E+03 0.  0.
         24    2    3    3    0    0 -0.76105927255E+01  0.25216067703E+02  0.11570572558E+03  0.14298163307E+03  0.79763157346E+02 0.  0.
         -6    2    1    2    0  502  0.15398221673E+03 -0.31208030572E+02  0.47182685474E+02  0.23824719836E+03  0.17277458574E+03 0.  0.
        -24    2    5    5    0    0  0.71878376948E+02  0.32147170330E+02  0.64124773819E+02  0.13306142772E+03  0.85984971346E+02 0.  0.
          5    1    3    3  501    0 -0.14637162400E+03  0.59919628686E+01  0.30327468314E+03  0.33683553756E+03  0.47000000000E+01 0. -1.
        -13    1    4    4    0    0 -0.25724398852E+02 -0.15406669034E+02  0.16415983128E+02  0.34184713676E+02  0.00000000000E+00 0.  1.
         14    1    4    4    0    0  0.18113806126E+02  0.40622736737E+02  0.99289742453E+02  0.10879691939E+03  0.00000000000E+00 0. -1.
         -5    1    5    5    0  502  0.82103839781E+02 -0.63355200902E+02 -0.16942088345E+02  0.10518577064E+03  0.47000000000E+01 0.  1.
         13    1    6    6    0    0  0.20719096569E+02  0.14816670464E+01 -0.20726320119E+02  0.29343766724E+02  0.00000000000E+00 0. -1.
        -14    1    6    6    0    0  0.51159280379E+02  0.30665503284E+02  0.84851093938E+02  0.10371766100E+03  0.00000000000E+00 0.  1.
</event>
<event>
12    1  0.1035051E+000  0.4221134E+03  0.7818608E-02  0.1036396E+00
         21   -1    0    0  503  502  0.00000000000E+00  0.00000000000E+00  0.38131016992E+03  0.38131016992E+03  0.00000000000E+00 0.  1.
         21   -1    0    0  501  503 -0.00000000000E+00 -0.00000000000E+00 -0.68884494243E+03  0.68884494243E+03  0.00000000000E+00 0. -1.
          6    2    1    2  501    0  0.28645826980E+03 -0.25809005563E+03  0.14981258907E+03  0.44791017660E+03  0.17178736074E+03 0.  0.
         24    2    3    3    0    0  0.16325548315E+03 -0.18088541737E+03  0.15839801598E+03  0.30218686905E+03  0.82795442915E+02 0.  0.
         -6    2    1    2    0  502 -0.28645826980E+03  0.25809005563E+03 -0.45734736158E+03  0.62224493574E+03  0.17132814642E+03 0.  0.
        -24    2    5    5    0    0 -0.53949380505E+02  0.39739646909E+02 -0.86327695229E+02  0.13294444789E+03  0.75709841289E+02 0.  0.
          5    1    3    3  501    0  0.12320278666E+03 -0.77204638269E+02 -0.85854269111E+01  0.14572330756E+03  0.47000000000E+01 0. -1.
        -13    1    4    4    0    0  0.96482237542E+02 -0.15332874723E+03  0.88309625532E+02  0.20153688707E+03  0.00000000000E+00 0.  1.
         14    1    4    4    0    0  0.66773245603E+02 -0.27556670138E+02  0.70088390445E+02  0.10064998198E+03  0.00000000000E+00 0. -1.
         -5    1    5    5    0  502 -0.23250888930E+03  0.21835040873E+03 -0.37101966635E+03  0.48930048785E+03  0.47000000000E+01 0.  1.
         13    1    6    6    0    0  0.72191534589E+01  0.36644625046E+02 -0.18920131603E+02  0.41867840896E+02  0.00000000000E+00 0. -1.
        -14    1    6    6    0    0 -0.61168533964E+02  0.30950218628E+01 -0.67407563626E+02  0.91076606994E+02  0.00000000000E+00 0.  1.
</event>
<event>
12    1  0.1035051E+000  0.1975444E+03  0.7818608E-02  0.1151894E+00
         21   -1    0    0  501  502  0.00000000000E+00  0.00000000000E+00  0.78781501558E+03  0.78781501558E+03  0.00000000000E+00 0. -1.
         21   -1    0    0  502  503 -0.00000000000E+00 -0.00000000000E+00 -0.66894943499E+02  0.66894943499E+02  0.00000000000E+00 0. -1.
         -6    2    1    2    0  503  0.72721311654E+02 -0.65743954587E+02  0.14205552087E+03  0.24306629854E+03  0.17114554550E+03 0.  0.
        -24    2    3    3    0    0  0.42603726576E+02 -0.67886679554E+02  0.16901288983E+03  0.20231767963E+03  0.77093500258E+02 0.  0.
          6    2    1    2  501    0 -0.72721311654E+02  0.65743954587E+02  0.57886455121E+03  0.61164366054E+03  0.17150260083E+03 0.  0.
         24    2    5    5    0    0 -0.10958982866E+03  0.23131122338E+02  0.45855639595E+03  0.47871028158E+03  0.79652909918E+02 0.  0.
          5    1    5    5  501    0  0.36868517005E+02  0.42612832249E+02  0.12030815526E+03  0.13293337896E+03  0.47000000000E+01 0. -1.
        -13    1    6    6    0    0 -0.91445980370E+02  0.49960969767E+02  0.32572830562E+03  0.34199034330E+03  0.00000000000E+00 0.  1.
         14    1    6    6    0    0 -0.18143848289E+02 -0.26829847429E+02  0.13282809033E+03  0.13671993828E+03  0.00000000000E+00 0. -1.
         -5    1    3    3    0  503  0.30117585077E+02  0.21427249668E+01 -0.26957368968E+02  0.40748618908E+02  0.47000000000E+01 0.  1.
         13    1    4    4    0    0 -0.17301483333E+02 -0.42332243891E+02  0.77686532446E+02  0.90147421049E+02  0.00000000000E+00 0. -1.
        -14    1    4    4    0    0  0.59905209910E+02 -0.25554435662E+02  0.91326357389E+02  0.11217025858E+03  0.00000000000E+00 0.  1.
</event>
<event>
12    1  0.1035051E+000  0.2522410E+03  0.7818608E-02  0.1111981E+00
         21   -1    0    0  501  502  0.00000000000E+00  0.00000000000E+00  0.26307749448E+03  0.26307749448E+03  0.00000000000E+00 0.  1.
         21   -1    0    0  502  503 -0.00000000000E+00 -0.00000000000E+00 -0.24944247141E+03  0.24944247141E+03  0.00000000000E+00 0.  1.
         -6    2    1    2    0  503 -0.13983809849E+03 -0.11919595604E+03  0.53009052923E+02  0.25722435580E+03  0.17202336992E+03 0.  0.
        -24    2    3    3    0    0 -0.12483827560E+03 -0.13550837049E+03  0.84759928293E+02  0.21822054010E+03  0.80553368334E+02 0.  0.
          6    2    1    2  501    0  0.13983809849E+03  0.11919595604E+03 -0.39374029850E+02  0.25529561009E+03  0.17280961946E+03 0.  0.
         24    2    5    5    0    0  0.10311039264E+03  0.13218308421E+03 -0.74570652771E+02  0.20258430068E+03  0.85880706817E+02 0.  0.
          5    1    5    5  501    0  0.36727705852E+02 -0.12987128168E+02  0.35196622921E+02  0.52711309415E+02  0.47000000000E+01 0. -1.
        -11    1    6    6    0    0 -0.12538147326E+02  0.19891298071E+02 -0.24104784925E+02  0.33673573223E+02  0.00000000000E+00 0.  1.
         12    1    6    6    0    0  0.11564853997E+03  0.11229178614E+03 -0.50465867846E+02  0.16891072745E+03  0.00000000000E+00 0. -1.
         -5    1    3    3    0  503 -0.14999822891E+02  0.16312414451E+02 -0.31750875370E+02  0.39003815695E+02  0.47000000000E+01 0.  1.
         11    1    4    4    0    0 -0.88238436194E+02 -0.85059299611E+02  0.13116718496E+02  0.12326051426E+03  0.00000000000E+00 0. -1.
        -12    1    4    4    0    0 -0.36599839406E+02 -0.50449070884E+02  0.71643209797E+02  0.94960025841E+02  0.00000000000E+00 0.  1.
</event>
<event>
12    1  0.1035051E+000  0.3449948E+03  0.7818608E-02  0.1064708E+00
         21   -1    0    0  501  502  0.00000000000E+00  0.00000000000E+00  0.72011787092E+02  0.72011787092E+02  0.00000000000E+00 0.  1.
         21   -1    0    0  502  503 -0.00000000000E+00 -0.00000000000E+00 -0.16523405186E+04  0.16523405186E+04  0.00000000000E+00 0. -1.
         -6    2    1    2    0  503 -0.29639516642E+03  0.38956034476E+02 -0.77647518182E+03  0.84966765760E+03  0.17220265121E+03 0.  0.
        -24    2    3    3    0    0 -0.24395069494E+03  0.81311293411E+02 -0.53382155929E+03  0.59778025999E+03  0.79071575592E+02 0.  0.
          6    2    1    2  501    0  0.29639516642E+03 -0.38956034476E+02 -0.80385354968E+03  0.87468464809E+03  0.17182851034E+03 0.  0.
         24    2    5    5    0    0  0.11445854896E+03  0.31903359193E+02 -0.26167656504E+03  0.29840350219E+03  0.80320866963E+02 0.  0.
          5    1    5    5  501    0  0.18193661746E+03 -0.70859393669E+02 -0.54217698464E+03  0.57628114590E+03  0.47000000000E+01 0. -1.
        -13    1    6    6    0    0  0.88965685950E+02 -0.35907700625E+01 -0.11550706377E+03  0.14584124481E+03  0.00000000000E+00 0.  1.
         14    1    6    6    0    0  0.25492863011E+02  0.35494129256E+02 -0.14616950127E+03  0.15256225738E+03  0.00000000000E+00 0. -1.
         -5    1    3    3    0  503 -0.52444471481E+02 -0.42355258936E+02 -0.24265362253E+03  0.25188739761E+03  0.47000000000E+01 0.  1.
         11    1    4    4    0    0 -0.16633912210E+03  0.53503813942E+02 -0.43685543214E+03  0.47050401724E+03  0.00000000000E+00 0. -1.
        -12    1    4    4    0    0 -0.77611572840E+02  0.27807479469E+02 -0.96966127151E+02  0.12727624275E+03  0.00000000000E+00 0.  1.
</event>
<event>
12    1  0.1035051E+000  0.1832316E+03  0.7818608E-02  0.1164726E+00
         21   -1    0    0  503  502  0.00000000000E+00  0.00000000000E+00  0.22570107025E+03  0.22570107025E+03  0.00000000000E+00 0. -1.
         21   -1    0    0  501  503 -0.00000000000E+00 -0.00000000000E+00 -0.20222049772E+03  0.20222049772E+03  0.00000000000E+00 0. -1.
          6    2    1    2  501    0 -0.49455059984E+02  0.37379822651E+02  0.12180613433E+03  0.21997508474E+03  0.17236371268E+03 0.  0.
         24    2    3    3    0    0 -0.77570223080E+02  0.59031461753E+01  0.24651607143E+02  0.11394520353E+03  0.79522456135E+02 0.  0.
         -6    2    1    2    0  502  0.49455059984E+02 -0.37379822651E+02 -0.98325561791E+02  0.20794648322E+03  0.17242612819E+03 0.  0.
        -24    2    5    5    0    0 -0.12624227563E+02  0.27974537830E+02 -0.38462032463E+02  0.99637838509E+02  0.86639627384E+02 0.  0.
          5    1    3    3  501    0  0.28115163096E+02  0.31476676476E+02  0.97154527183E+02  0.10602988121E+03  0.47000000000E+01 0. -1.
        -13    1    4    4    0    0 -0.53187609171E+02 -0.72082558283E+00  0.53604803436E+02  0.75517655620E+02  0.00000000000E+00 0.  1.
         14    1    4    4    0    0 -0.24382613909E+02  0.66239717582E+01 -0.28953196294E+02  0.38427547912E+02  0.00000000000E+00 0. -1.
         -5    1    5    5    0  502  0.62079287548E+02 -0.65354360481E+02 -0.59863529328E+02  0.10830864471E+03  0.47000000000E+01 0.  1.
         13    1    6    6    0    0 -0.47952805254E+02  0.44257436536E+01 -0.28742030881E+02  0.56081753520E+02  0.00000000000E+00 0. -1.
        -14    1    6    6    0    0  0.35328577691E+02  0.23548794177E+02 -0.97200015820E+01  0.43556084990E+02  0.00000000000E+00 0.  1.
</event>
<event>
12    1  0.1035051E+000  0.1749737E+03  0.7818608E-02  0.1172771E+00
         21   -1    0    0  503  502  0.00000000000E+00  0.00000000000E+00  0.51933366249E+03  0.51933366249E+03  0.00000000000E+00 0.  1.
         21   -1    0    0  501  503 -0.00000000000E+00 -0.00000000000E+00 -0.74618859937E+02  0.74618859937E+02  0.00000000000E+00 0.  1.
          6    2    1    2  501    0  0.15350917977E+02  0.15592459907E+02  0.35853484285E+03  0.39895243585E+03  0.17360022190E+03 0.  0.
         24    2    3    3    0    0 -0.54873082647E+02  0.73192153953E+01  0.26013346586E+03  0.27768917748E+03  0.79857580178E+02 0.  0.
         -6    2    1    2    0  502 -0.15350917977E+02 -0.15592459907E+02  0.86179959698E+02  0.19500008657E+03  0.17354905019E+03 0.  0.
        -24    2    5    5    0    0 -0.66389530334E+00 -0.77297179477E+02  0.68339459859E+02  0.12894288041E+03  0.77334920452E+02 0.  0.
          5    1    3    3  501    0  0.70224000624E+02  0.82732445118E+01  0.98401376990E+02  0.12126325838E+03  0.47000000000E+01 0. -1.
        -13    1    4    4    0    0  0.85302516538E+01  0.24971638309E+02  0.39939456253E+02  0.47869698964E+02  0.00000000000E+00 0.  1.
         14    1    4    4    0    0 -0.63403334301E+02 -0.17652422913E+02  0.22019400961E+03  0.22981947851E+03  0.00000000000E+00 0. -1.
         -5    1    5    5    0  502 -0.14687022673E+02  0.61704719570E+02  0.17840499839E+02  0.66057206168E+02  0.47000000000E+01 0.  1.
         11    1    6    6    0    0 -0.24898838808E+02 -0.50725396873E+02  0.58046396322E+01  0.56804153925E+02  0.00000000000E+00 0. -1.
        -12    1    6    6    0    0  0.24234943504E+02 -0.26571782605E+02  0.62534820226E+02  0.72138726480E+02  0.00000000000E+00 0.  1.
</event>
<event>
12    1  0.1035051E+000  0.1953856E+03  0.7818608E-02  0.1154683E+00
         21   -1    0    0  501  502  0.00000000000E+00  0.00000000000E+00  0.82325174465E+03  0.82325174465E+03  0.00000000000E+00 0. -1.
         21   -1    0    0  502  503 -0.00000000000E+00 -0.00000000000E+00 -0.59135531033E+02  0.59135531033E+02  0.00000000000E+00 0. -1.
         -6    2    1    2    0  503  0.10935699870E+02 -0.81224742172E+02  0.16532243588E+03  0.25252258749E+03  0.17239228845E+03 0.  0.
        -24    2    3    3    0    0  0.78578325329E+01 -0.12307605426E+03  0.14384826664E+03  0.20514922435E+03  0.78641081961E+02 0.  0.
          6    2    1    2  501    0 -0.10935699870E+02  0.81224742172E+02  0.59879377774E+03  0.62986468820E+03  0.17736541067E+03 0.  0.
         24    2    5    5    0    0 -0.24294097445E+02 -0.14131082634E+02  0.16675206108E+03  0.18719854419E+03  0.80294174175E+02 0.  0.
          5    1    5    5  501    0  0.13358397575E+02  0.95355824806E+02  0.43204171666E+03  0.44266614401E+03  0.47000000000E+01 0. -1.
        -13    1    6    6    0    0 -0.15988212263E+02 -0.49374875485E+01 -0.29956326366E+01  0.16999280266E+02  0.00000000000E+00 0.  1.
         14    1    6    6    0    0 -0.83058851821E+01 -0.91935950855E+01  0.16974769372E+03  0.17019926393E+03  0.00000000000E+00 0. -1.
         -5    1    3    3    0  503  0.30778673370E+01  0.41851312087E+02  0.21474169235E+02  0.47373363138E+02  0.47000000000E+01 0.  1.
         11    1    4    4    0    0  0.10731496691E+01  0.41758502447E+01 -0.66633398885E+01  0.79365908266E+01  0.00000000000E+00 0. -1.
        -12    1    4    4    0    0  0.67846828638E+01 -0.12725190450E+03  0.15051160653E+03  0.19721263352E+03  0.00000000000E+00 0.  1.
</event>
<event>
12    1  0.1035051E+000  0.1831081E+03  0.7818608E-02  0.1165014E+00
         21   -1    0    0  503  502  0.00000000000E+00  0.00000000000E+00  0.44508453072E+02  0.44508453072E+02  0.00000000000E+00 0. -1.
         21   -1    0    0  501  503 -0.00000000000E+00 -0.00000000000E+00 -0.85684928244E+03  0.85684928244E+03  0.00000000000E+00 0. -1.
          6    2    1    2  501    0 -0.65748937587E+02  0.10346243976E+02 -0.24633008002E+03  0.30646553257E+03  0.16974288431E+03 0.  0.
         24    2    3    3    0    0  0.25004216520E+02 -0.11509103311E+01 -0.74356166706E+02  0.11161831961E+03  0.79393162849E+02 0.  0.
         -6    2    1    2    0  502  0.65748937587E+02 -0.10346243976E+02 -0.56601074934E+03  0.59489220293E+03  0.17058310932E+03 0.  0.
        -24    2    5    5    0    0  0.46935566270E+02  0.52103379269E+02 -0.44351121904E+03  0.45603211756E+03  0.79657901856E+02 0.  0.
          5    1    3    3  501    0 -0.90753154107E+02  0.11497154307E+02 -0.17197391332E+03  0.19484721296E+03  0.47000000000E+01 0. -1.
        -13    1    4    4    0    0  0.23516015937E+02 -0.34453459039E+02 -0.16526300273E+02  0.44868278839E+02  0.00000000000E+00 0.  1.
         14    1    4    4    0    0  0.14882005831E+01  0.33302548708E+02 -0.57829866433E+02  0.66750040772E+02  0.00000000000E+00 0. -1.
         -5    1    5    5    0  502  0.18813371316E+02 -0.62449623245E+02 -0.12249953031E+03  0.13886008537E+03  0.47000000000E+01 0.  1.
         13    1    6    6    0    0 -0.13190770236E+02  0.42090886891E+02 -0.15511223802E+03  0.16126204006E+03  0.00000000000E+00 0. -1.
        -14    1    6    6    0    0  0.60126336506E+02  0.10012492378E+02 -0.28839898101E+03  0.29477007751E+03  0.00000000000E+00 0.  1.
</event>
<event>
12    1  0.1035051E+000  0.1946260E+03  0.7818608E-02  0.1154938E+00
         21   -1    0    0  501  502  0.00000000000E+00  0.00000000000E+00  0.20568872299E+03  0.20568872299E+03  0.00000000000E+00 0. -1.
         21   -1    0    0  502  503 -0.00000000000E+00 -0.00000000000E+00 -0.18393793855E+03  0.18393793855E+03  0.00000000000E+00 0. -1.
         -6    2    1    2    0  503 -0.90862253549E+02 -0.71519418176E+01 -0.10899129257E+02  0.19228103489E+03  0.16895592907E+03 0.  0.
        -24    2    3    3    0    0 -0.46206275989E+02 -0.48415831227E+02 -0.53415840757E+02  0.11793975660E+03  0.81101303871E+02 0.  0.
          6    2    1    2  501    0  0.90862253549E+02  0.71519418176E+01  0.32649913692E+02  0.19734562664E+03  0.17196563639E+03 0.  0.
         24    2    5    5    0    0  0.57594649313E+02 -0.17328376916E+02 -0.44514264745E+02  0.10969621175E+03  0.80214230851E+02 0.  0.
          5    1    5    5  501    0  0.33267604236E+02  0.24480318733E+02  0.77164178437E+02  0.87649414891E+02  0.47000000000E+01 0. -1.
        -13    1    6    6    0    0  0.69390677951E+01 -0.21970352327E+02  0.17901691708E+02  0.29177347536E+02  0.00000000000E+00 0.  1.
         14    1    6    6    0    0  0.50655581518E+02  0.46419754110E+01 -0.62415956454E+02  0.80518864216E+02  0.00000000000E+00 0. -1.
         -5    1    3    3    0  503 -0.44655977560E+02  0.41263889410E+02  0.42516711500E+02  0.74341278290E+02  0.47000000000E+01 0.  1.
         11    1    4    4    0    0  0.16867376997E+02 -0.34477640889E+02 -0.86395055500E+01  0.39342816170E+02  0.00000000000E+00 0. -1.
        -12    1    4    4    0    0 -0.63073652986E+02 -0.13938190338E+02 -0.44776335207E+02  0.78596940433E+02  0.00000000000E+00 0.  1.
</event>
<event>
12    1  0.1035051E+000  0.3648693E+03  0.7818608E-02  0.1056690E+00
         21   -1    0    0  501  502  0.00000000000E+00  0.00000000000E+00  0.93367706033E+02  0.93367706033E+02  0.00000000000E+00 0. -1.
         21   -1    0    0  502  503 -0.00000000000E+00 -0.00000000000E+00 -0.20286028306E+04  0.20286028306E+04  0.00000000000E+00 0. -1.
         -6    2    1    2    0  503 -0.31173881768E+03 -0.77694219075E+02 -0.38876496290E+03  0.53304021825E+03  0.17255780414E+03 0.  0.
        -24    2    3    3    0    0 -0.28172013580E+03 -0.43729989558E+02 -0.25219463758E+03  0.38906718638E+03  0.80576630560E+02 0.  0.
          6    2    1    2  501    0  0.31173881768E+03  0.77694219075E+02 -0.15464701617E+04  0.15889303184E+04  0.17295118854E+03 0.  0.
         24    2    5    5    0    0  0.18342968557E+03  0.33591781241E+02 -0.11943740133E+04  0.12115683620E+04  0.81201939116E+02 0.  0.
          5    1    5    5  501    0  0.12830913211E+03  0.44102437834E+02 -0.35209614840E+03  0.37736195638E+03  0.47000000000E+01 0. -1.
        -11    1    6    6    0    0  0.45231898484E+02  0.41576685639E+02 -0.47902090219E+03  0.48294468645E+03  0.00000000000E+00 0.  1.
         12    1    6    6    0    0  0.13819778708E+03 -0.79849043977E+01 -0.71535311108E+03  0.72862367556E+03  0.00000000000E+00 0. -1.
         -5    1    3    3    0  503 -0.30018681883E+02 -0.33964229517E+02 -0.13657032532E+03  0.14397303188E+03  0.47000000000E+01 0.  1.
         13    1    4    4    0    0 -0.19822720093E+03 -0.32256114046E+01 -0.20413374660E+03  0.28456109055E+03  0.00000000000E+00 0. -1.
        -14    1    4    4    0    0 -0.83492934871E+02 -0.40504378154E+02 -0.48060890980E+02  0.10450609583E+03  0.00000000000E+00 0.  1.
</event>
<event>
12    1  0.1035051E+000  0.4463368E+03  0.7818608E-02  0.1029266E+00
         21   -1    0    0  501  502  0.00000000000E+00  0.00000000000E+00  0.19966711562E+04  0.19966711562E+04  0.00000000000E+00 0.  1.
         21   -1    0    0  502  503 -0.00000000000E+00 -0.00000000000E+00 -0.10204803243E+03  0.10204803243E+03  0.00000000000E+00 0.  1.
         -6    2    1    2    0  503 -0.32079775889E+03  0.24833577545E+03  0.11500394418E+04  0.12336155297E+04  0.18610399756E+03 0.  0.
        -24    2    3    3    0    0 -0.33049447121E+03  0.20528220122E+03  0.10792764789E+04  0.11500863528E+04  0.80582399956E+02 0.  0.
          6    2    1    2  501    0  0.32079775889E+03 -0.24833577545E+03  0.74458368202E+03  0.86510365899E+03  0.17151566048E+03 0.  0.
         24    2    5    5    0    0  0.11701331563E+03 -0.38761555372E+02  0.28278479399E+03  0.31854190034E+03  0.79417431011E+02 0.  0.
          5    1    5    5  501    0  0.20378444326E+03 -0.20957422007E+03  0.46179888803E+03  0.54656175865E+03  0.47000000000E+01 0. -1.
        -13    1    6    6    0    0  0.10268095000E+03 -0.59386137271E+02  0.25405424898E+03  0.28038126224E+03  0.00000000000E+00 0.  1.
         14    1    6    6    0    0  0.14332365633E+02  0.20624581899E+02  0.28730545010E+02  0.38160638094E+02  0.00000000000E+00 0. -1.
         -5    1    3    3    0  503  0.96967123229E+01  0.43053574231E+02  0.70762962838E+02  0.83529176900E+02  0.47000000000E+01 0.  1.
         13    1    4    4    0    0 -0.16572731539E+03  0.96222085839E+02  0.41627457942E+03  0.45826712553E+03  0.00000000000E+00 0. -1.
        -14    1    4    4    0    0 -0.16476715582E+03  0.10906011538E+03  0.66300189951E+03  0.69181922722E+03  0.00000000000E+00 0.  1.
</event>
<event>
12    1  0.1035051E+000  0.2807075E+03  0.7818608E-02  0.1096838E+00
         21   -1    0    0  503  502  0.00000000000E+00  0.00000000000E+00  0.51035950638E+03  0.51035950638E+03  0.00000000000E+00 0. -1.
         21   -1    0    0  501  503 -0.00000000000E+00 -0.00000000000E+00 -0.23628786129E+03  0.23628786129E+03  0.00000000000E+00 0. -1.
          6    2    1    2  501    0 -0.75490696463E+02  0.19289351973E+03 -0.88912406358E+02  0.29445226881E+03  0.18944647633E+03 0.  0.
         24    2    3    3    0    0 -0.59438980976E+02  0.11378351134E+03  0.25779989725E+02  0.15412234785E+03  0.81298279949E+02 0.  0.
         -6    2    1    2    0  502  0.75490696463E+02 -0.19289351973E+03  0.36298405145E+03  0.45219509886E+03  0.17267376936E+03 0.  0.
        -24    2    5    5    0    0  0.11979332856E+03 -0.13489609546E+03  0.25795087295E+03  0.32420883781E+03  0.77622931674E+02 0.  0.
          5    1    3    3  501    0 -0.16051715487E+02  0.79110008391E+02 -0.11469239608E+03  0.14032992096E+03  0.47000000000E+01 0. -1.
        -11    1    4    4    0    0 -0.49530995030E+02  0.11793881423E+03  0.42026662634E+02  0.13464443450E+03  0.00000000000E+00 0.  1.
         12    1    4    4    0    0 -0.99079859458E+01 -0.41553028879E+01 -0.16246672909E+02  0.19477913343E+02  0.00000000000E+00 0. -1.
         -5    1    5    5    0  502 -0.44302632096E+02 -0.57997424274E+02  0.10503317849E+03  0.12798626105E+03  0.47000000000E+01 0.  1.
         13    1    6    6    0    0  0.67090770008E+02 -0.24337356332E+02  0.12100348896E+03  0.14048246394E+03  0.00000000000E+00 0. -1.
        -14    1    6    6    0    0  0.52702558552E+02 -0.11055873913E+03  0.13694738399E+03  0.18372637388E+03  0.00000000000E+00 0.  1.
</event>
<event>
12    1  0.1035051E+000  0.1850709E+03  0.7818608E-02  0.1163328E+00
         21   -1    0    0  503  502  0.00000000000E+00  0.00000000000E+00  0.91337268926E+02  0.91337268926E+02  0.00000000000E+00 0. -1.
         21   -1    0    0  501  503 -0.00000000000E+00 -0.00000000000E+00 -0.37427540333E+03  0.37427540333E+03  0.00000000000E+00 0. -1.
          6    2    1    2  501    0 -0.41135161834E+02  0.52123080643E+02 -0.12286887598E+03  0.22092222151E+03  0.17117520322E+03 0.  0.
         24    2    3    3    0    0 -0.57560026539E+02  0.77061856639E+02 -0.39376785751E+02  0.13212617509E+03  0.81578848269E+02 0.  0.
         -6    2    1    2    0  502  0.41135161834E+02 -0.52123080643E+02 -0.16006925842E+03  0.24469045074E+03  0.17274933319E+03 0.  0.
        -24    2    5    5    0    0  0.46944659270E+02  0.21898878343E+02 -0.13743655455E+03  0.16692587039E+03  0.79322618303E+02 0.  0.
          5    1    3    3  501    0  0.16424864705E+02 -0.24938775996E+02 -0.83492090230E+02  0.88796046419E+02  0.47000000000E+01 0. -1.
        -13    1    4    4    0    0 -0.63765494473E+02  0.64034452397E+02 -0.19167450561E+00  0.90368612462E+02  0.00000000000E+00 0.  1.
         14    1    4    4    0    0  0.62054679344E+01  0.13027404242E+02 -0.39185111245E+02  0.41757562631E+02  0.00000000000E+00 0. -1.
         -5    1    5    5    0  502 -0.58094974361E+01 -0.74021958986E+02 -0.22632703878E+02  0.77764580352E+02  0.47000000000E+01 0.  1.
         13    1    6    6    0    0  0.19151002131E+01  0.38767727859E+02 -0.95632235446E+02  0.10320915070E+03  0.00000000000E+00 0. -1.
        -14    1    6    6    0    0  0.45029559057E+02 -0.16868849516E+02 -0.41804319099E+02  0.63716719691E+02  0.00000000000E+00 0.  1.
</event>
<event>
12    1  0.1035051E+000  0.2576160E+03  0.7818608E-02  0.1109050E+00
         21   -1    0    0  503  502  0.00000000000E+00  0.00000000000E+00  0.45956410568E+03  0.45956410568E+03  0.00000000000E+00 0. -1.
         21   -1    0    0  501  503 -0.00000000000E+00 -0.00000000000E+00 -0.26031840002E+03  0.26031840002E+03  0.00000000000E+00 0.  1.
          6    2    1    2  501    0 -0.12303478700E+03 -0.14662711292E+03  0.34188128248E+03  0.42807570770E+03  0.17242079676E+03 0.  0.
         24    2    3    3    0    0 -0.24264678239E+02 -0.13775378354E+03  0.20298177957E+03  0.25734365955E+03  0.73886918861E+02 0.  0.
         -6    2    1    2    0  502  0.12303478700E+03  0.14662711292E+03 -0.14263557682E+03  0.29180679799E+03  0.16783691645E+03 0.  0.
        -24    2    5    5    0    0  0.55104110672E+02  0.14101707068E+02 -0.28513882980E+02  0.10412778748E+03  0.82427140232E+02 0.  0.
          5    1    3    3  501    0 -0.98770108764E+02 -0.88733293818E+01  0.13889950291E+03  0.17073204816E+03  0.47000000000E+01 0. -1.
        -11    1    4    4    0    0  0.17183452358E+02 -0.96080918345E+02  0.10730704731E+03  0.14505728629E+03  0.00000000000E+00 0.  1.
         12    1    4    4    0    0 -0.41448130597E+02 -0.41672865196E+02  0.95674732266E+02  0.11228637325E+03  0.00000000000E+00 0. -1.
         -5    1    5    5    0  502  0.67930676331E+02  0.13252540585E+03 -0.11412169384E+03  0.18767901052E+03  0.47000000000E+01 0.  1.
         13    1    6    6    0    0  0.16576522041E+02  0.46774616455E+02 -0.13544455458E+02  0.51440238152E+02  0.00000000000E+00 0. -1.
        -14    1    6    6    0    0  0.38527588631E+02 -0.32672909386E+02 -0.14969427522E+02  0.52687549324E+02  0.00000000000E+00 0.  1.
</event>
<event>
12    1  0.1035051E+000  0.2107799E+03  0.7818608E-02  0.1141213E+00
         21   -1    0    0  501  502  0.00000000000E+00  0.00000000000E+00  0.48548018982E+03  0.48548018982E+03  0.00000000000E+00 0. -1.
         21   -1    0    0  502  503 -0.00000000000E+00 -0.00000000000E+00 -0.10412254191E+03  0.10412254191E+03  0.00000000000E+00 0. -1.
         -6    2    1    2    0  503 -0.14853985074E+02 -0.12183441132E+03  0.86302266598E+02  0.22776359613E+03  0.17135900866E+03 0.  0.
        -24    2    3    3    0    0 -0.12512198689E+02 -0.17451825975E+02 -0.11906062527E+02  0.84347509184E+02  0.80694650595E+02 0.  0.
          6    2    1    2  501    0  0.14853985074E+02  0.12183441132E+03  0.29505538132E+03  0.36183913560E+03  0.16972217697E+03 0.  0.
         24    2    5    5    0    0 -0.86316428164E+00  0.12390526954E+03  0.30769763174E+03  0.34102486806E+03  0.79163547057E+02 0.  0.
          5    1    5    5  501    0  0.15717149356E+02 -0.20708582228E+01 -0.12642250425E+02  0.20814267545E+02  0.47000000000E+01 0. -1.
        -11    1    6    6    0    0  0.15419415599E+02  0.42688551594E+02  0.38976119857E+02  0.59826488563E+02  0.00000000000E+00 0.  1.
         12    1    6    6    0    0 -0.16282579881E+02  0.81216717943E+02  0.26872151188E+03  0.28119837949E+03  0.00000000000E+00 0. -1.
         -5    1    3    3    0  503 -0.23417863854E+01 -0.10438258534E+03  0.98208329125E+02  0.14341608695E+03  0.47000000000E+01 0.  1.
         11    1    4    4    0    0 -0.33801633907E+02  0.11184022806E+02  0.16014383915E+02  0.39039637717E+02  0.00000000000E+00 0. -1.
        -12    1    4    4    0    0  0.21289435218E+02 -0.28635848781E+02 -0.27920446443E+02  0.45307871467E+02  0.00000000000E+00 0.  1.
</event>
<event>
12    1  0.1035051E+000  0.2116104E+03  0.7818608E-02  0.1140410E+00
         21   -1    0    0  503  502  0.00000000000E+00  0.00000000000E+00  0.16948760022E+03  0.16948760022E+03  0.00000000000E+00 0. -1.
         21   -1    0    0  501  503 -0.00000000000E+00 -0.00000000000E+00 -0.39669319959E+03  0.39669319959E+03  0.00000000000E+00 0. -1.
          6    2    1    2  501    0  0.74876961457E+02 -0.10023424069E+03  0.50544531221E+02  0.21700447747E+03  0.16994920195E+03 0.  0.
         24    2    3    3    0    0  0.86078226588E+02 -0.19416848078E+02 -0.70970641428E-01  0.12087467815E+03  0.82608762841E+02 0.  0.
         -6    2    1    2    0  502 -0.74876961457E+02  0.10023424069E+03 -0.27775013059E+03  0.34917632234E+03  0.17066196609E+03 0.  0.
        -24    2    5    5    0    0 -0.20498797764E+02  0.10386719220E+03 -0.25937492407E+03  0.29147085259E+03  0.80444467510E+02 0.  0.
          5    1    3    3  501    0 -0.11201265132E+02 -0.80817392615E+02  0.50615501863E+02  0.96129799326E+02  0.47000000000E+01 0. -1.
        -13    1    4    4    0    0 -0.98433464071E+01  0.12862928749E+02  0.10209851714E+02  0.19146474258E+02  0.00000000000E+00 0.  1.
         14    1    4    4    0    0  0.95921572995E+02 -0.32279776827E+02 -0.10280822356E+02  0.10172820389E+03  0.00000000000E+00 0. -1.
         -5    1    5    5    0  502 -0.54378163693E+02 -0.36329515032E+01 -0.18375206528E+02  0.57705469742E+02  0.47000000000E+01 0.  1.
         13    1    6    6    0    0 -0.54891389260E+00  0.83173113093E+02 -0.10258203673E+03  0.13206491702E+03  0.00000000000E+00 0. -1.
        -14    1    6    6    0    0 -0.19949883871E+02  0.20694079103E+02 -0.15679288734E+03  0.15940593557E+03  0.00000000000E+00 0.  1.
</event>
<event>
12    1  0.1035051E+000  0.6939125E+03  0.7818608E-02  0.9727832E-01
         21   -1    0    0  503  502  0.00000000000E+00  0.00000000000E+00  0.43949145041E+03  0.43949145041E+03  0.00000000000E+00 0. -1.
         21   -1    0    0  501  503 -0.00000000000E+00 -0.00000000000E+00 -0.11422773940E+04  0.11422773940E+04  0.00000000000E+00 0. -1.
          6    2    1    2  501    0  0.48397271330E+03 -0.46619529612E+03 -0.19064904083E+03  0.71933118093E+03  0.17182156368E+03 0.  0.
         24    2    3    3    0    0  0.31412426180E+03 -0.28899250237E+03 -0.49920460590E+02  0.43635423861E+03  0.75645560920E+02 0.  0.
         -6    2    1    2    0  502 -0.48397271330E+03  0.46619529612E+03 -0.51213690278E+03  0.86243766351E+03  0.17305165391E+03 0.  0.
        -24    2    5    5    0    0 -0.14587790729E+03  0.16894229569E+03 -0.12145277403E+03  0.26634738296E+03  0.79801560024E+02 0.  0.
          5    1    3    3  501    0  0.16984845150E+03 -0.17720279374E+03 -0.14072858024E+03  0.28297694232E+03  0.47000000000E+01 0. -1.
        -13    1    4    4    0    0  0.30058079724E+03 -0.24661569811E+03 -0.48776947113E+02  0.39185113091E+03  0.00000000000E+00 0.  1.
         14    1    4    4    0    0  0.13543464554E+02 -0.42376804260E+02 -0.11435134764E+01  0.44503107694E+02  0.00000000000E+00 0. -1.
         -5    1    5    5    0  502 -0.33809480601E+03  0.29725300042E+03 -0.39068412875E+03  0.59609028055E+03  0.47000000000E+01 0.  1.
         13    1    6    6    0    0 -0.42288143982E+01  0.60586340851E+01 -0.31737206617E+02  0.32585889615E+02  0.00000000000E+00 0. -1.
        -14    1    6    6    0    0 -0.14164909289E+03  0.16288366161E+03 -0.89715567413E+02  0.23376149335E+03  0.00000000000E+00 0.  1.
</event>
<event>
12    1  0.1035051E+000  0.2220424E+03  0.7818608E-02  0.1132682E+00
         21   -1    0    0  503  502  0.00000000000E+00  0.00000000000E+00  0.14509754421E+03  0.14509754421E+03  0.00000000000E+00 0.  1.
         21   -1    0    0  501  503 -0.00000000000E+00 -0.00000000000E+00 -0.60991975739E+03  0.60991975739E+03  0.00000000000E+00 0.  1.
          6    2    1    2  501    0  0.12021929494E+03  0.71355196709E+02 -0.48434874831E+03  0.53211793888E+03  0.17032776614E+03 0.  0.
         24    2    3    3    0    0  0.13221817912E+03  0.75713924781E+02 -0.48846602184E+03  0.51790478746E+03  0.80075396273E+02 0.  0.
         -6    2    1    2    0  502 -0.12021929494E+03 -0.71355196709E+02  0.19526535133E+02  0.22289936271E+03  0.17250680378E+03 0.  0.
        -24    2    5    5    0    0 -0.10942635881E+03  0.11146476479E+02  0.29669125306E+02  0.13894714008E+03  0.79546708297E+02 0.  0.
          5    1    3    3  501    0 -0.11998884178E+02 -0.43587280724E+01  0.41172735318E+01  0.14213151419E+02  0.47000000000E+01 0. -1.
        -13    1    4    4    0    0  0.51590497517E+02  0.31434988201E+02 -0.32288845877E+03  0.32849154437E+03  0.00000000000E+00 0.  1.
         14    1    4    4    0    0  0.80627681606E+02  0.44278936580E+02 -0.16557756307E+03  0.18941324309E+03  0.00000000000E+00 0. -1.
         -5    1    5    5    0  502 -0.10792936139E+02 -0.82501673188E+02 -0.10142590173E+02  0.83952222631E+02  0.47000000000E+01 0.  1.
         13    1    6    6    0    0 -0.11596451287E+02  0.12693889518E+02 -0.22300866160E+02  0.28159210661E+02  0.00000000000E+00 0. -1.
        -14    1    6    6    0    0 -0.97829907519E+02 -0.15474130389E+01  0.51969991466E+02  0.11078792942E+03  0.00000000000E+00 0.  1.
</event>
<event>
12    1  0.1035051E+000  0.2059930E+03  0.7818608E-02  0.1144784E+00
         21   -1    0    0  503  502  0.00000000000E+00  0.00000000000E+00  0.86364435566E+02  0.86364435566E+02  0.00000000000E+00 0. -1.
         21   -1    0    0  501  503 -0.00000000000E+00 -0.00000000000E+00 -0.71056921971E+03  0.71056921971E+03  0.00000000000E+00 0. -1.
          6    2    1    2  501    0 -0.77265899768E+02  0.82313759115E+02 -0.53345610750E+03  0.57183717290E+03  0.17226943860E+03 0.  0.
         24    2    3    3    0    0 -0.37169033523E+02  0.11601521954E+02 -0.43534751802E+03  0.44434064551E+03  0.79968840437E+02 0.  0.
         -6    2    1    2    0  502  0.77265899768E+02 -0.82313759115E+02 -0.90748676638E+02  0.22509648237E+03  0.17230069604E+03 0.  0.
        -24    2    5    5    0    0 -0.24480064598E+02 -0.16078422949E+02 -0.30814905910E+02  0.89621363269E+02  0.78896394599E+02 0.  0.
          5    1    3    3  501    0 -0.40096866245E+02  0.70712237161E+02 -0.98108589484E+02  0.12749652739E+03  0.47000000000E+01 0. -1.
        -11    1    4    4    0    0 -0.16031779770E+02  0.15212470814E+02 -0.24741100601E+02  0.33174678443E+02  0.00000000000E+00 0.  1.
         12    1    4    4    0    0 -0.21137253753E+02 -0.36109488597E+01 -0.41060641742E+03  0.41116596707E+03  0.00000000000E+00 0. -1.
         -5    1    5    5    0  502  0.10174596437E+03 -0.66235336166E+02 -0.59933770728E+02  0.13547511910E+03  0.47000000000E+01 0.  1.
         13    1    6    6    0    0  0.59592053736E+01  0.28949716647E+02 -0.75897765612E+01  0.30515617819E+02  0.00000000000E+00 0. -1.
        -14    1    6    6    0    0 -0.30439269972E+02 -0.45028139596E+02 -0.23225129349E+02  0.59105745450E+02  0.00000000000E+00 0.  1.
</event>
<event>
12    1  0.1035051E+000  0.3607154E+03  0.7818608E-02  0.1058379E+00
         21   -1    0    0  501  502  0.00000000000E+00  0.00000000000E+00  0.32000256110E+03  0.32000256110E+03  0.00000000000E+00 0. -1.
         21   -1    0    0  502  503 -0.00000000000E+00 -0.00000000000E+00 -0.72459807622E+03  0.72459807622E+03  0.00000000000E+00 0. -1.
         -6    2    1    2    0  503 -0.16454177333E+03 -0.27088703692E+03  0.14431044519E+03  0.38777999357E+03  0.17056974198E+03 0.  0.
        -24    2    3    3    0    0 -0.14525870156E+03 -0.14271667774E+03  0.41682519254E+02  0.22238936805E+03  0.79066162952E+02 0.  0.
          6    2    1    2  501    0  0.16454177333E+03  0.27088703692E+03 -0.54890596031E+03  0.65682064376E+03  0.17222608068E+03 0.  0.
         24    2    5    5    0    0  0.13453761585E+03  0.11320337357E+03 -0.23035385669E+03  0.30008275697E+03  0.77919111082E+02 0.  0.
          5    1    5    5  501    0  0.30004157480E+02  0.15768366335E+03 -0.31855210362E+03  0.35673788679E+03  0.47000000000E+01 0. -1.
        -11    1    6    6    0    0 -0.34253179378E+01  0.32054443306E+02 -0.40383449906E+02  0.51672460411E+02  0.00000000000E+00 0.  1.
         12    1    6    6    0    0  0.13796293379E+03  0.81148930264E+02 -0.18997040678E+03  0.24841029656E+03  0.00000000000E+00 0. -1.
         -5    1    3    3    0  503 -0.19283071767E+02 -0.12817035918E+03  0.10262792594E+03  0.16539062552E+03  0.47000000000E+01 0.  1.
         11    1    4    4    0    0 -0.57673663602E+02 -0.29202993079E+02 -0.17974186994E+02  0.67097970731E+02  0.00000000000E+00 0. -1.
        -12    1    4    4    0    0 -0.87585037959E+02 -0.11351368466E+03  0.59656706248E+02  0.15529139732E+03  0.00000000000E+00 0.  1.
</event>
<event>
12    1  0.1035051E+000  0.2440277E+03  0.7818608E-02  0.1117279E+00
         21   -1    0    0  503  502  0.00000000000E+00  0.00000000000E+00  0.37234817798E+03  0.37234817798E+03  0.00000000000E+00 0. -1.
         21   -1    0    0  501  503 -0.00000000000E+00 -0.00000000000E+00 -0.16680248249E+03  0.16680248249E+03  0.00000000000E+00 0. -1.
          6    2    1    2  501    0 -0.15383048484E+03 -0.76816688168E+02  0.45673143609E+02  0.24741660276E+03  0.17194277427E+03 0.  0.
         24    2    3    3    0    0 -0.46472917423E+02 -0.95194240528E+02  0.13335516585E+02  0.13370119556E+03  0.80476693568E+02 0.  0.
         -6    2    1    2    0  502  0.15383048484E+03  0.76816688168E+02  0.15987255188E+03  0.29173405772E+03  0.17316150247E+03 0.  0.
        -24    2    5    5    0    0  0.24191008819E+02  0.76711171832E+02  0.67458018140E+02  0.13245775400E+03  0.80775389773E+02 0.  0.
          5    1    3    3  501    0 -0.10735756742E+03  0.18377552360E+02  0.32337627024E+02  0.11371540720E+03  0.47000000000E+01 0. -1.
        -11    1    4    4    0    0 -0.74626776739E+01  0.90952551975E+01 -0.14749631226E+02  0.18867083677E+02  0.00000000000E+00 0.  1.
         12    1    4    4    0    0 -0.39010239749E+02 -0.10428949573E+03  0.28085147811E+02  0.11483411188E+03  0.00000000000E+00 0. -1.
         -5    1    5    5    0  502  0.12963947602E+03  0.10551633609E+00  0.92414533741E+02  0.15927630371E+03  0.47000000000E+01 0.  1.
         13    1    6    6    0    0  0.83412074581E+01  0.88399766387E+02  0.37012070716E+02  0.96197649752E+02  0.00000000000E+00 0. -1.
        -14    1    6    6    0    0  0.15849801361E+02 -0.11688594555E+02  0.30445947424E+02  0.36260104252E+02  0.00000000000E+00 0.  1.
</event>
<event>
12    1  0.1035051E+000  0.1761949E+03  0.7818608E-02  0.1171972E+00
         21   -1    0    0  501  502  0.00000000000E+00  0.00000000000E+00  0.62975105645E+02  0.62975105645E+02  0.00000000000E+00 0.  1.
         21   -1    0    0  502  503 -0.00000000000E+00 -0.00000000000E+00 -0.48897050455E+03  0.48897050455E+03  0.00000000000E+00 0.  1.
         -6    2    1    2    0  503  0.43464819582E+01  0.37176768360E+02 -0.22344512149E+03  0.28348469546E+03  0.17039614501E+03 0.  0.
        -24    2    3    3    0    0 -0.62947853090E+02  0.19541226609E+02 -0.13786372488E+03  0.17309536035E+03  0.81309934140E+02 0.  0.
          6    2    1    2  501    0 -0.43464819582E+01 -0.37176768360E+02 -0.20255027742E+03  0.26846091473E+03  0.17217329597E+03 0.  0.
         24    2    5    5    0    0  0.28605479776E+02  0.21014628746E+02 -0.48319359620E+02  0.10029035701E+03  0.80395939577E+02 0.  0.
          5    1    5    5  501    0 -0.32951961734E+02 -0.58191397106E+02 -0.15423091780E+03  0.16817055773E+03  0.47000000000E+01 0. -1.
        -13    1    6    6    0    0  0.17979346221E+02  0.21778028142E+02 -0.70356713263E+02  0.75812970536E+02  0.00000000000E+00 0.  1.
         14    1    6    6    0    0  0.10626133555E+02 -0.76339939621E+00  0.22037353643E+02  0.24477386473E+02  0.00000000000E+00 0. -1.
         -5    1    3    3    0  503  0.67294335048E+02  0.17635541751E+02 -0.85581396607E+02  0.11038933512E+03  0.47000000000E+01 0.  1.
         11    1    4    4    0    0 -0.60658627139E+02 -0.99600187951E+01 -0.46551494445E+02  0.77108447371E+02  0.00000000000E+00 0. -1.
        -12    1    4    4    0    0 -0.22892259511E+01  0.29501245404E+02 -0.91312230435E+02  0.95986912977E+02  0.00000000000E+00 0.  1.
</event>
<event>
12    1  0.1035051E+000  0.1797766E+03  0.7818608E-02  0.1169849E+00
         21   -1    0    0  503  502  0.00000000000E+00  0.00000000000E+00  0.29345914718E+03  0.29345914718E+03  0.00000000000E+00 0.  1.
         21   -1    0    0  501  503 -0.00000000000E+00 -0.00000000000E+00 -0.12544098494E+03  0.12544098494E+03  0.00000000000E+00 0.  1.
          6    2    1    2  501    0  0.72744633908E+01 -0.53296952700E+01  0.16568759938E+03  0.23910844506E+03  0.17216022897E+03 0.  0.
         24    2    3    3    0    0 -0.19080085529E+01  0.31002070130E+02  0.19678927175E+02  0.88294197297E+02  0.80273509034E+02 0.  0.
         -6    2    1    2    0  502 -0.72744633908E+01  0.53296952700E+01  0.23305628566E+01  0.17979168706E+03  0.17955025966E+03 0.  0.
        -24    2    5    5    0    0 -0.23192537138E+02  0.74108837796E+02 -0.21470099812E+02  0.10514239328E+03  0.67556969006E+02 0.  0.
          5    1    3    3  501    0  0.91824719437E+01 -0.36331765400E+02  0.14600867221E+03  0.15081424776E+03  0.47000000000E+01 0. -1.
        -13    1    4    4    0    0  0.27316207082E+02  0.19153087371E+02  0.38990900960E+02  0.51315750826E+02  0.00000000000E+00 0.  1.
         14    1    4    4    0    0 -0.29224215635E+02  0.11848982759E+02 -0.19311973785E+02  0.36978446471E+02  0.00000000000E+00 0. -1.
         -5    1    5    5    0  502  0.15918073747E+02 -0.68779142526E+02  0.23800662668E+02  0.74649293780E+02  0.47000000000E+01 0.  1.
         11    1    6    6    0    0 -0.37032550543E+01  0.10945546923E+01  0.19020044775E+02  0.19408097568E+02  0.00000000000E+00 0. -1.
        -12    1    6    6    0    0 -0.19489282083E+02  0.73014283104E+02 -0.40490144587E+02  0.85734295716E+02  0.00000000000E+00 0.  1.
</event>
<event>
12    1  0.1035051E+000  0.3281461E+03  0.7818608E-02  0.1072150E+00
         21   -1    0    0  503  502  0.00000000000E+00  0.00000000000E+00  0.30825323905E+03  0.30825323905E+03  0.00000000000E+00 0.  1.
         21   -1    0    0  501  503 -0.00000000000E+00 -0.00000000000E+00 -0.36095405019E+03  0.36095405019E+03  0.00000000000E+00 0.  1.
          6    2    1    2  501    0 -0.20787008075E+03 -0.18720684617E+03 -0.90839431493E+02  0.33885229369E+03  0.16826378369E+03 0.  0.
         24    2    3    3    0    0 -0.81484513970E+02 -0.58406734938E+02 -0.94001192567E+02  0.15831180827E+03  0.78583278951E+02 0.  0.
         -6    2    1    2    0  502  0.20787008075E+03  0.18720684617E+03  0.38138620352E+02  0.33035499554E+03  0.17153278111E+03 0.  0.
        -24    2    5    5    0    0  0.10582201655E+03  0.96998770045E+02 -0.43485071993E+02  0.17149712965E+03  0.83145976540E+02 0.  0.
          5    1    3    3  501    0 -0.12638556678E+03 -0.12880011123E+03  0.31617610743E+01  0.18054048542E+03  0.47000000000E+01 0. -1.
        -13    1    4    4    0    0 -0.22716159953E+01  0.11776405681E+01  0.12536285714E+02  0.12794746423E+02  0.00000000000E+00 0.  1.
         14    1    4    4    0    0 -0.79212897975E+02 -0.59584375506E+02 -0.10653747828E+03  0.14551706185E+03  0.00000000000E+00 0. -1.
         -5    1    5    5    0  502  0.10204806420E+03  0.90208076126E+02  0.81623692346E+02  0.15885786589E+03  0.47000000000E+01 0.  1.
         11    1    6    6    0    0  0.72768151289E+02  0.10788101640E+03 -0.41720453475E+02  0.13665326114E+03  0.00000000000E+00 0. -1.
        -12    1    6    6    0    0  0.33053865263E+02 -0.10882246353E+02 -0.17646185182E+01  0.34843868514E+02  0.00000000000E+00 0.  1.
</event>
<event>
12    1  0.1035051E+000  0.1776005E+03  0.7818608E-02  0.1170829E+00
         21   -1    0    0  503  502  0.00000000000E+00  0.00000000000E+00  0.13592305018E+03  0.13592305018E+03  0.00000000000E+00 0.  1.
         21   -1    0    0  501  503 -0.00000000000E+00 -0.00000000000E+00 -0.27533606356E+03  0.27533606356E+03  0.00000000000E+00 0.  1.
          6    2    1    2  501    0  0.23860781917E+02 -0.23161224233E+02  0.15576013354E+02  0.17553992554E+03  0.17165626713E+03 0.  0.
         24    2    3    3    0    0  0.76641068814E+02 -0.33407371645E+02  0.26397729853E+02  0.12049501870E+03  0.82657749062E+02 0.  0.
         -6    2    1    2    0  502 -0.23860781917E+02  0.23161224233E+02 -0.15498902673E+03  0.23571918819E+03  0.17445961726E+03 0.  0.
        -24    2    5    5    0    0 -0.71258699210E+02 -0.99401633051E+01 -0.13888705910E+03  0.17552261203E+03  0.79636443217E+02 0.  0.
          5    1    3    3  501    0 -0.52780286896E+02  0.10246147412E+02 -0.10821716499E+02  0.55044906846E+02  0.47000000000E+01 0. -1.
        -13    1    4    4    0    0 -0.16553696017E+02  0.33542142220E+01 -0.87001987048E-02  0.16890105997E+02  0.00000000000E+00 0.  1.
         14    1    4    4    0    0  0.93194764831E+02 -0.36761585867E+02  0.26406430052E+02  0.10360491270E+03  0.00000000000E+00 0. -1.
         -5    1    5    5    0  502  0.47397917293E+02  0.33101387538E+02 -0.16101967633E+02  0.60196576168E+02  0.47000000000E+01 0.  1.
         13    1    6    6    0    0  0.59590795695E+01 -0.11895477355E+01  0.75807106324E+01  0.97155970903E+01  0.00000000000E+00 0. -1.
        -14    1    6    6    0    0 -0.77217778780E+02 -0.87506155697E+01 -0.14646776973E+03  0.16580701494E+03  0.00000000000E+00 0.  1.
</event>
<event>
12    1  0.1035051E+000  0.2383817E+03  0.7818608E-02  0.1121216E+00
         21   -1    0    0  503  502  0.00000000000E+00  0.00000000000E+00  0.76503511016E+02  0.76503511016E+02  0.00000000000E+00 0.  1.
         21   -1    0    0  501  503 -0.00000000000E+00 -0.00000000000E+00 -0.84667468927E+03  0.84667468927E+03  0.00000000000E+00 0.  1.
          6    2    1    2  501    0 -0.10471212796E+03 -0.12323814537E+03 -0.55299681698E+03  0.60218876815E+03  0.17513869554E+03 0.  0.
         24    2    3    3    0    0 -0.88551476193E+02 -0.11000882711E+03 -0.24650123108E+03  0.29494649289E+03  0.79292312162E+02 0.  0.
         -6    2    1    2    0  502  0.10471212796E+03  0.12323814537E+03 -0.21717436127E+03  0.32098943213E+03  0.17238689663E+03 0.  0.
        -24    2    5    5    0    0  0.10460318040E+03  0.48493813066E+02 -0.19938900638E+03  0.24401452758E+03  0.80583115807E+02 0.  0.
          5    1    3    3  501    0 -0.16160651768E+02 -0.13229318263E+02 -0.30649558590E+03  0.30724227526E+03  0.47000000000E+01 0. -1.
        -13    1    4    4    0    0  0.12687679762E+02 -0.77461797066E+00 -0.24739805908E+02  0.27814299328E+02  0.00000000000E+00 0.  1.
         14    1    4    4    0    0 -0.10123915595E+03 -0.10923420914E+03 -0.22176142517E+03  0.26713219356E+03  0.00000000000E+00 0. -1.
         -5    1    5    5    0  502  0.10894756449E+00  0.74744332308E+02 -0.17785354892E+02  0.76974904550E+02  0.47000000000E+01 0.  1.
         11    1    6    6    0    0  0.18080380458E+02 -0.16584792921E+02 -0.75996217741E+02  0.79858503772E+02  0.00000000000E+00 0. -1.
        -12    1    6    6    0    0  0.86522799938E+02  0.65078605987E+02 -0.12339278864E+03  0.16415602381E+03  0.00000000000E+00 0.  1.
</event>
<event>
12    1  0.1035051E+000  0.2183065E+03  0.7818608E-02  0.1135345E+00
         21   -1    0    0  503  502  0.00000000000E+00  0.00000000000E+00  0.74376945982E+03  0.74376945982E+03  0.00000000000E+00 0.  1.
         21   -1    0    0  501  503 -0.00000000000E+00 -0.00000000000E+00 -0.92452032588E+02  0.92452032588E+02  0.00000000000E+00 0. -1.
          6    2    1    2  501    0 -0.44561486621E+01  0.13344380654E+03  0.92275513104E+02  0.23606686212E+03  0.17142253734E+03 0.  0.
         24    2    3    3    0    0 -0.23954867639E+02  0.16069203941E+03  0.90979395735E+02  0.20220779897E+03  0.78835121001E+02 0.  0.
         -6    2    1    2    0  502  0.44561486621E+01 -0.13344380654E+03  0.55904191413E+03  0.60015463029E+03  0.17271540679E+03 0.  0.
        -24    2    5    5    0    0 -0.28410095058E+02 -0.15331029632E+02  0.32084070693E+03  0.33221298897E+03  0.79903296831E+02 0.  0.
          5    1    3    3  501    0  0.19498718977E+02 -0.27248232876E+02  0.12961173689E+01  0.33859063142E+02  0.47000000000E+01 0. -1.
        -13    1    4    4    0    0 -0.49807184431E+02  0.91424482355E+02  0.36329804346E+02  0.11026806554E+03  0.00000000000E+00 0.  1.
         14    1    4    4    0    0  0.25852316792E+02  0.69267557059E+02  0.54649591389E+02  0.91939733431E+02  0.00000000000E+00 0. -1.
         -5    1    5    5    0  502  0.32866243720E+02 -0.11811277691E+03  0.23820120720E+03  0.26794164132E+03  0.47000000000E+01 0.  1.
         11    1    6    6    0    0  0.12046744243E+02  0.10452368327E+02  0.21962498867E+03  0.22020334171E+03  0.00000000000E+00 0. -1.
        -12    1    6    6    0    0 -0.40456839301E+02 -0.25783397959E+02  0.10121571826E+03  0.11200964726E+03  0.00000000000E+00 0.  1.
</event>
<event>
12    1  0.1035051E+000  0.2052320E+03  0.7818608E-02  0.1147228E+00
         21   -1    0    0  503  502  0.00000000000E+00  0.00000000000E+00  0.70373717449E+02  0.70373717449E+02  0.00000000000E+00 0. -1.
         21   -1    0    0  501  503 -0.00000000000E+00 -0.00000000000E+00 -0.62859629699E+03  0.62859629699E+03  0.00000000000E+00 0. -1.
          6    2    1    2  501    0  0.10695704350E+03 -0.20546569912E+02 -0.38835027419E+03  0.43924494428E+03  0.17394888595E+03 0.  0.
         24    2    3    3    0    0  0.47996233327E+02 -0.73836045905E+02 -0.28771225171E+03  0.31092406929E+03  0.78358388162E+02 0.  0.
         -6    2    1    2    0  502 -0.10695704350E+03  0.20546569912E+02 -0.16987230535E+03  0.25972507016E+03  0.16351923818E+03 0.  0.
        -24    2    5    5    0    0 -0.33839397896E+02  0.66707005598E+02 -0.90913803490E+02  0.14253500686E+03  0.80349107453E+02 0.  0.
          5    1    3    3  501    0  0.58960810172E+02  0.53289475993E+02 -0.10063802248E+03  0.12832087499E+03  0.47000000000E+01 0. -1.
        -11    1    4    4    0    0 -0.60011460363E+01 -0.53762125511E+02 -0.18942886419E+03  0.19700171187E+03  0.00000000000E+00 0.  1.
         12    1    4    4    0    0  0.53997379363E+02 -0.20073920394E+02 -0.98283387516E+02  0.11392235742E+03  0.00000000000E+00 0. -1.
         -5    1    5    5    0  502 -0.73117645602E+02 -0.46160435686E+02 -0.78958501860E+02  0.11719006330E+03  0.47000000000E+01 0.  1.
         11    1    6    6    0    0 -0.17175206248E+02 -0.37990689659E+01 -0.62139776205E+02  0.64581517646E+02  0.00000000000E+00 0. -1.
        -12    1    6    6    0    0 -0.16664191649E+02  0.70506074564E+02 -0.28774027284E+02  0.77953489209E+02  0.00000000000E+00 0.  1.
</event>
<event>
12    1  0.1035051E+000  0.2113338E+03  0.7818608E-02  0.1140614E+00
         21   -1    0    0  501  502  0.00000000000E+00  0.00000000000E+00  0.15481040999E+03  0.15481040999E+03  0.00000000000E+00 0. -1.
         21   -1    0    0  502  503 -0.00000000000E+00 -0.00000000000E+00 -0.29905022861E+03  0.29905022861E+03  0.00000000000E+00 0. -1.
         -6    2    1    2    0  503 -0.95921685873E+02 -0.70572746242E+02 -0.28195516694E+02  0.21320639678E+03  0.17458664936E+03 0.  0.
        -24    2    3    3    0    0 -0.34297339618E+02 -0.86239163138E+02 -0.66099769613E+02  0.13903214883E+03  0.79669681196E+02 0.  0.
          6    2    1    2  501    0  0.95921685873E+02  0.70572746242E+02 -0.11604430192E+03  0.24065424182E+03  0.17397327888E+03 0.  0.
         24    2    5    5    0    0  0.10656134859E+03 -0.63463036224E+01 -0.79849662407E+02  0.15485281651E+03  0.78789781141E+02 0.  0.
          5    1    5    5  501    0 -0.10639662716E+02  0.76919049865E+02 -0.36194639517E+02  0.85801425306E+02  0.47000000000E+01 0. -1.
        -11    1    6    6    0    0  0.12152058630E+02 -0.32349537468E+02 -0.17185325013E+02  0.38594047457E+02  0.00000000000E+00 0.  1.
         12    1    6    6    0    0  0.94409289959E+02  0.26003233846E+02 -0.62664337394E+02  0.11625876905E+03  0.00000000000E+00 0. -1.
         -5    1    3    3    0  503 -0.61624346255E+02  0.15666416895E+02  0.37904252920E+02  0.74174247951E+02  0.47000000000E+01 0.  1.
         11    1    4    4    0    0 -0.52025713137E+02 -0.89963691237E+02 -0.52863094677E+02  0.11659608633E+03  0.00000000000E+00 0. -1.
        -12    1    4    4    0    0  0.17728373519E+02  0.37245280995E+01 -0.13236674936E+02  0.22436062501E+02  0.00000000000E+00 0.  1.
</event>
<event>
12    1  0.1035051E+000  0.2357462E+03  0.7818608E-02  0.1122999E+00
         21   -1    0    0  503  502  0.00000000000E+00  0.00000000000E+00  0.63794520018E+03  0.63794520018E+03  0.00000000000E+00 0.  1.
         21   -1    0    0  501  503 -0.00000000000E+00 -0.00000000000E+00 -0.11108384292E+03  0.11108384292E+03  0.00000000000E+00 0.  1.
          6    2    1    2  501    0 -0.47885285156E+02 -0.15395630825E+03  0.43915415534E+03  0.49749606847E+03  0.16926435127E+03 0.  0.
         24    2    3    3    0    0  0.38403416629E+02 -0.51858107880E+02  0.17289921512E+03  0.19953035608E+03  0.75856038942E+02 0.  0.
         -6    2    1    2    0  502  0.47885285156E+02  0.15395630825E+03  0.87707201925E+02  0.25153297463E+03  0.17199051913E+03 0.  0.
        -24    2    5    5    0    0  0.33749260247E+02  0.35170617303E+02 -0.16028219598E+02  0.93125287779E+02  0.77713772986E+02 0.  0.
          5    1    3    3  501    0 -0.86288701786E+02 -0.10209820037E+03  0.26625494021E+03  0.29796571240E+03  0.47000000000E+01 0. -1.
        -13    1    4    4    0    0  0.37189876652E+01  0.19032651949E+02  0.22672306674E+02  0.29834647633E+02  0.00000000000E+00 0.  1.
         14    1    4    4    0    0  0.34684428964E+02 -0.70890759829E+02  0.15022690845E+03  0.16969570844E+03  0.00000000000E+00 0. -1.
         -5    1    5    5    0  502  0.14136024909E+02  0.11878569095E+03  0.10373542152E+03  0.15840768685E+03  0.47000000000E+01 0.  1.
         11    1    6    6    0    0  0.48170208708E+02  0.37418825193E+02  0.11403023078E+02  0.62052932413E+02  0.00000000000E+00 0. -1.
        -12    1    6    6    0    0 -0.14420948461E+02 -0.22482078899E+01 -0.27431242676E+02  0.31072355366E+02  0.00000000000E+00 0.  1.
</event>
<event>
12    1  0.1035051E+000  0.1954020E+03  0.7818608E-02  0.1153838E+00
         21   -1    0    0  503  502  0.00000000000E+00  0.00000000000E+00  0.69227353972E+03  0.69227353972E+03  0.00000000000E+00 0. -1.
         21   -1    0    0  501  503 -0.00000000000E+00 -0.00000000000E+00 -0.72775828306E+02  0.72775828306E+02  0.00000000000E+00 0. -1.
          6    2    1    2  501    0 -0.91176999009E+02  0.14962190438E+02  0.11997538455E+03  0.22866844939E+03  0.17134192294E+03 0.  0.
         24    2    3    3    0    0 -0.81055103926E+01  0.41366908762E+01 -0.63609383886E+01  0.77007577193E+02  0.76202978273E+02 0.  0.
         -6    2    1    2    0  502  0.91176999009E+02 -0.14962190438E+02  0.49952232687E+03  0.53638091864E+03  0.17217671896E+03 0.  0.
        -24    2    5    5    0    0  0.32005116438E+02 -0.62434848533E+02  0.38046511480E+03  0.39513052148E+03  0.80324265526E+02 0.  0.
          5    1    3    3  501    0 -0.83071488617E+02  0.10825499562E+02  0.12633632294E+03  0.15166087219E+03  0.47000000000E+01 0. -1.
        -13    1    4    4    0    0 -0.19852739756E+02 -0.11197842804E+02  0.28897243951E+02  0.36804533243E+02  0.00000000000E+00 0.  1.
         14    1    4    4    0    0  0.11747229363E+02  0.15334533680E+02 -0.35258182340E+02  0.40203043949E+02  0.00000000000E+00 0. -1.
         -5    1    5    5    0  502  0.59171882571E+02  0.47472658094E+02  0.11905721207E+03  0.14125039716E+03  0.47000000000E+01 0.  1.
         11    1    6    6    0    0  0.58615796881E+02 -0.50955207566E+02  0.27820506616E+03  0.28884304329E+03  0.00000000000E+00 0. -1.
        -12    1    6    6    0    0 -0.26610680443E+02 -0.11479640966E+02  0.10226004865E+03  0.10628747819E+03  0.00000000000E+00 0.  1.
</event>
<event>
12    1  0.1035051E+000  0.2060287E+03  0.7818608E-02  0.1144753E+00
         21   -1    0    0  501  502  0.00000000000E+00  0.00000000000E+00  0.10063563350E+03  0.10063563350E+03  0.00000000000E+00 0.  1.
         21   -1    0    0  502  503 -0.00000000000E+00 -0.00000000000E+00 -0.42222919619E+03  0.42222919619E+03  0.00000000000E+00 0.  1.
         -6    2    1    2    0  503 -0.58154963269E+02  0.96278640529E+02 -0.16949188620E+03  0.26678702430E+03  0.17261587549E+03 0.  0.
        -24    2    3    3    0    0 -0.77088142255E+02  0.64161531018E+02 -0.18650977820E+03  0.22553568931E+03  0.77596172911E+02 0.  0.
          6    2    1    2  501    0  0.58154963269E+02 -0.96278640529E+02 -0.15210167649E+03  0.25607780540E+03  0.17259590392E+03 0.  0.
         24    2    5    5    0    0 -0.81714810618E+01 -0.20528307598E+02 -0.12966692499E+03  0.15281736655E+03  0.77791076382E+02 0.  0.
          5    1    5    5  501    0  0.66326444331E+02 -0.75750332931E+02 -0.22434751498E+02  0.10326043885E+03  0.47000000000E+01 0. -1.
        -11    1    6    6    0    0  0.26606379487E+02  0.15472567005E+02 -0.47227478036E+02  0.56371397364E+02  0.00000000000E+00 0.  1.
         12    1    6    6    0    0 -0.34777860548E+02 -0.36000874602E+02 -0.82439446958E+02  0.96445969181E+02  0.00000000000E+00 0. -1.
         -5    1    3    3    0  503  0.18933178985E+02  0.32117109511E+02  0.17017892001E+02  0.41251334984E+02  0.47000000000E+01 0.  1.
         13    1    4    4    0    0 -0.88448092661E+01  0.45971687884E+02 -0.11881904929E+03  0.12770901774E+03  0.00000000000E+00 0. -1.
        -14    1    4    4    0    0 -0.68243332988E+02  0.18189843134E+02 -0.67690728912E+02  0.97826671574E+02  0.00000000000E+00 0.  1.
</event>
<event>
12    1  0.1035051E+000  0.2354001E+03  0.7818608E-02  0.1122963E+00
         21   -1    0    0  503  502  0.00000000000E+00  0.00000000000E+00  0.12637288805E+03  0.12637288805E+03  0.00000000000E+00 0.  1.
         21   -1    0    0  501  503 -0.00000000000E+00 -0.00000000000E+00 -0.58573032496E+03  0.58573032496E+03  0.00000000000E+00 0.  1.
          6    2    1    2  501    0  0.14001667615E+03  0.79296467267E+02 -0.40878169474E+03  0.47171565476E+03  0.17181555712E+03 0.  0.
         24    2    3    3    0    0  0.15252029512E+03  0.10841930997E+03 -0.34221886141E+03  0.39784291800E+03  0.78409508997E+02 0.  0.
         -6    2    1    2    0  502 -0.14001667615E+03 -0.79296467267E+02 -0.50575742164E+02  0.24038755826E+03  0.17127659837E+03 0.  0.
        -24    2    5    5    0    0 -0.12575486964E+03 -0.98554484664E+02  0.55709617041E+01  0.17916000960E+03  0.80870264881E+02 0.  0.
          5    1    3    3  501    0 -0.12503618969E+02 -0.29122842707E+02 -0.66562833334E+02  0.73872736758E+02  0.47000000000E+01 0. -1.
        -13    1    4    4    0    0  0.34053032198E+02  0.39091973535E+02 -0.38590538678E+02  0.64629877551E+02  0.00000000000E+00 0.  1.
         14    1    4    4    0    0  0.11846726292E+03  0.69327336439E+02 -0.30362832273E+03  0.33321304045E+03  0.00000000000E+00 0. -1.
         -5    1    5    5    0  502 -0.14261806508E+02  0.19258017397E+02 -0.56146703868E+02  0.61227548654E+02  0.47000000000E+01 0.  1.
         13    1    6    6    0    0 -0.83290653225E+02 -0.15226490572E+02  0.11498601652E+02  0.85448211038E+02  0.00000000000E+00 0. -1.
        -14    1    6    6    0    0 -0.42464216413E+02 -0.83327994092E+02 -0.59276399480E+01  0.93711798565E+02  0.00000000000E+00 0.  1.
</event>
<event>
12    1  0.1035051E+000  0.2571465E+03  0.7818608E-02  0.1109453E+00
         21   -1    0    0  501  502  0.00000000000E+00  0.00000000000E+00  0.32700024093E+03  0.32700024093E+03  0.00000000000E+00 0.  1.
         21   -1    0    0  502  503 -0.00000000000E+00 -0.00000000000E+00 -0.20341239254E+03  0.20341239254E+03  0.00000000000E+00 0.  1.
         -6    2    1    2    0  503  0.10651745713E+03 -0.15163747483E+03  0.10023539473E+03  0.27599172433E+03  0.17828181371E+03 0.  0.
        -24    2    3    3    0    0  0.83799910017E+02 -0.19557212331E+02  0.18698605714E+02  0.11904708234E+03  0.80110301990E+02 0.  0.
          6    2    1    2  501    0 -0.10651745713E+03  0.15163747483E+03  0.23352453660E+02  0.25442090913E+03  0.17275638763E+03 0.  0.
         24    2    5    5    0    0 -0.25250048396E+02  0.34646918188E+01  0.24405978620E+02  0.85356527133E+02  0.77720755905E+02 0.  0.
          5    1    5    5  501    0 -0.81267408732E+02  0.14817278301E+03 -0.10535249596E+01  0.16906438200E+03  0.47000000000E+01 0. -1.
        -13    1    6    6    0    0 -0.14208858140E+02 -0.13977909337E+01 -0.28080278493E+02  0.31501547730E+02  0.00000000000E+00 0.  1.
         14    1    6    6    0    0 -0.11041190256E+02  0.48624827525E+01  0.52486257113E+02  0.53854979403E+02  0.00000000000E+00 0. -1.
         -5    1    3    3    0  503  0.22717547111E+02 -0.13208026250E+03  0.81536789016E+02  0.15694464199E+03  0.47000000000E+01 0.  1.
         11    1    4    4    0    0  0.17667482486E+02  0.22572405317E+02 -0.16525537546E+02  0.33086958313E+02  0.00000000000E+00 0. -1.
        -12    1    4    4    0    0  0.66132427531E+02 -0.42129617648E+02  0.35224143261E+02  0.85960124027E+02  0.00000000000E+00 0.  1.
</event>
<event>
12    1  0.1035051E+000  0.1858429E+03  0.7818608E-02  0.1162303E+00
         21   -1    0    0  501  502  0.00000000000E+00  0.00000000000E+00  0.13867739142E+03  0.13867739142E+03  0.00000000000E+00 0. -1.
         21   -1    0    0  502  503 -0.00000000000E+00 -0.00000000000E+00 -0.28988615667E+03  0.28988615667E+03  0.00000000000E+00 0. -1.
         -6    2    1    2    0  503 -0.51019684048E+02 -0.51577534505E+02 -0.15621413704E+03  0.24265329068E+03  0.17092253403E+03 0.  0.
        -24    2    3    3    0    0 -0.33945250020E+02 -0.52211947398E+02 -0.18414531995E+03  0.20957490263E+03  0.78318411007E+02 0.  0.
          6    2    1    2  501    0  0.51019684048E+02  0.51577534505E+02  0.50053717802E+01  0.18591025741E+03  0.17109739869E+03 0.  0.
         24    2    5    5    0    0  0.31406407476E+01  0.89083357774E+02  0.32268690263E+02  0.11909358209E+03  0.72085398432E+02 0.  0.
          5    1    5    5  501    0  0.47879043300E+02 -0.37505823269E+02 -0.27263318483E+02  0.66816675322E+02  0.47000000000E+01 0. -1.
        -11    1    6    6    0    0 -0.17353439048E+02  0.55483176991E+02 -0.12523244415E+02  0.59467271894E+02  0.00000000000E+00 0.  1.
         12    1    6    6    0    0  0.20494079796E+02  0.33600180783E+02  0.44791934679E+02  0.59626310196E+02  0.00000000000E+00 0. -1.
         -5    1    3    3    0  503 -0.17074434028E+02  0.63441289304E+00  0.27931182911E+02  0.33078388049E+02  0.47000000000E+01 0.  1.
         13    1    4    4    0    0  0.13189225546E+02  0.13138427144E+02 -0.24733852233E+02  0.30957024803E+02  0.00000000000E+00 0. -1.
        -14    1    4    4    0    0 -0.47134475566E+02 -0.65350374542E+02 -0.15941146772E+03  0.17861787783E+03  0.00000000000E+00 0.  1.
</event>
<event>
12    1  0.1035051E+000  0.1980840E+03  0.7818608E-02  0.1151390E+00
         21   -1    0    0  501  502  0.00000000000E+00  0.00000000000E+00  0.64110618656E+03  0.64110618656E+03  0.00000000000E+00 0.  1.
         21   -1    0    0  502  503 -0.00000000000E+00 -0.00000000000E+00 -0.76848059856E+02  0.76848059856E+02  0.00000000000E+00 0.  1.
         -6    2    1    2    0  503  0.98163126811E+02  0.32300006570E+01  0.11990831252E+03  0.23145243119E+03  0.17188889471E+03 0.  0.
        -24    2    3    3    0    0  0.67457948779E+02  0.50994550741E+02  0.12782686604E+03  0.17392805643E+03  0.82220691257E+02 0.  0.
          6    2    1    2  501    0 -0.98163126811E+02 -0.32300006570E+01  0.44434981418E+03  0.48650181522E+03  0.17201984327E+03 0.  0.
         24    2    5    5    0    0 -0.32216102369E+02  0.83676492772E+01  0.84569608214E+02  0.12051356114E+03  0.79142940175E+02 0.  0.
          5    1    5    5  501    0 -0.65947024442E+02 -0.11597649934E+02  0.35978020597E+03  0.36598825408E+03  0.47000000000E+01 0. -1.
        -11    1    6    6    0    0 -0.14523104343E+02 -0.30344161468E+02  0.65993369085E+02  0.74073027872E+02  0.00000000000E+00 0.  1.
         12    1    6    6    0    0 -0.17692998026E+02  0.38711810745E+02  0.18576239129E+02  0.46440533271E+02  0.00000000000E+00 0. -1.
         -5    1    3    3    0  503  0.30705178032E+02 -0.47764550084E+02 -0.79185535213E+01  0.57524374769E+02  0.47000000000E+01 0.  1.
         11    1    4    4    0    0 -0.34889111732E+01  0.37562755132E+02  0.16364442146E+02  0.41120895431E+02  0.00000000000E+00 0. -1.
        -12    1    4    4    0    0  0.70946859952E+02  0.13431795609E+02  0.11146242390E+03  0.13280716099E+03  0.00000000000E+00 0.  1.
</event>
<event>
12    1  0.1035051E+000  0.2412796E+03  0.7818608E-02  0.1119191E+00
         21   -1    0    0  503  502  0.00000000000E+00  0.00000000000E+00  0.19076455641E+03  0.19076455641E+03  0.00000000000E+00 0.  1.
         21   -1    0    0  501  503 -0.00000000000E+00 -0.00000000000E+00 -0.30479682405E+03  0.30479682405E+03  0.00000000000E+00 0.  1.
          6    2    1    2  501    0  0.16550318638E+03  0.34240896740E+02 -0.74651998278E+02  0.25256435196E+03  0.17219781451E+03 0.  0.
         24    2    3    3    0    0  0.13997913609E+03  0.28446941596E+02 -0.11758819119E+03  0.20206035488E+03  0.81228180318E+02 0.  0.
         -6    2    1    2    0  502 -0.16550318638E+03 -0.34240896740E+02 -0.39380269358E+02  0.24299702851E+03  0.17009705035E+03 0.  0.
        -24    2    5    5    0    0 -0.14702818160E+03 -0.18885685658E+02 -0.82193997102E+02  0.19367955095E+03  0.93712112294E+02 0.  0.
          5    1    3    3  501    0  0.25524050286E+02  0.57939551448E+01  0.42936192912E+02  0.50503997079E+02  0.47000000000E+01 0. -1.
        -13    1    4    4    0    0  0.68704376230E+01  0.96286326036E+01  0.10911012052E+02  0.16092347962E+02  0.00000000000E+00 0.  1.
         14    1    4    4    0    0  0.13310869847E+03  0.18818308992E+02 -0.12849920324E+03  0.18596800691E+03  0.00000000000E+00 0. -1.
         -5    1    5    5    0  502 -0.18475004783E+02 -0.15355211083E+02  0.42813727744E+02  0.49317477555E+02  0.47000000000E+01 0.  1.
         13    1    6    6    0    0 -0.47749679622E+02 -0.40097055205E+02 -0.66142832598E+02  0.90899285169E+02  0.00000000000E+00 0. -1.
        -14    1    6    6    0    0 -0.99278501974E+02  0.21211369547E+02 -0.16051164504E+02  0.10278026578E+03  0.00000000000E+00 0.  1.
</event>
<event>
12    1  0.1035051E+000  0.1729719E+03  0.7818608E-02  0.1177010E+00
         21   -1    0    0  501  502  0.00000000000E+00  0.00000000000E+00  0.15865516205E+03  0.15865516205E+03  0.00000000000E+00 0. -1.
         21   -1    0    0  502  503 -0.00000000000E+00 -0.00000000000E+00 -0.19328443433E+03  0.19328443433E+03  0.00000000000E+00 0. -1.
         -6    2    1    2    0  503  0.14621011256E+02 -0.18104716017E+02  0.30198122376E+02  0.16721856447E+03  0.16281451716E+03 0.  0.
        -24    2    3    3    0    0  0.56290442531E+02  0.23288762185E+02  0.39620988412E+02  0.10754744964E+03  0.79282096578E+02 0.  0.
          6    2    1    2  501    0 -0.14621011256E+02  0.18104716017E+02 -0.64827394656E+02  0.18472103190E+03  0.17139928184E+03 0.  0.
         24    2    5    5    0    0 -0.13956297970E+02  0.33118651566E+01 -0.11004916134E+03  0.13690504647E+03  0.80164999441E+02 0.  0.
          5    1    5    5  501    0 -0.66471328636E+00  0.14792850860E+02  0.45221766681E+02  0.47815985424E+02  0.47000000000E+01 0. -1.
        -13    1    6    6    0    0 -0.34848065642E+02 -0.23877687956E+02 -0.36788913797E+02  0.56017460131E+02  0.00000000000E+00 0.  1.
         14    1    6    6    0    0  0.20891767672E+02  0.27189553113E+02 -0.73260247540E+02  0.80887586344E+02  0.00000000000E+00 0. -1.
         -5    1    3    3    0  503 -0.41669431275E+02 -0.41393478202E+02 -0.94228660352E+01  0.59671114827E+02  0.47000000000E+01 0.  1.
         13    1    4    4    0    0 -0.11334150503E+02  0.29916057012E+02  0.14168134521E+02  0.34988133282E+02  0.00000000000E+00 0. -1.
        -14    1    4    4    0    0  0.67624593034E+02 -0.66272948267E+01  0.25452853890E+02  0.72559316362E+02  0.00000000000E+00 0.  1.
</event>
<event>
12    1  0.1035051E+000  0.2052723E+03  0.7818608E-02  0.1145912E+00
         21   -1    0    0  503  502  0.00000000000E+00  0.00000000000E+00  0.48271394857E+03  0.48271394857E+03  0.00000000000E+00 0. -1.
         21   -1    0    0  501  503 -0.00000000000E+00 -0.00000000000E+00 -0.13276699902E+03  0.13276699902E+03  0.00000000000E+00 0. -1.
          6    2    1    2  501    0 -0.84471235374E+02  0.67947628436E+02  0.35655562595E+03  0.41010231589E+03  0.17117162524E+03 0.  0.
         24    2    3    3    0    0 -0.43165813503E+02  0.45323787038E+02  0.95383811303E+02  0.14467665240E+03  0.88970383633E+02 0.  0.
         -6    2    1    2    0  502  0.84471235374E+02 -0.67947628436E+02 -0.66086764012E+01  0.20537863170E+03  0.17431132476E+03 0.  0.
        -24    2    5    5    0    0 -0.79610076559E+01 -0.72816868126E+02 -0.24517669375E+02  0.11098450542E+03  0.79691721060E+02 0.  0.
          5    1    3    3  501    0 -0.41305421871E+02  0.22623841397E+02  0.26117181465E+03  0.26542566350E+03  0.47000000000E+01 0. -1.
        -13    1    4    4    0    0 -0.54674482752E+02  0.40142397111E+02  0.10754610300E+03  0.12714902823E+03  0.00000000000E+00 0.  1.
         14    1    4    4    0    0  0.11508669249E+02  0.51813899278E+01 -0.12162291699E+02  0.17527624164E+02  0.00000000000E+00 0. -1.
         -5    1    5    5    0  502  0.92432243029E+02  0.48692396901E+01  0.17908992974E+02  0.94394126279E+02  0.47000000000E+01 0.  1.
         11    1    6    6    0    0  0.25572207434E+00  0.90334394560E+01  0.16689371369E+02  0.18979028923E+02  0.00000000000E+00 0. -1.
        -12    1    6    6    0    0 -0.82167297303E+01 -0.81850307582E+02 -0.41207040744E+02  0.92005476498E+02  0.00000000000E+00 0.  1.
</event>
<event>
12    1  0.1035051E+000  0.2779495E+03  0.7818608E-02  0.1097031E+00
         21   -1    0    0  503  502  0.00000000000E+00  0.00000000000E+00  0.11614265846E+04  0.11614265846E+04  0.00000000000E+00 0. -1.
         21   -1    0    0  501  503 -0.00000000000E+00 -0.00000000000E+00 -0.78752434288E+02  0.78752434288E+02  0.00000000000E+00 0. -1.
          6    2    1    2  501    0 -0.13303484128E+03  0.17271671153E+03  0.29193273248E+03  0.40200964884E+03  0.16987556042E+03 0.  0.
         24    2    3    3    0    0 -0.98014378757E+02  0.89108669072E+02  0.26467134616E+03  0.30723617816E+03  0.82437699790E+02 0.  0.
         -6    2    1    2    0  502  0.13303484128E+03 -0.17271671153E+03  0.79074141784E+03  0.83816937006E+03  0.17241395413E+03 0.  0.
        -24    2    5    5    0    0  0.10554410291E+03 -0.19427326851E+03  0.74039776942E+03  0.77671207773E+03  0.78810749306E+02 0.  0.
          5    1    3    3  501    0 -0.35020462525E+02  0.83608042460E+02  0.27261386320E+02  0.94773470674E+02  0.47000000000E+01 0. -1.
        -11    1    4    4    0    0 -0.35338537030E+02  0.85905926343E+02  0.16827371583E+03  0.19220999927E+03  0.00000000000E+00 0.  1.
         12    1    4    4    0    0 -0.62675841728E+02  0.32027427287E+01  0.96397630330E+02  0.11502617889E+03  0.00000000000E+00 0. -1.
         -5    1    5    5    0  502  0.27490738370E+02  0.21556556975E+02  0.50343648418E+02  0.61457292332E+02  0.47000000000E+01 0.  1.
         11    1    6    6    0    0  0.42880772449E+02 -0.36459041105E+02  0.28909177656E+03  0.29452008013E+03  0.00000000000E+00 0. -1.
        -12    1    6    6    0    0  0.62663330463E+02 -0.15781422740E+03  0.45130599286E+03  0.48219199760E+03  0.00000000000E+00 0.  1.
</event>
<event>
12    1  0.1035051E+000  0.2185129E+03  0.7818608E-02  0.1136314E+00
         21   -1    0    0  503  502  0.00000000000E+00  0.00000000000E+00  0.23571970348E+03  0.23571970348E+03  0.00000000000E+00 0. -1.
         21   -1    0    0  501  503 -0.00000000000E+00 -0.00000000000E+00 -0.34350006207E+03  0.34350006207E+03  0.00000000000E+00 0. -1.
          6    2    1    2  501    0 -0.84246312199E+02 -0.91602250330E+02  0.13621937176E+03  0.25167779278E+03  0.17116536084E+03 0.  0.
         24    2    3    3    0    0 -0.54811490723E+01 -0.99467010047E+02  0.57086683805E+02  0.13965155625E+03  0.79498041570E+02 0.  0.
         -6    2    1    2    0  502  0.84246312199E+02  0.91602250330E+02 -0.24399973034E+03  0.32754197277E+03  0.17960919279E+03 0.  0.
        -24    2    5    5    0    0 -0.13921626955E+02  0.88074360872E+02 -0.14385183515E+03  0.18718143276E+03  0.79953946453E+02 0.  0.
          5    1    3    3  501    0 -0.78765163126E+02  0.78647597170E+01  0.79132687952E+02  0.11202623653E+03  0.47000000000E+01 0. -1.
        -13    1    4    4    0    0 -0.28489337300E+02 -0.34356142419E+01  0.12303621827E+02  0.31222185943E+02  0.00000000000E+00 0.  1.
         14    1    4    4    0    0  0.23008188228E+02 -0.96031395805E+02  0.44783061979E+02  0.10842937031E+03  0.00000000000E+00 0. -1.
         -5    1    5    5    0  502  0.98167939153E+02  0.35278894579E+01 -0.10014789519E+03  0.14036054002E+03  0.47000000000E+01 0.  1.
         13    1    6    6    0    0 -0.26575456123E+02 -0.39403274719E+01 -0.30938143897E+02  0.40974989891E+02  0.00000000000E+00 0. -1.
        -14    1    6    6    0    0  0.12653829168E+02  0.92014688344E+02 -0.11291369125E+03  0.14620644287E+03  0.00000000000E+00 0.  1.
</event>
<event>
12    1  0.1035051E+000  0.1832481E+03  0.7818608E-02  0.1165122E+00
         21   -1    0    0  501  502  0.00000000000E+00  0.00000000000E+00  0.50259789711E+02  0.50259789711E+02  0.00000000000E+00 0. -1.
         21   -1    0    0  502  503 -0.00000000000E+00 -0.00000000000E+00 -0.15074253997E+04  0.15074253997E+04  0.00000000000E+00 0. -1.
         -6    2    1    2    0  503 -0.59457509800E+02  0.26774640653E+02 -0.14675186809E+03  0.23476790449E+03  0.17125355861E+03 0.  0.
        -24    2    3    3    0    0  0.15274665367E+02  0.58322378407E+02 -0.38271148131E+02  0.99230771695E+02  0.68900290615E+02 0.  0.
          6    2    1    2  501    0  0.59457509800E+02 -0.26774640653E+02 -0.13104137419E+04  0.13229172849E+04  0.16933366747E+03 0.  0.
         24    2    5    5    0    0  0.48104793020E+02 -0.14157574568E+02 -0.12978262816E+04  0.13012699135E+04  0.80223577599E+02 0.  0.
          5    1    5    5  501    0  0.11352716780E+02 -0.12617066085E+02 -0.12587460288E+02  0.21647371466E+02  0.47000000000E+01 0. -1.
        -11    1    6    6    0    0 -0.49402438187E+01 -0.50602722234E+01 -0.87545201796E+03  0.87548058123E+03  0.00000000000E+00 0.  1.
         12    1    6    6    0    0  0.53045036838E+02 -0.90973023451E+01 -0.42237426365E+03  0.42578933222E+03  0.00000000000E+00 0. -1.
         -5    1    3    3    0  503 -0.74732175167E+02 -0.31547737754E+02 -0.10848071996E+03  0.13553713279E+03  0.47000000000E+01 0.  1.
         11    1    4    4    0    0  0.22800596725E+02  0.37198658998E+02 -0.55754225212E+02  0.70796476404E+02  0.00000000000E+00 0. -1.
        -12    1    4    4    0    0 -0.75259313584E+01  0.21123719409E+02  0.17483077081E+02  0.28434295291E+02  0.00000000000E+00 0.  1.
</event>
<event>
12    1  0.1035051E+000  0.3171115E+03  0.7818608E-02  0.1077015E+00
         21   -1    0    0  503  502  0.00000000000E+00  0.00000000000E+00  0.62142753658E+03  0.62142753658E+03  0.00000000000E+00 0.  1.
         21   -1    0    0  501  503 -0.00000000000E+00 -0.00000000000E+00 -0.16170800174E+03  0.16170800174E+03  0.00000000000E+00 0.  1.
          6    2    1    2  501    0  0.23674220389E+03  0.12091549793E+03  0.23309284907E+03  0.39336716729E+03  0.17244716081E+03 0.  0.
         24    2    3    3    0    0  0.10593029407E+03  0.99036691034E+01  0.49366571392E+02  0.14194557514E+03  0.79951097971E+02 0.  0.
         -6    2    1    2    0  502 -0.23674220389E+03 -0.12091549793E+03  0.22662668577E+03  0.38976837103E+03  0.17289389697E+03 0.  0.
        -24    2    5    5    0    0 -0.10182479370E+03 -0.97799829964E+02  0.18545016513E+03  0.24674866074E+03  0.80994089149E+02 0.  0.
          5    1    3    3  501    0  0.13081190982E+03  0.11101182883E+03  0.18372627768E+03  0.25142159215E+03  0.47000000000E+01 0. -1.
        -13    1    4    4    0    0  0.20919235611E+02  0.26921736058E+02 -0.11538089465E+02  0.35993357712E+02  0.00000000000E+00 0.  1.
         14    1    4    4    0    0  0.85011058463E+02 -0.17018066955E+02  0.60904660856E+02  0.10595221743E+03  0.00000000000E+00 0. -1.
         -5    1    5    5    0  502 -0.13491741020E+03 -0.23115667966E+02  0.41176520638E+02  0.14301971029E+03  0.47000000000E+01 0.  1.
         13    1    6    6    0    0 -0.75315998620E+02 -0.73813825879E+02  0.71723099469E+02  0.12753502866E+03  0.00000000000E+00 0. -1.
        -14    1    6    6    0    0 -0.26508795079E+02 -0.23986004085E+02  0.11372706566E+03  0.11921363208E+03  0.00000000000E+00 0.  1.
</event>
<event>
12    1  0.1035051E+000  0.2183004E+03  0.7818608E-02  0.1135294E+00
         21   -1    0    0  503  502  0.00000000000E+00  0.00000000000E+00  0.77784387114E+03  0.77784387114E+03  0.00000000000E+00 0. -1.
         21   -1    0    0  501  503 -0.00000000000E+00 -0.00000000000E+00 -0.65793942865E+02  0.65793942865E+02  0.00000000000E+00 0.  1.
          6    2    1    2  501    0 -0.30389496752E+02 -0.13129715992E+03  0.24344439789E+03  0.32698662140E+03  0.17173412590E+03 0.  0.
         24    2    3    3    0    0  0.19722048073E+02 -0.13784111213E+03  0.14592117691E+03  0.21704637006E+03  0.80168606772E+02 0.  0.
         -6    2    1    2    0  502  0.30389496752E+02  0.13129715992E+03  0.46860553039E+03  0.51665119260E+03  0.17080645770E+03 0.  0.
        -24    2    5    5    0    0  0.25178363805E+02  0.32781109514E+02  0.34633656737E+03  0.35947499398E+03  0.86975296830E+02 0.  0.
          5    1    3    3  501    0 -0.50111544826E+02  0.65439522127E+01  0.97523220980E+02  0.10994025134E+03  0.47000000000E+01 0. -1.
        -11    1    4    4    0    0  0.44894973128E+02 -0.94937525036E+02  0.12452629869E+03  0.16289718027E+03  0.00000000000E+00 0.  1.
         12    1    4    4    0    0 -0.25172925055E+02 -0.42903587096E+02  0.21394878215E+02  0.54149189794E+02  0.00000000000E+00 0. -1.
         -5    1    5    5    0  502  0.52111329477E+01  0.98516050405E+02  0.12226896302E+03  0.15717619862E+03  0.47000000000E+01 0.  1.
         11    1    6    6    0    0 -0.32633610757E+02  0.11963261040E+02  0.11757613888E+03  0.12260595662E+03  0.00000000000E+00 0. -1.
        -12    1    6    6    0    0  0.57811974562E+02  0.20817848474E+02  0.22876042849E+03  0.23686903736E+03  0.00000000000E+00 0.  1.
</event>
<event>
12    1  0.1035051E+000  0.1774114E+03  0.7818608E-02  0.1170781E+00
         21   -1    0    0  501  502  0.00000000000E+00  0.00000000000E+00  0.11527596686E+03  0.11527596686E+03  0.00000000000E+00 0.  1.
         21   -1    0    0  502  503 -0.00000000000E+00 -0.00000000000E+00 -0.27557334636E+03  0.27557334636E+03  0.00000000000E+00 0.  1.
         -6    2    1    2    0  503 -0.13374737026E+02  0.35816731549E+02 -0.10769216562E+03  0.20753891982E+03  0.17324283204E+03 0.  0.
        -24    2    3    3    0    0  0.34192980007E+02  0.14319810648E+02 -0.59284125769E+00  0.88303184440E+02  0.80142897768E+02 0.  0.
          6    2    1    2  501    0  0.13374737026E+02 -0.35816731549E+02 -0.52605213874E+02  0.18331039340E+03  0.17138748482E+03 0.  0.
         24    2    5    5    0    0  0.33436266035E+01 -0.49836503343E+02 -0.96244491478E+02  0.13615476036E+03  0.82342332518E+02 0.  0.
          5    1    5    5  501    0  0.10031110422E+02  0.14019771794E+02  0.43639277604E+02  0.47155633038E+02  0.47000000000E+01 0. -1.
        -13    1    6    6    0    0 -0.13937522803E+02 -0.68828468553E+02 -0.75814125015E+02  0.10334115432E+03  0.00000000000E+00 0.  1.
         14    1    6    6    0    0  0.17281149406E+02  0.18991965209E+02 -0.20430366463E+02  0.32813606036E+02  0.00000000000E+00 0. -1.
         -5    1    3    3    0  503 -0.47567717033E+02  0.21496920901E+02 -0.10709932436E+03  0.11923573538E+03  0.47000000000E+01 0.  1.
         11    1    4    4    0    0  0.22614017244E+02 -0.30085273034E+02 -0.14529281470E+02  0.40343741144E+02  0.00000000000E+00 0. -1.
        -12    1    4    4    0    0  0.11578962763E+02  0.44405083682E+02  0.13936440212E+02  0.47959443296E+02  0.00000000000E+00 0.  1.
</event>
<event>
12    1  0.1035051E+000  0.1944586E+03  0.7818608E-02  0.1154629E+00
         21   -1    0    0  501  502  0.00000000000E+00  0.00000000000E+00  0.10664940996E+03  0.10664940996E+03  0.00000000000E+00 0. -1.
         21   -1    0    0  502  503 -0.00000000000E+00 -0.00000000000E+00 -0.38952254852E+03  0.38952254852E+03  0.00000000000E+00 0. -1.
         -6    2    1    2    0  503 -0.49221847886E+02  0.75219932696E+02 -0.66181066649E+02  0.20541201275E+03  0.17243356059E+03 0.  0.
        -24    2    3    3    0    0 -0.48347736983E+02  0.39460350221E+02 -0.11008901442E+03  0.14858323759E+03  0.77863755921E+02 0.  0.
          6    2    1    2  501    0  0.49221847886E+02 -0.75219932696E+02 -0.21669207191E+03  0.29075994572E+03  0.17177037993E+03 0.  0.
         24    2    5    5    0    0  0.94232697474E+01  0.26658139596E+02 -0.90736316720E+02  0.12387672097E+03  0.79453813044E+02 0.  0.
          5    1    5    5  501    0  0.39798578139E+02 -0.10187807229E+03 -0.12595575519E+03  0.16688322475E+03  0.47000000000E+01 0. -1.
        -13    1    6    6    0    0  0.23098584100E+02  0.58977234681E+01 -0.95615503617E+02  0.98542641844E+02  0.00000000000E+00 0.  1.
         14    1    6    6    0    0 -0.13675314353E+02  0.20760416128E+02  0.48791868976E+01  0.25334079128E+02  0.00000000000E+00 0. -1.
         -5    1    3    3    0  503 -0.87411090286E+00  0.35759582474E+02  0.43907947774E+02  0.56828775161E+02  0.47000000000E+01 0.  1.
         13    1    4    4    0    0 -0.35951586881E+02 -0.16639078750E+02 -0.28527106070E+02  0.48817735728E+02  0.00000000000E+00 0. -1.
        -14    1    4    4    0    0 -0.12396150103E+02  0.56099428971E+02 -0.81561908353E+02  0.99765501866E+02  0.00000000000E+00 0.  1.
</event>
<event>
12    1  0.1035051E+000  0.4172716E+03  0.7818608E-02  0.1038009E+00
         21   -1    0    0  503  502  0.00000000000E+00  0.00000000000E+00  0.10865500402E+04  0.10865500402E+04  0.00000000000E+00 0. -1.
         21   -1    0    0  501  503 -0.00000000000E+00 -0.00000000000E+00 -0.20493636869E+03  0.20493636869E+03  0.00000000000E+00 0. -1.
          6    2    1    2  501    0  0.36977854878E+03  0.89292136519E+02  0.74341787506E+03  0.85251729779E+03  0.17148278425E+03 0.  0.
         24    2    3    3    0    0  0.23096919190E+03  0.12322737216E+03  0.48757768858E+03  0.55943722547E+03  0.81891721077E+02 0.  0.
         -6    2    1    2    0  502 -0.36977854878E+03 -0.89292136519E+02  0.13819579648E+03  0.43896911111E+03  0.16996041175E+03 0.  0.
        -24    2    5    5    0    0 -0.12485678727E+03 -0.80321378010E+02  0.81815192463E+02  0.18743778845E+03  0.79990360226E+02 0.  0.
          5    1    3    3  501    0  0.13880935688E+03 -0.33935235645E+02  0.25584018648E+03  0.29308007233E+03  0.47000000000E+01 0. -1.
        -11    1    4    4    0    0  0.57805801342E+02  0.43882235396E+01  0.16138134834E+03  0.17147800666E+03  0.00000000000E+00 0.  1.
         12    1    4    4    0    0  0.17316339056E+03  0.11883914862E+03  0.32619634024E+03  0.38795921881E+03  0.00000000000E+00 0. -1.
         -5    1    5    5    0  502 -0.24492176151E+03 -0.89707585098E+01  0.56380604012E+02  0.25153132266E+03  0.47000000000E+01 0.  1.
         13    1    6    6    0    0 -0.13167170574E+03 -0.61701123950E+02  0.58260510240E+02  0.15664850412E+03  0.00000000000E+00 0. -1.
        -14    1    6    6    0    0  0.68149184712E+01 -0.18620254060E+02  0.23554682223E+02  0.30789284332E+02  0.00000000000E+00 0.  1.
</event>
<event>
12    1  0.1035051E+000  0.2844915E+03  0.7818608E-02  0.1093275E+00
         21   -1    0    0  503  502  0.00000000000E+00  0.00000000000E+00  0.74058226572E+03  0.74058226572E+03  0.00000000000E+00 0.  1.
         21   -1    0    0  501  503 -0.00000000000E+00 -0.00000000000E+00 -0.40460341456E+03  0.40460341456E+03  0.00000000000E+00 0.  1.
          6    2    1    2  501    0 -0.22192336377E+03  0.47901287732E+02 -0.32122325202E+03  0.42909183619E+03  0.17143778317E+03 0.  0.
         24    2    3    3    0    0 -0.14114889169E+03 -0.30049289961E+02 -0.15013643944E+03  0.22441258629E+03  0.83630670129E+02 0.  0.
         -6    2    1    2    0  502  0.22192336377E+03 -0.47901287732E+02  0.65720210318E+03  0.71609384410E+03  0.17126376259E+03 0.  0.
        -24    2    5    5    0    0  0.13172343690E+03  0.20951366105E+02  0.26473149737E+03  0.30752074027E+03  0.81830412590E+02 0.  0.
          5    1    3    3  501    0 -0.80774472083E+02  0.77950577693E+02 -0.17108681258E+03  0.20467924990E+03  0.47000000000E+01 0. -1.
        -11    1    4    4    0    0 -0.57366585787E+02 -0.24970927410E+02 -0.11981631061E+03  0.13516812002E+03  0.00000000000E+00 0.  1.
         12    1    4    4    0    0 -0.83782305899E+02 -0.50783625507E+01 -0.30320128828E+02  0.89244466271E+02  0.00000000000E+00 0. -1.
         -5    1    5    5    0  502  0.90199926865E+02 -0.68852653836E+02  0.39247060581E+03  0.40857310383E+03  0.47000000000E+01 0.  1.
         11    1    6    6    0    0  0.12792957041E+03  0.34472800156E+02  0.19094603994E+03  0.23241071211E+03  0.00000000000E+00 0. -1.
        -12    1    6    6    0    0  0.37938664978E+01 -0.13521434052E+02  0.73785457433E+02  0.75110028161E+02  0.00000000000E+00 0.  1.
</event>
<event>
12    1  0.1035051E+000  0.1900144E+03  0.7818608E-02  0.1160047E+00
         21   -1    0    0  503  502  0.00000000000E+00  0.00000000000E+00  0.17350846829E+03  0.17350846829E+03  0.00000000000E+00 0.  1.
         21   -1    0    0  501  503 -0.00000000000E+00 -0.00000000000E+00 -0.67479771760E+03  0.67479771760E+03  0.00000000000E+00 0.  1.
          6    2    1    2  501    0 -0.12684208269E+02  0.59512480264E+02  0.10630516462E+03  0.21169293431E+03  0.17265713413E+03 0.  0.
         24    2    3    3    0    0  0.37707494596E+01 -0.26868396679E+02  0.89869682414E+02  0.12211259824E+03  0.78094798411E+02 0.  0.
         -6    2    1    2    0  502  0.12684208269E+02 -0.59512480264E+02 -0.60759441393E+03  0.63661325158E+03  0.18000787708E+03 0.  0.
        -24    2    5    5    0    0 -0.22183710728E+01 -0.43479126427E+01 -0.12437467773E+03  0.15000394234E+03  0.83715570491E+02 0.  0.
          5    1    3    3  501    0 -0.16454957728E+02  0.86380876943E+02  0.16435482202E+02  0.89580336071E+02  0.47000000000E+01 0. -1.
        -13    1    4    4    0    0 -0.21498668010E+02 -0.43737283353E+02  0.37209774252E+02  0.61316473979E+02  0.00000000000E+00 0.  1.
         14    1    4    4    0    0  0.25269417470E+02  0.16868886674E+02  0.52659908163E+02  0.60796124256E+02  0.00000000000E+00 0. -1.
         -5    1    5    5    0  502  0.14902579342E+02 -0.55164567621E+02 -0.48321973620E+03  0.48660930925E+03  0.47000000000E+01 0.  1.
         11    1    6    6    0    0 -0.13999649402E+02 -0.18617593184E+02 -0.12887226931E+03  0.13096055420E+03  0.00000000000E+00 0. -1.
        -12    1    6    6    0    0  0.11781278329E+02  0.14269680541E+02  0.44975915812E+01  0.19043388140E+02  0.00000000000E+00 0.  1.
</event>
<event>
12    1  0.1035051E+000  0.1931625E+03  0.7818608E-02  0.1156315E+00
         21   -1    0    0  501  502  0.00000000000E+00  0.00000000000E+00  0.19612656281E+03  0.19612656281E+03  0.00000000000E+00 0. -1.
         21   -1    0    0  502  503 -0.00000000000E+00 -0.00000000000E+00 -0.18755606999E+03  0.18755606999E+03  0.00000000000E+00 0. -1.
         -6    2    1    2    0  503 -0.56666313511E+02  0.66367331072E+02 -0.33099385215E+01  0.19015510006E+03  0.16891510490E+03 0.  0.
        -24    2    3    3    0    0 -0.75029963895E+02  0.43416977970E+02  0.50406532509E+02  0.12874262882E+03  0.80742284454E+02 0.  0.
          6    2    1    2  501    0  0.56666313511E+02 -0.66367331072E+02  0.11880431343E+02  0.19352753274E+03  0.17232546985E+03 0.  0.
         24    2    5    5    0    0  0.72114718199E+02 -0.29678695952E+02 -0.47855560112E+02  0.12158875440E+03  0.80076919201E+02 0.  0.
          5    1    5    5  501    0 -0.15448404688E+02 -0.36688635120E+02  0.59735991455E+02  0.71938778343E+02  0.47000000000E+01 0. -1.
        -11    1    6    6    0    0 -0.15543271330E+02  0.32705470692E+01  0.10938548079E+01  0.15921252467E+02  0.00000000000E+00 0.  1.
         12    1    6    6    0    0  0.87657989529E+02 -0.32949243021E+02 -0.48949414920E+02  0.10566750193E+03  0.00000000000E+00 0. -1.
         -5    1    3    3    0  503  0.18363650384E+02  0.22950353102E+02 -0.53716471031E+02  0.61412471233E+02  0.47000000000E+01 0.  1.
         13    1    4    4    0    0 -0.17423320971E+02 -0.19248568365E+02  0.32779858399E+02  0.41816248211E+02  0.00000000000E+00 0. -1.
        -14    1    4    4    0    0 -0.57606642924E+02  0.62665546335E+02  0.17626674110E+02  0.86926380613E+02  0.00000000000E+00 0.  1.
</event>
<event>
12    1  0.1035051E+000  0.2548341E+03  0.7818608E-02  0.1112405E+00
         21   -1    0    0  501  502  0.00000000000E+00  0.00000000000E+00  0.89101185489E+03  0.89101185489E+03  0.00000000000E+00 0. -1.
         21   -1    0    0  502  503 -0.00000000000E+00 -0.00000000000E+00 -0.83001125970E+02  0.83001125970E+02  0.00000000000E+00 0. -1.
         -6    2    1    2    0  503  0.12913858859E+03 -0.11236989697E+03  0.61217832237E+03  0.66310081695E+03  0.18877665706E+03 0.  0.
        -24    2    3    3    0    0  0.19389851061E+02 -0.32174376104E+02  0.10097162233E+03  0.13411075360E+03  0.79870325614E+02 0.  0.
          6    2    1    2  501    0 -0.12913858859E+03  0.11236989697E+03  0.19583240655E+03  0.31091216391E+03  0.17032989581E+03 0.  0.
         24    2    5    5    0    0 -0.60360832721E+02  0.53414449996E+02  0.21850203531E+02  0.11470303722E+03  0.78630921130E+02 0.  0.
          5    1    5    5  501    0 -0.68777755865E+02  0.58955446974E+02  0.17398220302E+03  0.19620912670E+03  0.47000000000E+01 0. -1.
        -13    1    6    6    0    0 -0.90976534524E+00  0.53130960837E+02  0.11153856992E+02  0.54296732850E+02  0.00000000000E+00 0.  1.
         14    1    6    6    0    0 -0.59451067375E+02  0.28348915942E+00  0.10696346540E+02  0.60406304369E+02  0.00000000000E+00 0. -1.
         -5    1    3    3    0  503  0.10974873752E+03 -0.80195520867E+02  0.51120670004E+03  0.52899006334E+03  0.47000000000E+01 0.  1.
         13    1    4    4    0    0 -0.19949454038E+02  0.15548229630E+02  0.20135170653E+02  0.32328830140E+02  0.00000000000E+00 0. -1.
        -14    1    4    4    0    0  0.39339305099E+02 -0.47722605733E+02  0.80836451677E+02  0.10178192346E+03  0.00000000000E+00 0.  1.
</event>
<event>
12    1  0.1035051E+000  0.2164236E+03  0.7818608E-02  0.1136899E+00
         21   -1    0    0  503  502  0.00000000000E+00  0.00000000000E+00  0.90228340591E+02  0.90228340591E+02  0.00000000000E+00 0.  1.
         21   -1    0    0  501  503 -0.00000000000E+00 -0.00000000000E+00 -0.62258559048E+03  0.62258559048E+03  0.00000000000E+00 0.  1.
          6    2    1    2  501    0 -0.10381780918E+03 -0.80504646625E+02 -0.41341091723E+03  0.46585767235E+03  0.16986950510E+03 0.  0.
         24    2    3    3    0    0 -0.13424050526E+03 -0.35296628831E+02 -0.30279538231E+03  0.34245916395E+03  0.79541625340E+02 0.  0.
         -6    2    1    2    0  502  0.10381780918E+03  0.80504646625E+02 -0.11894633266E+03  0.24695625873E+03  0.17198845322E+03 0.  0.
        -24    2    5    5    0    0  0.55041748118E+02  0.10441969443E+03 -0.12959419744E+03  0.19139997494E+03  0.76851986158E+02 0.  0.
          5    1    3    3  501    0  0.30422696078E+02 -0.45208017794E+02 -0.11061553492E+03  0.12339850840E+03  0.47000000000E+01 0. -1.
        -13    1    4    4    0    0 -0.10543725638E+03 -0.26165997514E+02 -0.28993739446E+03  0.30962132867E+03  0.00000000000E+00 0.  1.
         14    1    4    4    0    0 -0.28803248877E+02 -0.91306313167E+01 -0.12857987851E+02  0.32837835277E+02  0.00000000000E+00 0. -1.
         -5    1    5    5    0  502  0.48776061062E+02 -0.23915047801E+02  0.10647864784E+02  0.55556283790E+02  0.47000000000E+01 0.  1.
         13    1    6    6    0    0 -0.17211962118E+02  0.41892953058E+02 -0.42688977989E+02  0.62238412557E+02  0.00000000000E+00 0. -1.
        -14    1    6    6    0    0  0.72253710236E+02  0.62526741368E+02 -0.86905219454E+02  0.12916156238E+03  0.00000000000E+00 0.  1.
</event>
<event>
12    1  0.1035051E+000  0.2435229E+03  0.7818608E-02  0.1118074E+00
         21   -1    0    0  501  502  0.00000000000E+00  0.00000000000E+00  0.10469838168E+03  0.10469838168E+03  0.00000000000E+00 0. -1.
         21   -1    0    0  502  503 -0.00000000000E+00 -0.00000000000E+00 -0.65920824607E+03  0.65920824607E+03  0.00000000000E+00 0. -1.
         -6    2    1    2    0  503  0.75430342705E+02  0.15003058177E+03 -0.42877470895E+03  0.49310357456E+03  0.17636460001E+03 0.  0.
        -24    2    3    3    0    0  0.10360727129E+03  0.68059843593E+02 -0.32940502990E+03  0.36115826643E+03  0.81000066135E+02 0.  0.
          6    2    1    2  501    0 -0.75430342705E+02 -0.15003058177E+03 -0.12573515544E+03  0.27080305319E+03  0.17124851018E+03 0.  0.
         24    2    5    5    0    0 -0.88856362142E+02 -0.93432630227E+02 -0.14526672842E+03  0.20926315996E+03  0.77868724440E+02 0.  0.
          5    1    5    5  501    0  0.13426019437E+02 -0.56597951538E+02  0.19531572982E+02  0.61539893235E+02  0.47000000000E+01 0. -1.
        -13    1    6    6    0    0 -0.26956361389E+02 -0.32461964173E+02 -0.26673719074E+01  0.42279302386E+02  0.00000000000E+00 0.  1.
         14    1    6    6    0    0 -0.61900000753E+02 -0.60970666054E+02 -0.14259935651E+03  0.16698385757E+03  0.00000000000E+00 0. -1.
         -5    1    3    3    0  503 -0.28176928583E+02  0.81970738172E+02 -0.99369679052E+02  0.13194530812E+03  0.47000000000E+01 0.  1.
         13    1    4    4    0    0  0.21776182759E+02 -0.88971329528E+01 -0.13156443289E+03  0.13365089268E+03  0.00000000000E+00 0. -1.
        -14    1    4    4    0    0  0.81831088529E+02  0.76956976546E+02 -0.19784059701E+03  0.22750737376E+03  0.00000000000E+00 0.  1.
</event>
<event>
12    1  0.1035051E+000  0.2995663E+03  0.7818608E-02  0.1085467E+00
         21   -1    0    0  503  502  0.00000000000E+00  0.00000000000E+00  0.19507105024E+03  0.19507105024E+03  0.00000000000E+00 0.  1.
         21   -1    0    0  501  503 -0.00000000000E+00 -0.00000000000E+00 -0.75089349745E+03  0.75089349745E+03  0.00000000000E+00 0.  1.
          6    2    1    2  501    0 -0.64749564266E+02  0.23641279286E+03  0.16535683188E+02  0.29995078147E+03  0.17208581519E+03 0.  0.
         24    2    3    3    0    0  0.26259497459E+02  0.13613949443E+03  0.36521748580E+02  0.16298758750E+03  0.77508660219E+02 0.  0.
         -6    2    1    2    0  502  0.64749564266E+02 -0.23641279286E+03 -0.57235813039E+03  0.64601376622E+03  0.17221045850E+03 0.  0.
        -24    2    5    5    0    0  0.16248397269E+02 -0.68575030190E+02 -0.33242797626E+03  0.34917972734E+03  0.80321711895E+02 0.  0.
          5    1    3    3  501    0 -0.91009061725E+02  0.10027329843E+03 -0.19986065392E+02  0.13696319397E+03  0.47000000000E+01 0. -1.
        -11    1    4    4    0    0  0.23753873369E+02  0.12531078203E+02  0.28399661628E+02  0.39087276722E+02  0.00000000000E+00 0.  1.
         12    1    4    4    0    0  0.25056240900E+01  0.12360841623E+03  0.81220869525E+01  0.12390031078E+03  0.00000000000E+00 0. -1.
         -5    1    5    5    0  502  0.48501166997E+02 -0.16783776267E+03 -0.23993015413E+03  0.29683403888E+03  0.47000000000E+01 0.  1.
         13    1    6    6    0    0 -0.39673277928E+00 -0.83248405576E+02 -0.23667826048E+03  0.25089251366E+03  0.00000000000E+00 0. -1.
        -14    1    6    6    0    0  0.16645130048E+02  0.14673375386E+02 -0.95749715783E+02  0.98287213675E+02  0.00000000000E+00 0.  1.
</event>
<event>
12    1  0.1035051E+000  0.2342413E+03  0.7818608E-02  0.1123755E+00
         21   -1    0    0  501  502  0.00000000000E+00  0.00000000000E+00  0.36161121974E+03  0.36161121974E+03  0.00000000000E+00 0. -1.
         21   -1    0    0  502  503 -0.00000000000E+00 -0.00000000000E+00 -0.17955611980E+03  0.17955611980E+03  0.00000000000E+00 0. -1.
         -6    2    1    2    0  503 -0.12347586500E+03  0.10013890751E+03 -0.16013397388E+02  0.23440990467E+03  0.17151526019E+03 0.  0.
        -24    2    3    3    0    0 -0.36690361376E+02  0.11424607356E+03 -0.20445032095E+02  0.14624831916E+03  0.81069251755E+02 0.  0.
          6    2    1    2  501    0  0.12347586500E+03 -0.10013890751E+03  0.19806849733E+03  0.30675743487E+03  0.17203169526E+03 0.  0.
         24    2    5    5    0    0  0.60001059593E+02 -0.11770128992E+03  0.86012019282E+02  0.17669501727E+03  0.79808150380E+02 0.  0.
          5    1    5    5  501    0  0.63474805409E+02  0.17562382407E+02  0.11205647805E+03  0.13006241759E+03  0.47000000000E+01 0. -1.
        -13    1    6    6    0    0  0.38753568732E+02 -0.24665601978E+02  0.63963472094E+02  0.78749963637E+02  0.00000000000E+00 0.  1.
         14    1    6    6    0    0  0.21247490861E+02 -0.93035687943E+02  0.22048547188E+02  0.97945053638E+02  0.00000000000E+00 0. -1.
         -5    1    3    3    0  503 -0.86785503625E+02 -0.14107166042E+02  0.44316347070E+01  0.88161585509E+02  0.47000000000E+01 0.  1.
         13    1    4    4    0    0 -0.31055260377E+02  0.70495872720E+00 -0.62343017467E+01  0.31682687420E+02  0.00000000000E+00 0. -1.
        -14    1    4    4    0    0 -0.56351009987E+01  0.11354111483E+03 -0.14210730348E+02  0.11456563174E+03  0.00000000000E+00 0.  1.
</event>
<event>
12    1  0.1035051E+000  0.2225554E+03  0.7818608E-02  0.1134579E+00
         21   -1    0    0  503  502  0.00000000000E+00  0.00000000000E+00  0.99703593074E+03  0.99703593074E+03  0.00000000000E+00 0.  1.
         21   -1    0    0  501  503 -0.00000000000E+00 -0.00000000000E+00 -0.51077459782E+02  0.51077459782E+02  0.00000000000E+00 0.  1.
          6    2    1    2  501    0 -0.53854629010E+02 -0.10630960575E+03  0.64025214882E+03  0.67783015050E+03  0.18795969123E+03 0.  0.
         24    2    3    3    0    0  0.21520295513E+02  0.34600522504E+01  0.32751954506E+03  0.33789702691E+03  0.80188860305E+02 0.  0.
         -6    2    1    2    0  502  0.53854629010E+02  0.10630960575E+03  0.30570632214E+03  0.37028324002E+03  0.17161372061E+03 0.  0.
        -24    2    5    5    0    0  0.10124666974E+03  0.44541786113E+02  0.16835520290E+03  0.21233169990E+03  0.67129856244E+02 0.  0.
          5    1    3    3  501    0 -0.75374924523E+02 -0.10976965800E+03  0.31273260376E+03  0.33993312360E+03  0.47000000000E+01 0. -1.
        -11    1    4    4    0    0 -0.21372617242E+01  0.34718605007E+02  0.79197104373E+02  0.86499310762E+02  0.00000000000E+00 0.  1.
         12    1    4    4    0    0  0.23657557237E+02 -0.31258552757E+02  0.24832244069E+03  0.25139771614E+03  0.00000000000E+00 0. -1.
         -5    1    5    5    0  502 -0.47392040725E+02  0.61767819636E+02  0.13735111924E+03  0.15795154011E+03  0.47000000000E+01 0.  1.
         13    1    6    6    0    0  0.27901509444E+02  0.62679932825E+01  0.47365315190E+01  0.28986491679E+02  0.00000000000E+00 0. -1.
        -14    1    6    6    0    0  0.73345160291E+02  0.38273792831E+02  0.16361867138E+03  0.18334520823E+03  0.00000000000E+00 0.  1.
</event>
<event>
12    1  0.1035051E+000  0.5290609E+03  0.7818608E-02  0.1006484E+00
         21   -1    0    0  503  502  0.00000000000E+00  0.00000000000E+00  0.32933405796E+03  0.32933405796E+03  0.00000000000E+00 0.  1.
         21   -1    0    0  501  503 -0.00000000000E+00 -0.00000000000E+00 -0.11190090547E+04  0.11190090547E+04  0.00000000000E+00 0.  1.
          6    2    1    2  501    0  0.30013819866E+03 -0.40020512322E+03 -0.75026155586E+03  0.91781620024E+03  0.17101782443E+03 0.  0.
         24    2    3    3    0    0  0.24659793111E+03 -0.39341844712E+03 -0.63755255329E+03  0.79276409716E+03  0.80081467174E+02 0.  0.
         -6    2    1    2    0  502 -0.30013819866E+03  0.40020512322E+03 -0.39413440838E+02  0.53052691238E+03  0.17221587180E+03 0.  0.
        -24    2    5    5    0    0 -0.26821094152E+03  0.40779053068E+03 -0.27986648280E+02  0.49546197629E+03  0.80430662088E+02 0.  0.
          5    1    3    3  501    0  0.53540267550E+02 -0.67866760922E+01 -0.11270900257E+03  0.12505210307E+03  0.47000000000E+01 0. -1.
        -13    1    4    4    0    0  0.70711912860E+02 -0.97998596002E+02 -0.11216709602E+03  0.16487982553E+03  0.00000000000E+00 0.  1.
         14    1    4    4    0    0  0.17588601825E+03 -0.29541985112E+03 -0.52538545727E+03  0.62788427163E+03  0.00000000000E+00 0. -1.
         -5    1    5    5    0  502 -0.31927257141E+02 -0.75854074639E+01 -0.11426792558E+02  0.35064936092E+02  0.47000000000E+01 0.  1.
         13    1    6    6    0    0 -0.18543477670E+02  0.22894308208E+02  0.17769760716E+02  0.34406021396E+02  0.00000000000E+00 0. -1.
        -14    1    6    6    0    0 -0.24966746385E+03  0.38489622247E+03 -0.45756408996E+02  0.46105595489E+03  0.00000000000E+00 0.  1.
</event>
<event>
12    1  0.1035051E+000  0.3246578E+03  0.7818608E-02  0.1073557E+00
         21   -1    0    0  501  502  0.00000000000E+00  0.00000000000E+00  0.46445685466E+02  0.46445685466E+02  0.00000000000E+00 0.  1.
         21   -1    0    0  502  503 -0.00000000000E+00 -0.00000000000E+00 -0.22886146758E+04  0.22886146758E+04  0.00000000000E+00 0. -1.
         -6    2    1    2    0  503 -0.25634357106E+03 -0.10081705127E+03 -0.10092208188E+04  0.10601553369E+04  0.17183297990E+03 0.  0.
        -24    2    3    3    0    0 -0.84631690673E+02 -0.13035320795E+02 -0.54961846031E+03  0.56171073616E+03  0.78141260184E+02 0.  0.
          6    2    1    2  501    0  0.25634357106E+03  0.10081705127E+03 -0.12329481715E+04  0.12749050244E+04  0.17130535090E+03 0.  0.
         24    2    5    5    0    0  0.26617798279E+03  0.11871432491E+03 -0.11214260501E+04  0.11614312317E+04  0.79889365000E+02 0.  0.
          5    1    5    5  501    0 -0.98344117345E+01 -0.17897273641E+02 -0.11152212144E+03  0.11347379270E+03  0.47000000000E+01 0. -1.
        -11    1    6    6    0    0  0.45021090441E+02  0.49227822085E+02 -0.18246972394E+03  0.19428195286E+03  0.00000000000E+00 0.  1.
         12    1    6    6    0    0  0.22115689235E+03  0.69486502826E+02 -0.93895632615E+03  0.96714927883E+03  0.00000000000E+00 0. -1.
         -5    1    3    3    0  503 -0.17171188039E+03 -0.87781730475E+02 -0.45960235851E+03  0.49844460075E+03  0.47000000000E+01 0.  1.
         13    1    4    4    0    0 -0.59078585275E+02  0.28082915781E+02 -0.26174904531E+03  0.26979898465E+03  0.00000000000E+00 0. -1.
        -14    1    4    4    0    0 -0.25553105398E+02 -0.41118236575E+02 -0.28786941500E+03  0.29191175151E+03  0.00000000000E+00 0.  1.
</event>
<event>
12    1  0.1035051E+000  0.1819460E+03  0.7818608E-02  0.1166718E+00
         21   -1    0    0  501  502  0.00000000000E+00  0.00000000000E+00  0.47070556328E+03  0.47070556328E+03  0.00000000000E+00 0.  1.
         21   -1    0    0  502  503 -0.00000000000E+00 -0.00000000000E+00 -0.95690586328E+02  0.95690586328E+02  0.00000000000E+00 0.  1.
         -6    2    1    2    0  503  0.40688753935E+02 -0.15567927495E+02  0.33563536488E+03  0.38023736011E+03  0.17329574953E+03 0.  0.
        -24    2    3    3    0    0 -0.14288521519E+02  0.45843573583E+02  0.13566716639E+03  0.16389678674E+03  0.78426918726E+02 0.  0.
          6    2    1    2  501    0 -0.40688753935E+02  0.15567927495E+02  0.39379612076E+02  0.18615878950E+03  0.17665334981E+03 0.  0.
         24    2    5    5    0    0  0.20016018083E+02 -0.44794028633E+02  0.35637150823E+02  0.10034077793E+03  0.79944475832E+02 0.  0.
          5    1    5    5  501    0 -0.60704772018E+02  0.60361956127E+02  0.37424612538E+01  0.85818011568E+02  0.47000000000E+01 0. -1.
        -13    1    6    6    0    0 -0.48878865504E+01  0.21973722188E+02  0.75277885304E+01  0.23736122301E+02  0.00000000000E+00 0.  1.
         14    1    6    6    0    0  0.24903904633E+02 -0.66767750821E+02  0.28109362292E+02  0.76604655630E+02  0.00000000000E+00 0. -1.
         -5    1    3    3    0  503  0.54977275454E+02 -0.61411501077E+02  0.19996819849E+03  0.21634057337E+03  0.47000000000E+01 0.  1.
         11    1    4    4    0    0  0.23204375766E+02  0.61048662466E+01  0.88577308579E+02  0.91769559450E+02  0.00000000000E+00 0. -1.
        -12    1    4    4    0    0 -0.37492897286E+02  0.39738707336E+02  0.47089857811E+02  0.72127227288E+02  0.00000000000E+00 0.  1.
</event>
<event>
12    1  0.1035051E+000  0.3851729E+03  0.7818608E-02  0.1049051E+00
         21   -1    0    0  501  502  0.00000000000E+00  0.00000000000E+00  0.10629108504E+04  0.10629108504E+04  0.00000000000E+00 0. -1.
         21   -1    0    0  502  503 -0.00000000000E+00 -0.00000000000E+00 -0.14637850290E+03  0.14637850290E+03  0.00000000000E+00 0. -1.
         -6    2    1    2    0  503  0.25864352229E+03 -0.22758458450E+03  0.58900245557E+03  0.70368672617E+03  0.17192993104E+03 0.  0.
        -24    2    3    3    0    0  0.13605105276E+03 -0.12584465986E+03  0.44677858705E+03  0.49007576056E+03  0.78844009699E+02 0.  0.
          6    2    1    2  501    0 -0.25864352229E+03  0.22758458450E+03  0.32752989188E+03  0.50560262708E+03  0.17224102795E+03 0.  0.
         24    2    5    5    0    0 -0.65800519279E+02  0.13933331656E+03  0.15857640871E+03  0.23441251004E+03  0.77841287397E+02 0.  0.
          5    1    5    5  501    0 -0.19284300301E+03  0.88251267941E+02  0.16895348317E+03  0.27119011704E+03  0.47000000000E+01 0. -1.
        -13    1    6    6    0    0 -0.77504496757E+02  0.10470471728E+03  0.14620857409E+03  0.19582382893E+03  0.00000000000E+00 0.  1.
         14    1    6    6    0    0  0.11703977478E+02  0.34628599277E+02  0.12367834615E+02  0.38588681110E+02  0.00000000000E+00 0. -1.
         -5    1    3    3    0  503  0.12259246954E+03 -0.10173992464E+03  0.14222386852E+03  0.21361096561E+03  0.47000000000E+01 0.  1.
         13    1    4    4    0    0  0.72466696177E+02 -0.16735758273E+02  0.18636421862E+03  0.20065674582E+03  0.00000000000E+00 0. -1.
        -14    1    4    4    0    0  0.63584356580E+02 -0.10910890159E+03  0.26041436843E+03  0.28941901474E+03  0.00000000000E+00 0.  1.
</event>
<event>
12    1  0.1035051E+000  0.4584826E+03  0.7818608E-02  0.1025450E+00
         21   -1    0    0  501  502  0.00000000000E+00  0.00000000000E+00  0.28964711135E+03  0.28964711135E+03  0.00000000000E+00 0. -1.
         21   -1    0    0  502  503 -0.00000000000E+00 -0.00000000000E+00 -0.72098556435E+03  0.72098556435E+03  0.00000000000E+00 0. -1.
         -6    2    1    2    0  503  0.33446215160E+03  0.26238259179E+03 -0.20709314063E+03  0.50024826500E+03  0.16325195988E+03 0.  0.
        -24    2    3    3    0    0  0.12035038961E+03  0.12984397129E+03 -0.40708716256E+02  0.19839366552E+03  0.79744427897E+02 0.  0.
          6    2    1    2  501    0 -0.33446215160E+03 -0.26238259179E+03 -0.22424531236E+03  0.51038441071E+03  0.17174612440E+03 0.  0.
         24    2    5    5    0    0 -0.12039086211E+03 -0.65281669330E+02 -0.13037154261E+03  0.20459090969E+03  0.78134788492E+02 0.  0.
          5    1    5    5  501    0 -0.21407128949E+03 -0.19710092246E+03 -0.93873769750E+02  0.30579350102E+03  0.47000000000E+01 0. -1.
        -11    1    6    6    0    0 -0.12833738875E+03 -0.66219231363E+02 -0.10656557450E+03  0.17947616450E+03  0.00000000000E+00 0.  1.
         12    1    6    6    0    0  0.79465266401E+01  0.93756203309E+00 -0.23805968112E+02  0.25114745190E+02  0.00000000000E+00 0. -1.
         -5    1    3    3    0  503  0.21411176200E+03  0.13253862051E+03 -0.16638442438E+03  0.30185459948E+03  0.47000000000E+01 0.  1.
         13    1    4    4    0    0  0.84038679605E+02  0.45626711189E+02  0.53309236632E+01  0.95774292954E+02  0.00000000000E+00 0. -1.
        -14    1    4    4    0    0  0.36311710001E+02  0.84217260098E+02 -0.46039639919E+02  0.10261937256E+03  0.00000000000E+00 0.  1.
</event>
<event>
12    1  0.1035051E+000  0.2212025E+03  0.7818608E-02  0.1133341E+00
         21   -1    0    0  501  502  0.00000000000E+00  0.00000000000E+00  0.61582841841E+03  0.61582841841E+03  0.00000000000E+00 0.  1.
         21   -1    0    0  502  503 -0.00000000000E+00 -0.00000000000E+00 -0.91278106973E+02  0.91278106973E+02  0.00000000000E+00 0.  1.
         -6    2    1    2    0  503 -0.87314890181E+02  0.10428569902E+03  0.39408459588E+03  0.45192167468E+03  0.17444521852E+03 0.  0.
        -24    2    3    3    0    0 -0.80971149485E+02  0.11379815648E+03  0.40469857896E+03  0.43562822417E+03  0.80527401619E+02 0.  0.
          6    2    1    2  501    0  0.87314890181E+02 -0.10428569902E+03  0.13046571555E+03  0.25518485070E+03  0.17204245995E+03 0.  0.
         24    2    5    5    0    0  0.11975968824E+03 -0.44607436685E+02  0.84438128107E+02  0.17299732900E+03  0.80411889844E+02 0.  0.
          5    1    5    5  501    0 -0.32444798061E+02 -0.59678262340E+02  0.46027587444E+02  0.82187521699E+02  0.47000000000E+01 0. -1.
        -11    1    6    6    0    0 -0.43937374730E+01  0.55389353749E+01  0.25926031556E+02  0.26872734254E+02  0.00000000000E+00 0.  1.
         12    1    6    6    0    0  0.12415342571E+03 -0.50146372059E+02  0.58512096551E+02  0.14612459475E+03  0.00000000000E+00 0. -1.
         -5    1    3    3    0  503 -0.63437406955E+01 -0.95124574510E+01 -0.10613983079E+02  0.16293450511E+02  0.47000000000E+01 0.  1.
         13    1    4    4    0    0 -0.32472908402E+02  0.10745215883E+03  0.27664616250E+03  0.29855243332E+03  0.00000000000E+00 0. -1.
        -14    1    4    4    0    0 -0.48498241083E+02  0.63459976502E+01  0.12805241646E+03  0.13707579084E+03  0.00000000000E+00 0.  1.
</event>
<event>
12    1  0.1035051E+000  0.1972489E+03  0.7818608E-02  0.1152162E+00
         21   -1    0    0  503  502  0.00000000000E+00  0.00000000000E+00  0.81323176709E+03  0.81323176709E+03  0.00000000000E+00 0. -1.
         21   -1    0    0  501  503 -0.00000000000E+00 -0.00000000000E+00 -0.53420818995E+02  0.53420818995E+02  0.00000000000E+00 0. -1.
          6    2    1    2  501    0 -0.86351627641E+02 -0.40719948125E+02  0.23842145015E+03  0.30919931344E+03  0.17217639144E+03 0.  0.
         24    2    3    3    0    0 -0.12243379867E+03 -0.17282623914E+02  0.21156232693E+03  0.25826078449E+03  0.81555444212E+02 0.  0.
         -6    2    1    2    0  502  0.86351627641E+02  0.40719948125E+02  0.52138949794E+03  0.55745327264E+03  0.17260482276E+03 0.  0.
        -24    2    5    5    0    0  0.93619754394E+02 -0.29981540427E+02  0.33289553868E+03  0.35594995051E+03  0.78850341891E+02 0.  0.
          5    1    3    3  501    0  0.36082171027E+02 -0.23437324212E+02  0.26859123215E+02  0.50938528955E+02  0.47000000000E+01 0. -1.
        -11    1    4    4    0    0 -0.97882949106E+02  0.18540138971E+02  0.17553088398E+03  0.20183136453E+03  0.00000000000E+00 0.  1.
         12    1    4    4    0    0 -0.24550849562E+02 -0.35822762885E+02  0.36031442953E+02  0.56429419953E+02  0.00000000000E+00 0. -1.
         -5    1    5    5    0  502 -0.72681267529E+01  0.70701488552E+02  0.18849395926E+03  0.20150332213E+03  0.47000000000E+01 0.  1.
         13    1    6    6    0    0  0.93175886308E+02 -0.27908061148E+02  0.33730946712E+03  0.35105310464E+03  0.00000000000E+00 0. -1.
        -14    1    6    6    0    0  0.44386808601E+00 -0.20734792790E+01 -0.44139284422E+01  0.48968458717E+01  0.00000000000E+00 0.  1.
</event>
<event>
12    1  0.1035051E+000  0.2531451E+03  0.7818608E-02  0.1111715E+00
         21   -1    0    0  501  502  0.00000000000E+00  0.00000000000E+00  0.51572385109E+02  0.51572385109E+02  0.00000000000E+00 0.  1.
         21   -1    0    0  502  503 -0.00000000000E+00 -0.00000000000E+00 -0.15986010671E+04  0.15986010671E+04  0.00000000000E+00 0.  1.
         -6    2    1    2    0  503  0.18293957701E+03 -0.77934405315E+01 -0.38053759131E+03  0.45704627970E+03  0.17479936163E+03 0.  0.
        -24    2    3    3    0    0  0.12123927072E+03 -0.67130085193E+02 -0.29677348695E+03  0.33718686047E+03  0.80094114741E+02 0.  0.
          6    2    1    2  501    0 -0.18293957701E+03  0.77934405315E+01 -0.11664910907E+04  0.11931271725E+04  0.17124064532E+03 0.  0.
         24    2    5    5    0    0 -0.18705748119E+03 -0.16201747752E+02 -0.79272411723E+03  0.81853864275E+03  0.79630306582E+02 0.  0.
          5    1    5    5  501    0  0.41179041788E+01  0.23995188283E+02 -0.37376697344E+03  0.37458852977E+03  0.47000000000E+01 0. -1.
        -11    1    6    6    0    0 -0.96869643957E+02  0.30548983734E+02 -0.36037898890E+03  0.37441952936E+03  0.00000000000E+00 0.  1.
         12    1    6    6    0    0 -0.90187837235E+02 -0.46750731486E+02 -0.43234512834E+03  0.44411911339E+03  0.00000000000E+00 0. -1.
         -5    1    3    3    0  503  0.61700306296E+02  0.59336644661E+02 -0.83764104364E+02  0.11985941922E+03  0.47000000000E+01 0.  1.
         13    1    4    4    0    0  0.45458093082E+02 -0.82003853926E+01 -0.18094744698E+03  0.18675026938E+03  0.00000000000E+00 0. -1.
        -14    1    4    4    0    0  0.75781177636E+02 -0.58929699800E+02 -0.11582603997E+03  0.15043659109E+03  0.00000000000E+00 0.  1.
</event>
<event>
12    1  0.1035051E+000  0.1802818E+03  0.7818608E-02  0.1167750E+00
         21   -1    0    0  501  502  0.00000000000E+00  0.00000000000E+00  0.29749170295E+03  0.29749170295E+03  0.00000000000E+00 0. -1.
         21   -1    0    0  502  503 -0.00000000000E+00 -0.00000000000E+00 -0.16476066875E+03  0.16476066875E+03  0.00000000000E+00 0. -1.
         -6    2    1    2    0  503  0.28205767037E+02  0.46323308970E+02  0.20129173718E+03  0.27022194797E+03  0.17193057744E+03 0.  0.
        -24    2    3    3    0    0 -0.19078515640E+00  0.90211940005E+02  0.10117584002E+03  0.15718275576E+03  0.79571587810E+02 0.  0.
          6    2    1    2  501    0 -0.28205767037E+02 -0.46323308970E+02 -0.68560702979E+02  0.19203042373E+03  0.17097865187E+03 0.  0.
         24    2    5    5    0    0 -0.11179259985E+02 -0.95762527381E+02 -0.32716171356E+02  0.12846110167E+03  0.78335619418E+02 0.  0.
          5    1    5    5  501    0 -0.17026507052E+02  0.49439218410E+02 -0.35844531623E+02  0.63569322056E+02  0.47000000000E+01 0. -1.
        -11    1    6    6    0    0 -0.23851874033E+02 -0.50106107602E+02 -0.53168214541E+02  0.76853060781E+02  0.00000000000E+00 0.  1.
         12    1    6    6    0    0  0.12672614048E+02 -0.45656419778E+02  0.20452043185E+02  0.51608040887E+02  0.00000000000E+00 0. -1.
         -5    1    3    3    0  503  0.28396552194E+02 -0.43888631034E+02  0.10011589716E+03  0.11303919221E+03  0.47000000000E+01 0.  1.
         11    1    4    4    0    0  0.37601125667E+02  0.59469587760E+02  0.70555354324E+02  0.99642032013E+02  0.00000000000E+00 0. -1.
        -12    1    4    4    0    0 -0.37791910824E+02  0.30742352244E+02  0.30620485693E+02  0.57540723747E+02  0.00000000000E+00 0.  1.
</event>
<event>
12    1  0.1035051E+000  0.2326336E+03  0.7818608E-02  0.1125059E+00
         21   -1    0    0  503  502  0.00000000000E+00  0.00000000000E+00  0.37631840367E+03  0.37631840367E+03  0.00000000000E+00 0.  1.
         21   -1    0    0  501  503 -0.00000000000E+00 -0.00000000000E+00 -0.14311009694E+03  0.14311009694E+03  0.00000000000E+00 0.  1.
          6    2    1    2  501    0  0.11856670908E+03 -0.10207987103E+03  0.10608277843E+03  0.25432611405E+03  0.17014655987E+03 0.  0.
         24    2    3    3    0    0  0.14941287747E+01 -0.75535417333E+02  0.68652001692E+02  0.12849388396E+03  0.78036845051E+02 0.  0.
         -6    2    1    2    0  502 -0.11856670908E+03  0.10207987103E+03  0.12712552830E+03  0.26510238657E+03  0.17216274524E+03 0.  0.
        -24    2    5    5    0    0 -0.20614764257E+02 -0.25293532327E+01  0.16298617095E+02  0.83877753746E+02  0.79614486880E+02 0.  0.
          5    1    3    3  501    0  0.11707258031E+03 -0.26544453692E+02  0.37430776743E+02  0.12583223009E+03  0.47000000000E+01 0. -1.
        -13    1    4    4    0    0  0.24906353036E+02  0.82521437151E+00  0.32154644397E+02  0.40680813126E+02  0.00000000000E+00 0.  1.
         14    1    4    4    0    0 -0.23412224261E+02 -0.76360631705E+02  0.36497357295E+02  0.87813070831E+02  0.00000000000E+00 0. -1.
         -5    1    5    5    0  502 -0.97951944825E+02  0.10460922426E+03  0.11082691120E+03  0.18122463282E+03  0.47000000000E+01 0.  1.
         13    1    6    6    0    0  0.78767579834E+01  0.26234093745E+02  0.30480701958E+02  0.40979802132E+02  0.00000000000E+00 0. -1.
        -14    1    6    6    0    0 -0.28491522241E+02 -0.28763446978E+02 -0.14182084863E+02  0.42897951614E+02  0.00000000000E+00 0.  1.
</event>
<event>
12    1  0.1035051E+000  0.4393199E+03  0.7818608E-02  0.1030965E+00
         21   -1    0    0  503  502  0.00000000000E+00  0.00000000000E+00  0.88604691819E+03  0.88604691819E+03  0.00000000000E+00 0.  1.
         21   -1    0    0  501  503 -0.00000000000E+00 -0.00000000000E+00 -0.22142228759E+03  0.22142228759E+03  0.00000000000E+00 0.  1.
          6    2    1    2  501    0 -0.16293781412E+03 -0.37004830134E+03  0.40357065184E+03  0.59654947777E+03  0.17180666982E+03 0.  0.
         24    2    3    3    0    0 -0.22599863065E+02 -0.18395529897E+03  0.22870977323E+03  0.30513265789E+03  0.80296156259E+02 0.  0.
         -6    2    1    2    0  502  0.16293781412E+03  0.37004830134E+03  0.26105397875E+03  0.51091972801E+03  0.17147977156E+03 0.  0.
        -24    2    5    5    0    0  0.14197992033E+02  0.89708433015E+02  0.57590700378E+02  0.13391392952E+03  0.79793895875E+02 0.  0.
          5    1    3    3  501    0 -0.14033795105E+03 -0.18609300237E+03  0.17486087862E+03  0.29141681988E+03  0.47000000000E+01 0. -1.
        -11    1    4    4    0    0  0.55912931921E+01 -0.11902828911E+03  0.89730101840E+02  0.14916597247E+03  0.00000000000E+00 0.  1.
         12    1    4    4    0    0 -0.28191156258E+02 -0.64927009868E+02  0.13897967139E+03  0.15596668542E+03  0.00000000000E+00 0. -1.
         -5    1    5    5    0  502  0.14873982208E+03  0.28033986833E+03  0.20346327837E+03  0.37700579849E+03  0.47000000000E+01 0.  1.
         11    1    6    6    0    0  0.19653471783E+02  0.77236139422E+02  0.52924632680E+01  0.79872963845E+02  0.00000000000E+00 0. -1.
        -12    1    6    6    0    0 -0.54554797496E+01  0.12472293593E+02  0.52298237110E+02  0.54040965679E+02  0.00000000000E+00 0.  1.
</event>
<event>
12    1  0.1035051E+000  0.1889466E+03  0.7818608E-02  0.1161741E+00
         21   -1    0    0  503  502  0.00000000000E+00  0.00000000000E+00  0.99140601027E+02  0.99140601027E+02  0.00000000000E+00 0.  1.
         21   -1    0    0  501  503 -0.00000000000E+00 -0.00000000000E+00 -0.39867939190E+03  0.39867939190E+03  0.00000000000E+00 0.  1.
          6    2    1    2  501    0 -0.25703696054E+02  0.71359784389E+02 -0.24062905097E+03  0.29990292048E+03  0.16213118986E+03 0.  0.
         24    2    3    3    0    0 -0.19549878420E+02  0.57217582952E+02 -0.55351774281E+02  0.11392542026E+03  0.79114682079E+02 0.  0.
         -6    2    1    2    0  502  0.25703696054E+02 -0.71359784389E+02 -0.58909739906E+02  0.19791707244E+03  0.17305464828E+03 0.  0.
        -24    2    5    5    0    0  0.73366127506E+02 -0.61594080903E+02 -0.76214414476E+02  0.14606518628E+03  0.79686775579E+02 0.  0.
          5    1    3    3  501    0 -0.61538176344E+01  0.14142201437E+02 -0.18527727669E+03  0.18597750022E+03  0.47000000000E+01 0. -1.
        -11    1    4    4    0    0  0.17273816242E+00 -0.19246818844E+02 -0.18813088268E+02  0.26914720215E+02  0.00000000000E+00 0.  1.
         12    1    4    4    0    0 -0.19722616582E+02  0.76464401796E+02 -0.36538686013E+02  0.87010700046E+02  0.00000000000E+00 0. -1.
         -5    1    5    5    0  502 -0.47662431451E+02 -0.97657034863E+01  0.17304674571E+02  0.51851886161E+02  0.47000000000E+01 0.  1.
         13    1    6    6    0    0  0.11861656318E+02 -0.85196569448E+00  0.15826079156E+02  0.19796199575E+02  0.00000000000E+00 0. -1.
        -14    1    6    6    0    0  0.61504471188E+02 -0.60742115209E+02 -0.92040493632E+02  0.12626898671E+03  0.00000000000E+00 0.  1.
</event>
<event>
12    1  0.1035051E+000  0.2885188E+03  0.7818608E-02  0.1091208E+00
         21   -1    0    0  503  502  0.00000000000E+00  0.00000000000E+00  0.35290776787E+03  0.35290776787E+03  0.00000000000E+00 0. -1.
         21   -1    0    0  501  503 -0.00000000000E+00 -0.00000000000E+00 -0.24463324833E+03  0.24463324833E+03  0.00000000000E+00 0.  1.
          6    2    1    2  501    0  0.21628509056E+03  0.80898512813E+02 -0.40914783267E+01  0.28791349698E+03  0.17191169761E+03 0.  0.
         24    2    3    3    0    0  0.15025536533E+03  0.27919756820E+02 -0.63269664375E+02  0.18451707101E+03  0.81775983215E+02 0.  0.
         -6    2    1    2    0  502 -0.21628509056E+03 -0.80898512813E+02  0.11236599787E+03  0.30962751921E+03  0.17297188616E+03 0.  0.
        -24    2    5    5    0    0 -0.20194939211E+03 -0.14404039354E+02  0.10282434997E+03  0.24077869718E+03  0.80065602757E+02 0.  0.
          5    1    3    3  501    0  0.66029725229E+02  0.52978755992E+02  0.59178186048E+02  0.10339642597E+03  0.47000000000E+01 0. -1.
        -13    1    4    4    0    0  0.15676501352E+03  0.38022204941E+02 -0.59126962759E+02  0.17180499194E+03  0.00000000000E+00 0.  1.
         14    1    4    4    0    0 -0.65096481824E+01 -0.10102448121E+02 -0.41427016160E+01  0.12712079066E+02  0.00000000000E+00 0. -1.
         -5    1    5    5    0  502 -0.14335698456E+02 -0.66494473459E+02  0.95416478953E+01  0.68848822033E+02  0.47000000000E+01 0.  1.
         13    1    6    6    0    0 -0.76830503747E+02 -0.11612724247E+02  0.83644762653E+02  0.11416754350E+03  0.00000000000E+00 0. -1.
        -14    1    6    6    0    0 -0.12511888836E+03 -0.27913151069E+01  0.19179587317E+02  0.12661115367E+03  0.00000000000E+00 0.  1.
</event>
<event>
12    1  0.1035051E+000  0.2487796E+03  0.7818608E-02  0.1114275E+00
         21   -1    0    0  503  502  0.00000000000E+00  0.00000000000E+00  0.90692587230E+02  0.90692587230E+02  0.00000000000E+00 0.  1.
         21   -1    0    0  501  503 -0.00000000000E+00 -0.00000000000E+00 -0.98991364323E+03  0.98991364323E+03  0.00000000000E+00 0. -1.
          6    2    1    2  501    0  0.43848137903E+02  0.17283504394E+03 -0.14759893085E+03  0.28926933857E+03  0.17348398842E+03 0.  0.
         24    2    3    3    0    0 -0.20185536578E+00  0.69489000961E+02  0.33998885456E+01  0.10100479075E+03  0.73223264833E+02 0.  0.
         -6    2    1    2    0  502 -0.43848137903E+02 -0.17283504394E+03 -0.75162212515E+03  0.79133689189E+03  0.17170802497E+03 0.  0.
        -24    2    5    5    0    0 -0.84292532944E+01 -0.86716140748E+02 -0.60878717871E+03  0.62076469370E+03  0.84476236866E+02 0.  0.
          5    1    3    3  501    0  0.44049993269E+02  0.10334604298E+03 -0.15099881939E+03  0.18826454781E+03  0.47000000000E+01 0. -1.
        -13    1    4    4    0    0  0.83755080925E+00 -0.15638318907E+02 -0.14857612138E+01  0.15731051966E+02  0.00000000000E+00 0.  1.
         14    1    4    4    0    0 -0.10394061750E+01  0.85127319867E+02  0.48856497594E+01  0.85273738786E+02  0.00000000000E+00 0. -1.
         -5    1    5    5    0  502 -0.35418884608E+02 -0.86118903189E+02 -0.14283494644E+03  0.17057219820E+03  0.47000000000E+01 0.  1.
         13    1    6    6    0    0  0.14910046742E+02  0.11795517479E+02 -0.13074737628E+03  0.13212236802E+03  0.00000000000E+00 0. -1.
        -14    1    6    6    0    0 -0.23339300037E+02 -0.98511658227E+02 -0.47803980243E+03  0.48864232568E+03  0.00000000000E+00 0.  1.
</event>
<event>
12    1  0.1035051E+000  0.4426933E+03  0.7818608E-02  0.1030015E+00
         21   -1    0    0  501  502  0.00000000000E+00  0.00000000000E+00  0.29701070460E+03  0.29701070460E+03  0.00000000000E+00 0. -1.
         21   -1    0    0  502  503 -0.00000000000E+00 -0.00000000000E+00 -0.12845568274E+04  0.12845568274E+04  0.00000000000E+00 0. -1.
         -6    2    1    2    0  503  0.25612536192E+03  0.31794902711E+03  0.58831482413E+02  0.44539701437E+03  0.16800467918E+03 0.  0.
        -24    2    3    3    0    0  0.19467432657E+03  0.28481062640E+03  0.93677337935E+02  0.36722600316E+03  0.84049434346E+02 0.  0.
          6    2    1    2  501    0 -0.25612536192E+03 -0.31794902711E+03 -0.10463776052E+04  0.11361705176E+04  0.17113026500E+03 0.  0.
         24    2    5    5    0    0 -0.14181160434E+03 -0.17970260364E+03 -0.76453551022E+03  0.80204963339E+03  0.79784153587E+02 0.  0.
          5    1    5    5  501    0 -0.11431375758E+03 -0.13824642347E+03 -0.28184209496E+03  0.33412088421E+03  0.47000000000E+01 0. -1.
        -11    1    6    6    0    0 -0.96052027364E+01 -0.66047427397E+02 -0.17584638797E+03  0.18808634917E+03  0.00000000000E+00 0.  1.
         12    1    6    6    0    0 -0.13220640160E+03 -0.11365517625E+03 -0.58868912225E+03  0.61396328422E+03  0.00000000000E+00 0. -1.
         -5    1    3    3    0  503  0.61451035350E+02  0.33138400705E+02 -0.34845855522E+02  0.78171011212E+02  0.47000000000E+01 0.  1.
         11    1    4    4    0    0  0.38395326548E+02  0.12835387941E+02  0.24786865229E+01  0.40559735837E+02  0.00000000000E+00 0. -1.
        -12    1    4    4    0    0  0.15627900002E+03  0.27197523846E+03  0.91198651412E+02  0.32666626732E+03  0.00000000000E+00 0.  1.
</event>
<event>
12    1  0.1035051E+000  0.1994180E+03  0.7818608E-02  0.1150393E+00
         21   -1    0    0  503  502  0.00000000000E+00  0.00000000000E+00  0.87781830935E+03  0.87781830935E+03  0.00000000000E+00 0. -1.
         21   -1    0    0  501  503 -0.00000000000E+00 -0.00000000000E+00 -0.45142460341E+02  0.45142460341E+02  0.00000000000E+00 0. -1.
          6    2    1    2  501    0  0.65333604028E+02  0.73167017620E+02  0.42344039428E+03  0.46772325262E+03  0.17274658103E+03 0.  0.
         24    2    3    3    0    0  0.13913850643E+02  0.10201175737E+03  0.35556545495E+03  0.37769488244E+03  0.75010916444E+02 0.  0.
         -6    2    1    2    0  502 -0.65333604028E+02 -0.73167017620E+02  0.40923545473E+03  0.45523751707E+03  0.17362501909E+03 0.  0.
        -24    2    5    5    0    0 -0.25803799736E+02 -0.13410697884E+02  0.35581776865E+03  0.36574471087E+03  0.79480979729E+02 0.  0.
          5    1    3    3  501    0  0.51419753386E+02 -0.28844739747E+02  0.67874939323E+02  0.90028370181E+02  0.47000000000E+01 0. -1.
        -11    1    4    4    0    0  0.34014320733E+02  0.75014105900E+02  0.31173009164E+03  0.32242788361E+03  0.00000000000E+00 0.  1.
         12    1    4    4    0    0 -0.20100470090E+02  0.26997651466E+02  0.43835363319E+02  0.55266998832E+02  0.00000000000E+00 0. -1.
         -5    1    5    5    0  502 -0.39529804292E+02 -0.59756319736E+02  0.53417686077E+02  0.89492806201E+02  0.47000000000E+01 0.  1.
         13    1    6    6    0    0 -0.30651272727E+02  0.28690814492E+02  0.16247824763E+03  0.16781491087E+03  0.00000000000E+00 0. -1.
        -14    1    6    6    0    0  0.48474729913E+01 -0.42101512375E+02  0.19333952102E+03  0.19792980000E+03  0.00000000000E+00 0.  1.
</event>
<event>
12    1  0.1035051E+000  0.2295801E+03  0.7818608E-02  0.1127064E+00
         21   -1    0    0  503  502  0.00000000000E+00  0.00000000000E+00  0.59601726316E+03  0.59601726316E+03  0.00000000000E+00 0.  1.
         21   -1    0    0  501  503 -0.00000000000E+00 -0.00000000000E+00 -0.37144556750E+03  0.37144556750E+03  0.00000000000E+00 0.  1.
          6    2    1    2  501    0 -0.15066339874E+03 -0.16440556798E+02  0.53477720189E+03  0.58197394113E+03  0.17244495025E+03 0.  0.
         24    2    3    3    0    0 -0.86080592237E+02 -0.44488332322E+02  0.46925211801E+03  0.48567626087E+03  0.79339775877E+02 0.  0.
         -6    2    1    2    0  502  0.15066339874E+03  0.16440556798E+02 -0.31020550624E+03  0.38548888953E+03  0.17147733442E+03 0.  0.
        -24    2    5    5    0    0  0.72856655863E+02  0.70292460785E+02 -0.14011268755E+03  0.19079021523E+03  0.80747870997E+02 0.  0.
          5    1    3    3  501    0 -0.64582806501E+02  0.28047775524E+02  0.65525083880E+02  0.96297680267E+02  0.47000000000E+01 0. -1.
        -11    1    4    4    0    0  0.10162328315E+02 -0.21652961235E+02  0.58914864349E+02  0.63585256847E+02  0.00000000000E+00 0.  1.
         12    1    4    4    0    0 -0.96242920553E+02 -0.22835371088E+02  0.41033725366E+03  0.42209100402E+03  0.00000000000E+00 0. -1.
         -5    1    5    5    0  502  0.77806742875E+02 -0.53851903986E+02 -0.17009281869E+03  0.19469867429E+03  0.47000000000E+01 0.  1.
         13    1    6    6    0    0  0.93334241125E+01  0.63993202541E+02 -0.82286372287E+02  0.10465796597E+03  0.00000000000E+00 0. -1.
        -14    1    6    6    0    0  0.63523231751E+02  0.62992582441E+01 -0.57826315261E+02  0.86132249263E+02  0.00000000000E+00 0.  1.
</event>
<event>
12    1  0.1035051E+000  0.2381142E+03  0.7818608E-02  0.1121291E+00
         21   -1    0    0  501  502  0.00000000000E+00  0.00000000000E+00  0.49023164730E+03  0.49023164730E+03  0.00000000000E+00 0. -1.
         21   -1    0    0  502  503 -0.00000000000E+00 -0.00000000000E+00 -0.11537120223E+03  0.11537120223E+03  0.00000000000E+00 0. -1.
         -6    2    1    2    0  503 -0.14935080775E+03  0.67261316264E+02  0.16923892348E+03  0.29099425747E+03  0.17089791169E+03 0.  0.
        -24    2    3    3    0    0 -0.16374331480E+03  0.87120520174E+02  0.11576022951E+03  0.23197228742E+03  0.77516793148E+02 0.  0.
          6    2    1    2  501    0  0.14935080775E+03 -0.67261316264E+02  0.20562152159E+03  0.31460859206E+03  0.17282536741E+03 0.  0.
         24    2    5    5    0    0  0.15449266719E+03 -0.10141214478E+03  0.16996037420E+03  0.26474352173E+03  0.83965446299E+02 0.  0.
          5    1    5    5  501    0 -0.51418594390E+01  0.34150828519E+02  0.35661147382E+02  0.49865070336E+02  0.47000000000E+01 0. -1.
        -11    1    6    6    0    0  0.93918821479E+02 -0.55074898459E+02  0.43868143373E+02  0.11738144432E+03  0.00000000000E+00 0.  1.
         12    1    6    6    0    0  0.60573845710E+02 -0.46337246323E+02  0.12609223083E+03  0.14736207740E+03  0.00000000000E+00 0. -1.
         -5    1    3    3    0  503  0.14392507050E+02 -0.19859203911E+02  0.53478693974E+02  0.59021970047E+02  0.47000000000E+01 0.  1.
         13    1    4    4    0    0 -0.13913933458E+03  0.37795952054E+02  0.69721482243E+02  0.16015421788E+03  0.00000000000E+00 0. -1.
        -14    1    4    4    0    0 -0.24603980218E+02  0.49324568120E+02  0.46038747267E+02  0.71818069542E+02  0.00000000000E+00 0.  1.
</event>
<event>
12    1  0.1035051E+000  0.1794908E+03  0.7818608E-02  0.1168671E+00
         21   -1    0    0  501  502  0.00000000000E+00  0.00000000000E+00  0.32192987857E+02  0.32192987857E+02  0.00000000000E+00 0.  1.
         21   -1    0    0  502  503 -0.00000000000E+00 -0.00000000000E+00 -0.10482487407E+04  0.10482487407E+04  0.00000000000E+00 0.  1.
         -6    2    1    2    0  503 -0.29690571077E+02 -0.38367439504E+02 -0.38105651160E+03  0.42056221352E+03  0.17121600389E+03 0.  0.
        -24    2    3    3    0    0  0.44571908450E+02  0.47633074212E+01 -0.27385085186E+03  0.28312015054E+03  0.56155021680E+02 0.  0.
          6    2    1    2  501    0  0.29690571077E+02  0.38367439504E+02 -0.63499924125E+03  0.65987951504E+03  0.17281014888E+03 0.  0.
         24    2    5    5    0    0 -0.28407011974E+02  0.42837857085E+02 -0.53563876774E+03  0.54459765400E+03  0.83878930022E+02 0.  0.
          5    1    5    5  501    0  0.58097583052E+02 -0.44704175804E+01 -0.99360473506E+02  0.11528186104E+03  0.47000000000E+01 0. -1.
        -11    1    6    6    0    0 -0.28281314008E+02 -0.51948523451E+01 -0.39376312765E+03  0.39481162586E+03  0.00000000000E+00 0.  1.
         12    1    6    6    0    0 -0.12569796637E+00  0.48032709430E+02 -0.14187564009E+03  0.14978602814E+03  0.00000000000E+00 0. -1.
         -5    1    3    3    0  503 -0.74262479527E+02 -0.43130746926E+02 -0.10720565974E+03  0.13744206298E+03  0.47000000000E+01 0.  1.
         13    1    4    4    0    0  0.86440028533E+01  0.25927532200E+02 -0.14912115357E+03  0.15160499383E+03  0.00000000000E+00 0. -1.
        -14    1    4    4    0    0  0.35927905596E+02 -0.21164224779E+02 -0.12472969828E+03  0.13151515671E+03  0.00000000000E+00 0.  1.
</event>
<event>
12    1  0.1035051E+000  0.1898005E+03  0.7818608E-02  0.1158744E+00
         21   -1    0    0  501  502  0.00000000000E+00  0.00000000000E+00  0.31345595856E+03  0.31345595856E+03  0.00000000000E+00 0. -1.
         21   -1    0    0  502  503 -0.00000000000E+00 -0.00000000000E+00 -0.13101101325E+03  0.13101101325E+03  0.00000000000E+00 0. -1.
         -6    2    1    2    0  503  0.23455342109E+02  0.76484626862E+02  0.12595733365E+02  0.18976522731E+03  0.17161625150E+03 0.  0.
        -24    2    3    3    0    0 -0.30718340455E+02  0.57545349590E+02  0.56805346498E+02  0.11717002086E+03  0.79037223495E+02 0.  0.
          6    2    1    2  501    0 -0.23455342109E+02 -0.76484626862E+02  0.16984921195E+03  0.25470174449E+03  0.17211674128E+03 0.  0.
         24    2    5    5    0    0 -0.56524666572E+02 -0.37428709581E+02  0.36097981436E+02  0.11141731911E+03  0.80714363661E+02 0.  0.
          5    1    5    5  501    0  0.33069324463E+02 -0.39055917281E+02  0.13375123051E+03  0.14328442539E+03  0.47000000000E+01 0. -1.
        -13    1    6    6    0    0  0.15478668266E+02 -0.24632716628E+02 -0.16097330919E+01  0.29136766128E+02  0.00000000000E+00 0.  1.
         14    1    6    6    0    0 -0.72003334839E+02 -0.12795992953E+02  0.37707714528E+02  0.82280552979E+02  0.00000000000E+00 0. -1.
         -5    1    3    3    0  503  0.54173682564E+02  0.18939277272E+02 -0.44209613132E+02  0.72595206450E+02  0.47000000000E+01 0.  1.
         13    1    4    4    0    0 -0.25666713953E+02 -0.14887140875E+02  0.19839184202E+02  0.35693142176E+02  0.00000000000E+00 0. -1.
        -14    1    4    4    0    0 -0.50516265018E+01  0.72432490465E+02  0.36966162296E+02  0.81476878684E+02  0.00000000000E+00 0.  1.
</event>
<event>
12    1  0.1035051E+000  0.4191783E+03  0.7818608E-02  0.1037360E+00
         21   -1    0    0  501  502  0.00000000000E+00  0.00000000000E+00  0.46514569707E+03  0.46514569707E+03  0.00000000000E+00 0. -1.
         21   -1    0    0  502  503 -0.00000000000E+00 -0.00000000000E+00 -0.39333716757E+03  0.39333716757E+03  0.00000000000E+00 0. -1.
         -6    2    1    2    0  503 -0.57111644389E+02 -0.37772494691E+03  0.12212199571E+03  0.43660535939E+03  0.17254733429E+03 0.  0.
        -24    2    3    3    0    0  0.21311184068E+02 -0.95105477472E+02  0.49462804809E+02  0.13440451136E+03  0.78222664254E+02 0.  0.
          6    2    1    2  501    0  0.57111644389E+02  0.37772494691E+03 -0.50313466223E+02  0.42187750525E+03  0.17178855932E+03 0.  0.
         24    2    5    5    0    0 -0.41731826271E+01  0.11955940347E+03 -0.99913940965E+01  0.15345016435E+03  0.95578546615E+02 0.  0.
          5    1    5    5  501    0  0.61284827016E+02  0.25816554344E+03 -0.40322072127E+02  0.26842734090E+03  0.47000000000E+01 0. -1.
        -13    1    6    6    0    0  0.17544275069E+02  0.50341483150E+02  0.38876863377E+02  0.65980883743E+02  0.00000000000E+00 0.  1.
         14    1    6    6    0    0 -0.21717457696E+02  0.69217920318E+02 -0.48868257474E+02  0.87469280610E+02  0.00000000000E+00 0. -1.
         -5    1    3    3    0  503 -0.78422828458E+02 -0.28261946943E+03  0.72659190906E+02  0.30220084803E+03  0.47000000000E+01 0.  1.
         11    1    4    4    0    0  0.16692705037E+02 -0.78383878946E+02  0.70778467401E+02  0.10692179538E+03  0.00000000000E+00 0. -1.
        -12    1    4    4    0    0  0.46184790313E+01 -0.16721598526E+02 -0.21315662592E+02  0.27482715979E+02  0.00000000000E+00 0.  1.
</event>
<event>
12    1  0.1035051E+000  0.2135413E+03  0.7818608E-02  0.1138808E+00
         21   -1    0    0  503  502  0.00000000000E+00  0.00000000000E+00  0.33976441977E+03  0.33976441977E+03  0.00000000000E+00 0.  1.
         21   -1    0    0  501  503 -0.00000000000E+00 -0.00000000000E+00 -0.16744322475E+03  0.16744322475E+03  0.00000000000E+00 0.  1.
          6    2    1    2  501    0  0.12611105337E+03 -0.19037129466E+02 -0.26893743906E+02  0.21522812132E+03  0.17127013944E+03 0.  0.
         24    2    3    3    0    0  0.22293079437E+02  0.33246535550E+02  0.14234678779E+02  0.91836912185E+02  0.81419155257E+02 0.  0.
         -6    2    1    2    0  502 -0.12611105337E+03  0.19037129466E+02  0.19921493893E+03  0.29197952320E+03  0.17116962345E+03 0.  0.
        -24    2    5    5    0    0 -0.81887193828E+02  0.74872202251E+02  0.15599469022E+03  0.20853262389E+03  0.82705215470E+02 0.  0.
          5    1    3    3  501    0  0.10381797394E+03 -0.52283665016E+02 -0.41128422686E+02  0.12339120914E+03  0.47000000000E+01 0. -1.
        -11    1    4    4    0    0 -0.18956914349E+02 -0.17165847054E+02  0.32650939174E+01  0.25781616416E+02  0.00000000000E+00 0.  1.
         12    1    4    4    0    0  0.41249993785E+02  0.50412382604E+02  0.10969584862E+02  0.66055295769E+02  0.00000000000E+00 0. -1.
         -5    1    5    5    0  502 -0.44223859543E+02 -0.55835072785E+02  0.43220248711E+02  0.83446899310E+02  0.47000000000E+01 0.  1.
         11    1    6    6    0    0 -0.94417236286E+02  0.51457971511E+02  0.10129265148E+03  0.14772521309E+03  0.00000000000E+00 0. -1.
        -12    1    6    6    0    0  0.12530042458E+02  0.23414230740E+02  0.54702038742E+02  0.60807410796E+02  0.00000000000E+00 0.  1.
</event>
<event>
12    1  0.1035051E+000  0.2893667E+03  0.7818608E-02  0.1090696E+00
         21   -1    0    0  501  502  0.00000000000E+00  0.00000000000E+00  0.28150011925E+03  0.28150011925E+03  0.00000000000E+00 0.  1.
         21   -1    0    0  502  503 -0.00000000000E+00 -0.00000000000E+00 -0.32039797351E+03  0.32039797351E+03  0.00000000000E+00 0.  1.
         -6    2    1    2    0  503  0.27705948470E+01 -0.23235504789E+03  0.61300266365E+02  0.29578848466E+03  0.17244291962E+03 0.  0.
        -24    2    3    3    0    0  0.65467618456E+02 -0.11151920017E+03  0.39832466678E+02  0.15789296158E+03  0.81369655530E+02 0.  0.
          6    2    1    2  501    0 -0.27705948470E+01  0.23235504789E+03 -0.10019812063E+03  0.30610960810E+03  0.17224077425E+03 0.  0.
         24    2    5    5    0    0  0.36688581421E+02  0.18119856060E+03 -0.12433132242E+03  0.23698281002E+03  0.80768831474E+02 0.  0.
          5    1    5    5  501    0 -0.39459176268E+02  0.51156487292E+02  0.24133201797E+02  0.69126798080E+02  0.47000000000E+01 0. -1.
        -13    1    6    6    0    0 -0.11697746588E+02  0.56637447391E+02 -0.74618306016E+02  0.94406193202E+02  0.00000000000E+00 0.  1.
         14    1    6    6    0    0  0.48386328008E+02  0.12456111321E+03 -0.49713016408E+02  0.14257661681E+03  0.00000000000E+00 0. -1.
         -5    1    3    3    0  503 -0.62697023609E+02 -0.12083584772E+03  0.21467799687E+02  0.13789552309E+03  0.47000000000E+01 0.  1.
         13    1    4    4    0    0  0.23672097247E+01 -0.16979785215E+02 -0.22478686326E+02  0.28270269309E+02  0.00000000000E+00 0. -1.
        -14    1    4    4    0    0  0.63100408732E+02 -0.94539414956E+02  0.62311153004E+02  0.12962269227E+03  0.00000000000E+00 0.  1.
</event>
<event>
12    1  0.1035051E+000  0.1791877E+03  0.7818608E-02  0.1168681E+00
         21   -1    0    0  501  502  0.00000000000E+00  0.00000000000E+00  0.84998424045E+02  0.84998424045E+02  0.00000000000E+00 0. -1.
         21   -1    0    0  502  503 -0.00000000000E+00 -0.00000000000E+00 -0.44397209715E+03  0.44397209715E+03  0.00000000000E+00 0. -1.
         -6    2    1    2    0  503 -0.40137734818E+02 -0.24354631628E+02 -0.28207099592E+03  0.33397752512E+03  0.17254783310E+03 0.  0.
        -24    2    3    3    0    0  0.12185936795E+02  0.30693682861E+02 -0.21877955735E+03  0.23500288324E+03  0.79191294929E+02 0.  0.
          6    2    1    2  501    0  0.40137734818E+02  0.24354631628E+02 -0.76902677193E+02  0.19499299608E+03  0.17292790672E+03 0.  0.
         24    2    5    5    0    0 -0.37557879398E+02  0.22242504252E+02 -0.21793744518E+02  0.99598268708E+02  0.86830435501E+02 0.  0.
          5    1    5    5  501    0  0.77695614216E+02  0.21121273756E+01 -0.55108932675E+02  0.95394727375E+02  0.47000000000E+01 0. -1.
        -13    1    6    6    0    0 -0.17544580953E+02  0.54593704130E+02 -0.22370744764E+02  0.61552701588E+02  0.00000000000E+00 0.  1.
         14    1    6    6    0    0 -0.20013298446E+02 -0.32351199878E+02  0.57700024585E+00  0.38045567121E+02  0.00000000000E+00 0. -1.
         -5    1    3    3    0  503 -0.52323671613E+02 -0.55048314488E+02 -0.63291438567E+02  0.98974641878E+02  0.47000000000E+01 0.  1.
         11    1    4    4    0    0  0.16583385260E+02  0.37093624553E+02 -0.43400751790E+02  0.59452257359E+02  0.00000000000E+00 0. -1.
        -12    1    4    4    0    0 -0.43974484651E+01 -0.63999416925E+01 -0.17537880556E+03  0.17555062588E+03  0.00000000000E+00 0.  1.
</event>
<event>
12    1  0.1035051E+000  0.2603983E+03  0.7818608E-02  0.1108357E+00
         21   -1    0    0  503  502  0.00000000000E+00  0.00000000000E+00  0.39439786634E+03  0.39439786634E+03  0.00000000000E+00 0. -1.
         21   -1    0    0  501  503 -0.00000000000E+00 -0.00000000000E+00 -0.24504957439E+03  0.24504957439E+03  0.00000000000E+00 0. -1.
          6    2    1    2  501    0  0.18129810931E+03  0.19047848190E+02  0.25751520736E+03  0.36622585188E+03  0.18594479719E+03 0.  0.
         24    2    3    3    0    0  0.42952982611E+02 -0.37625705012E+02  0.53316014800E+02  0.11310401174E+03  0.81787943149E+02 0.  0.
         -6    2    1    2    0  502 -0.18129810931E+03 -0.19047848190E+02 -0.10816691541E+03  0.27322158884E+03  0.17238947200E+03 0.  0.
        -24    2    5    5    0    0 -0.91657955980E+02  0.81487039639E+01  0.10381359347E+02  0.12205680132E+03  0.79514199077E+02 0.  0.
          5    1    3    3  501    0  0.13834512670E+03  0.56673553203E+02  0.20419919256E+03  0.25312184014E+03  0.47000000000E+01 0. -1.
        -13    1    4    4    0    0  0.51391484977E+02 -0.88283824780E+01  0.25454043553E+00  0.52144892905E+02  0.00000000000E+00 0.  1.
         14    1    4    4    0    0 -0.84385023654E+01 -0.28797322534E+02  0.53061474364E+02  0.60959118834E+02  0.00000000000E+00 0. -1.
         -5    1    5    5    0  502 -0.89640153335E+02 -0.27196552154E+02 -0.11854827476E+03  0.15116478753E+03  0.47000000000E+01 0.  1.
         11    1    6    6    0    0 -0.71808470172E+02  0.38899360151E+02 -0.61439029870E+01  0.81898499086E+02  0.00000000000E+00 0. -1.
        -12    1    6    6    0    0 -0.19849485808E+02 -0.30750656187E+02  0.16525262334E+02  0.40158302230E+02  0.00000000000E+00 0.  1.
</event>
<event>
12    1  0.1035051E+000  0.2106479E+03  0.7818608E-02  0.1141170E+00
         21   -1    0    0  503  502  0.00000000000E+00  0.00000000000E+00  0.20969738512E+03  0.20969738512E+03  0.00000000000E+00 0.  1.
         21   -1    0    0  501  503 -0.00000000000E+00 -0.00000000000E+00 -0.24222550733E+03  0.24222550733E+03  0.00000000000E+00 0.  1.
          6    2    1    2  501    0  0.10599904360E+03  0.57975093349E+02  0.64867846500E+02  0.21984854850E+03  0.17183898881E+03 0.  0.
         24    2    3    3    0    0  0.82303175809E+01  0.59749155074E+02 -0.91694569191E+01  0.97107017716E+02  0.75551269281E+02 0.  0.
         -6    2    1    2    0  502 -0.10599904360E+03 -0.57975093349E+02 -0.97395968703E+02  0.23207434395E+03  0.17255612915E+03 0.  0.
        -24    2    5    5    0    0 -0.11595050647E+03 -0.91593602937E+02 -0.52447214143E+02  0.17487542493E+03  0.77438981949E+02 0.  0.
          5    1    3    3  501    0  0.97768726019E+02 -0.17740617251E+01  0.74037303419E+02  0.12274153079E+03  0.47000000000E+01 0. -1.
        -13    1    4    4    0    0  0.13528434705E+00  0.70259003292E+02 -0.26666487849E+02  0.75149500462E+02  0.00000000000E+00 0.  1.
         14    1    4    4    0    0  0.80950332339E+01 -0.10509848218E+02  0.17497030930E+02  0.21957517255E+02  0.00000000000E+00 0. -1.
         -5    1    5    5    0  502  0.99514628648E+01  0.33618509588E+02 -0.44948754559E+02  0.57198919015E+02  0.47000000000E+01 0.  1.
         13    1    6    6    0    0 -0.90283722329E+02 -0.69344399996E+02 -0.72940964466E+02  0.13520421822E+03  0.00000000000E+00 0. -1.
        -14    1    6    6    0    0 -0.25666784136E+02 -0.22249202941E+02  0.20493750323E+02  0.39671206708E+02  0.00000000000E+00 0.  1.
</event>
<event>
12    1  0.1035051E+000  0.2590918E+03  0.7818608E-02  0.1108353E+00
         21   -1    0    0  503  502  0.00000000000E+00  0.00000000000E+00  0.81447524684E+02  0.81447524684E+02  0.00000000000E+00 0.  1.
         21   -1    0    0  501  503 -0.00000000000E+00 -0.00000000000E+00 -0.83891463782E+03  0.83891463782E+03  0.00000000000E+00 0.  1.
          6    2    1    2  501    0  0.18238149459E+03 -0.64870336157E+02 -0.29080981532E+03  0.38660418318E+03  0.16559370665E+03 0.  0.
         24    2    3    3    0    0  0.40769875601E+02 -0.92655777532E+01 -0.48746442760E+02  0.10066274490E+03  0.77516055377E+02 0.  0.
         -6    2    1    2    0  502 -0.18238149459E+03  0.64870336157E+02 -0.46665729781E+03  0.53375797932E+03  0.17221317257E+03 0.  0.
        -24    2    5    5    0    0 -0.50324691394E+02 -0.22204700736E+02 -0.12985660420E+03  0.16163184675E+03  0.78971469105E+02 0.  0.
          5    1    3    3  501    0  0.14161161899E+03 -0.55604758404E+02 -0.24206337256E+03  0.28594143828E+03  0.47000000000E+01 0. -1.
        -11    1    4    4    0    0  0.48940793329E+02 -0.28581174257E+02 -0.11370458784E+02  0.57804602814E+02  0.00000000000E+00 0.  1.
         12    1    4    4    0    0 -0.81709177272E+01  0.19315596504E+02 -0.37375983976E+02  0.42858142085E+02  0.00000000000E+00 0. -1.
         -5    1    5    5    0  502 -0.13205680320E+03  0.87075036893E+02 -0.33680069362E+03  0.37212613257E+03  0.47000000000E+01 0.  1.
         13    1    6    6    0    0 -0.66625643936E+02  0.18382595360E+01 -0.98030785811E+02  0.11854277960E+03  0.00000000000E+00 0. -1.
        -14    1    6    6    0    0  0.16300952542E+02 -0.24042960272E+02 -0.31825818387E+02  0.43089067156E+02  0.00000000000E+00 0.  1.
</event>
<event>
12    1  0.1035051E+000  0.1970432E+03  0.7818608E-02  0.1152518E+00
         21   -1    0    0  501  502  0.00000000000E+00  0.00000000000E+00  0.38947182985E+03  0.38947182985E+03  0.00000000000E+00 0. -1.
         21   -1    0    0  502  503 -0.00000000000E+00 -0.00000000000E+00 -0.10410582002E+03  0.10410582002E+03  0.00000000000E+00 0. -1.
         -6    2    1    2    0  503 -0.42733711004E+02 -0.85099320464E+02  0.88870703146E+02  0.21615745167E+03  0.17250500757E+03 0.  0.
        -24    2    3    3    0    0  0.11672176367E+01 -0.11699163316E+03  0.44352398669E+02  0.14581272494E+03  0.74871963120E+02 0.  0.
          6    2    1    2  501    0  0.42733711004E+02  0.85099320464E+02  0.19649530668E+03  0.27742019820E+03  0.17112421343E+03 0.  0.
         24    2    5    5    0    0  0.57038405719E+02  0.91081794728E+01  0.49774511782E+02  0.11150347374E+03  0.81358367565E+02 0.  0.
          5    1    5    5  501    0 -0.14304694715E+02  0.75991140991E+02  0.14672079490E+03  0.16591672446E+03  0.47000000000E+01 0. -1.
        -11    1    6    6    0    0  0.69559784160E+02  0.12876867194E+02  0.61653031617E+02  0.93837484987E+02  0.00000000000E+00 0.  1.
         12    1    6    6    0    0 -0.12521378441E+02 -0.37686877213E+01 -0.11878519835E+02  0.17665988754E+02  0.00000000000E+00 0. -1.
         -5    1    3    3    0  503 -0.43900928641E+02  0.31892312697E+02  0.44518304477E+02  0.70344726727E+02  0.47000000000E+01 0.  1.
         13    1    4    4    0    0 -0.22260551330E+02 -0.10894910338E+03  0.24015250935E+02  0.11376366533E+03  0.00000000000E+00 0. -1.
        -14    1    4    4    0    0  0.23427768966E+02 -0.80425297820E+01  0.20337147733E+02  0.32049059611E+02  0.00000000000E+00 0.  1.
</event>
<event>
12    1  0.1035051E+000  0.1733902E+03  0.7818608E-02  0.1174533E+00
         21   -1    0    0  503  502  0.00000000000E+00  0.00000000000E+00  0.99606408527E+02  0.99606408527E+02  0.00000000000E+00 0. -1.
         21   -1    0    0  501  503 -0.00000000000E+00 -0.00000000000E+00 -0.31020691102E+03  0.31020691102E+03  0.00000000000E+00 0. -1.
          6    2    1    2  501    0  0.75329458076E+01  0.20692379061E+01 -0.69507038272E+02  0.18680306230E+03  0.17321411230E+03 0.  0.
         24    2    3    3    0    0 -0.18890148778E+02  0.66281046491E+02 -0.72725943617E+01  0.93440584305E+02  0.62675651745E+02 0.  0.
         -6    2    1    2    0  502 -0.75329458076E+01 -0.20692379061E+01 -0.14109346422E+03  0.22301025724E+03  0.17252588841E+03 0.  0.
        -24    2    5    5    0    0 -0.55631405389E+02 -0.25393083757E+02 -0.39954622909E+02  0.10851738052E+03  0.80249535912E+02 0.  0.
          5    1    3    3  501    0  0.26423094586E+02 -0.64211808585E+02 -0.62234443910E+02  0.93362477998E+02  0.47000000000E+01 0. -1.
        -13    1    4    4    0    0 -0.34636702019E+02  0.68960187838E+02 -0.54076326751E+01  0.77359234255E+02  0.00000000000E+00 0.  1.
         14    1    4    4    0    0  0.15746553240E+02 -0.26791413477E+01 -0.18649616866E+01  0.16081350049E+02  0.00000000000E+00 0. -1.
         -5    1    5    5    0  502  0.48098459581E+02  0.23323845851E+02 -0.10113884131E+03  0.11449287672E+03  0.47000000000E+01 0.  1.
         11    1    6    6    0    0 -0.27198686315E+02  0.12686439594E+02  0.16879004098E+02  0.34432761524E+02  0.00000000000E+00 0. -1.
        -12    1    6    6    0    0 -0.28432719074E+02 -0.38079523350E+02 -0.56833627007E+02  0.74084618992E+02  0.00000000000E+00 0.  1.
</event>
<event>
12    1  0.1035051E+000  0.1814156E+03  0.7818608E-02  0.1166573E+00
         21   -1    0    0  501  502  0.00000000000E+00  0.00000000000E+00  0.12100857250E+03  0.12100857250E+03  0.00000000000E+00 0. -1.
         21   -1    0    0  502  503 -0.00000000000E+00 -0.00000000000E+00 -0.29626519738E+03  0.29626519738E+03  0.00000000000E+00 0. -1.
         -6    2    1    2    0  503 -0.25774699388E+02 -0.50658803648E+02 -0.14825725201E+03  0.23386006647E+03  0.17169644259E+03 0.  0.
        -24    2    3    3    0    0  0.23055482074E+02 -0.57003375481E+02 -0.29639271855E+02  0.10534175870E+03  0.80233781044E+02 0.  0.
          6    2    1    2  501    0  0.25774699388E+02  0.50658803648E+02 -0.26999372864E+02  0.18341370342E+03  0.17228166168E+03 0.  0.
         24    2    5    5    0    0  0.77086708233E+02  0.64467119200E+02 -0.17252610294E+02  0.12918565523E+03  0.79327869695E+02 0.  0.
          5    1    5    5  501    0 -0.51312008845E+02 -0.13808315551E+02 -0.97467625702E+01  0.54228048192E+02  0.47000000000E+01 0. -1.
        -11    1    6    6    0    0  0.37321216016E+02  0.36256704103E+02  0.31018079920E+02  0.60576753291E+02  0.00000000000E+00 0.  1.
         12    1    6    6    0    0  0.39765492217E+02  0.28210415096E+02 -0.48270690214E+02  0.68608901936E+02  0.00000000000E+00 0. -1.
         -5    1    3    3    0  503 -0.48830181461E+02  0.63445718323E+01 -0.11861798016E+03  0.12851830776E+03  0.47000000000E+01 0.  1.
         13    1    4    4    0    0  0.19419762034E+02 -0.64512993498E+02 -0.49630443177E+02  0.83679354548E+02  0.00000000000E+00 0. -1.
        -14    1    4    4    0    0  0.36357200396E+01  0.75096180174E+01  0.19991171322E+02  0.21662404155E+02  0.00000000000E+00 0.  1.
</event>
<event>
12    1  0.1035051E+000  0.1871660E+03  0.7818608E-02  0.1161395E+00
         21   -1    0    0  503  502  0.00000000000E+00  0.00000000000E+00  0.67043046663E+02  0.67043046663E+02  0.00000000000E+00 0. -1.
         21   -1    0    0  501  503 -0.00000000000E+00 -0.00000000000E+00 -0.52032291109E+03  0.52032291109E+03  0.00000000000E+00 0. -1.
          6    2    1    2  501    0 -0.69123241304E+02  0.32846450703E+02 -0.20908009357E+03  0.28061642764E+03  0.17080451434E+03 0.  0.
         24    2    3    3    0    0 -0.20246172108E+02 -0.44891256683E+02 -0.12370552838E+03  0.15514521411E+03  0.79635716216E+02 0.  0.
         -6    2    1    2    0  502  0.69123241304E+02 -0.32846450703E+02 -0.24419977086E+03  0.30674953012E+03  0.16912963764E+03 0.  0.
        -24    2    5    5    0    0  0.38126113000E+01 -0.66750674486E+02 -0.18374498824E+03  0.21139836063E+03  0.80354574382E+02 0.  0.
          5    1    3    3  501    0 -0.48877069197E+02  0.77737707386E+02 -0.85374565190E+02  0.12547121353E+03  0.47000000000E+01 0. -1.
        -13    1    4    4    0    0 -0.37843125980E+02 -0.10255212689E+02 -0.19209335764E+02  0.43660853767E+02  0.00000000000E+00 0.  1.
         14    1    4    4    0    0  0.17596953872E+02 -0.34636043995E+02 -0.10449619262E+03  0.11148436034E+03  0.00000000000E+00 0. -1.
         -5    1    5    5    0  502  0.65310630004E+02  0.33904223783E+02 -0.60454782622E+02  0.95351169493E+02  0.47000000000E+01 0.  1.
         13    1    6    6    0    0 -0.36709702844E+02 -0.37518368966E+02 -0.73090555787E+02  0.89985885771E+02  0.00000000000E+00 0. -1.
        -14    1    6    6    0    0  0.40522314144E+02 -0.29232305520E+02 -0.11065443245E+03  0.12141247486E+03  0.00000000000E+00 0.  1.
</event>
<event>
12    1  0.1035051E+000  0.7522897E+03  0.7818608E-02  0.9631866E-01
         21   -1    0    0  501  502  0.00000000000E+00  0.00000000000E+00  0.65734345792E+03  0.65734345792E+03  0.00000000000E+00 0.  1.
         21   -1    0    0  502  503 -0.00000000000E+00 -0.00000000000E+00 -0.10597181454E+04  0.10597181454E+04  0.00000000000E+00 0. -1.
         -6    2    1    2    0  503 -0.22403517081E+03  0.69706191960E+03  0.17088123438E+03  0.77145324924E+03  0.17277917115E+03 0.  0.
        -24    2    3    3    0    0 -0.29329583195E+02  0.18234010746E+03  0.50052660482E+02  0.20800809307E+03  0.81571801026E+02 0.  0.
          6    2    1    2  501    0  0.22403517081E+03 -0.69706191960E+03 -0.57325592183E+03  0.94560835405E+03  0.17165584704E+03 0.  0.
         24    2    5    5    0    0  0.24424181228E+03 -0.66493304476E+03 -0.55174993254E+03  0.90173158876E+03  0.83077392927E+02 0.  0.
          5    1    5    5  501    0 -0.20206641468E+02 -0.32128874836E+02 -0.21505989288E+02  0.43876765297E+02  0.47000000000E+01 0. -1.
        -13    1    6    6    0    0  0.20329168475E+03 -0.60194647905E+03 -0.46724992434E+03  0.78866315023E+03  0.00000000000E+00 0.  1.
         14    1    6    6    0    0  0.40950127528E+02 -0.62986565710E+02 -0.84500008207E+02  0.11306843853E+03  0.00000000000E+00 0. -1.
         -5    1    3    3    0  503 -0.19470558762E+03  0.51472181214E+03  0.12082857390E+03  0.56344515617E+03  0.47000000000E+01 0.  1.
         11    1    4    4    0    0  0.96829760580E+00  0.24228599824E+01  0.23489623952E+02  0.23634091566E+02  0.00000000000E+00 0. -1.
        -12    1    4    4    0    0 -0.30297880801E+02  0.17991724748E+03  0.26563036530E+02  0.18437400150E+03  0.00000000000E+00 0.  1.
</event>
<event>
12    1  0.1035051E+000  0.4838718E+03  0.7818608E-02  0.1018100E+00
         21   -1    0    0  501  502  0.00000000000E+00  0.00000000000E+00  0.57574487832E+03  0.57574487832E+03  0.00000000000E+00 0. -1.
         21   -1    0    0  502  503 -0.00000000000E+00 -0.00000000000E+00 -0.41986995520E+03  0.41986995520E+03  0.00000000000E+00 0. -1.
         -6    2    1    2    0  503  0.17797096560E+03 -0.41585465332E+03  0.16718252757E+03  0.51161097542E+03  0.17084213579E+03 0.  0.
        -24    2    3    3    0    0  0.50428626583E+02 -0.10571802925E+03  0.85376414953E+02  0.16640653759E+03  0.81747510281E+02 0.  0.
          6    2    1    2  501    0 -0.17797096560E+03  0.41585465332E+03 -0.11307604446E+02  0.48400385809E+03  0.17182291886E+03 0.  0.
         24    2    5    5    0    0 -0.13251062730E+03  0.38642904568E+03 -0.46906675120E+02  0.41902776575E+03  0.80607435205E+02 0.  0.
          5    1    5    5  501    0 -0.45460338293E+02  0.29425607644E+02  0.35599070674E+02  0.64976092340E+02  0.47000000000E+01 0. -1.
        -13    1    6    6    0    0 -0.14360153998E+03  0.36556915171E+03 -0.44796340655E+02  0.39530863778E+03  0.00000000000E+00 0.  1.
         14    1    6    6    0    0  0.11090912677E+02  0.20859893968E+02 -0.21103344650E+01  0.23719127976E+02  0.00000000000E+00 0. -1.
         -5    1    3    3    0  503  0.12754233901E+03 -0.31013662407E+03  0.81806112614E+02  0.34520443783E+03  0.47000000000E+01 0.  1.
         13    1    4    4    0    0  0.61832523880E+02 -0.71385670728E+02  0.89352752586E+02  0.13001188172E+03  0.00000000000E+00 0. -1.
        -14    1    4    4    0    0 -0.11403897297E+02 -0.34332358517E+02 -0.39763376330E+01  0.36394655870E+02  0.00000000000E+00 0.  1.
</event>
<event>
12    1  0.1035051E+000  0.1833910E+03  0.7818608E-02  0.1164562E+00
         21   -1    0    0  501  502  0.00000000000E+00  0.00000000000E+00  0.12716877925E+03  0.12716877925E+03  0.00000000000E+00 0.  1.
         21   -1    0    0  502  503 -0.00000000000E+00 -0.00000000000E+00 -0.26874029798E+03  0.26874029798E+03  0.00000000000E+00 0.  1.
         -6    2    1    2    0  503 -0.23781880324E+02 -0.57936392890E+02 -0.95751320863E+02  0.20688061301E+03  0.17236318963E+03 0.  0.
        -24    2    3    3    0    0 -0.72201219471E+02 -0.33693639325E+02 -0.10265875633E+03  0.15209059413E+03  0.79021839688E+02 0.  0.
          6    2    1    2  501    0  0.23781880324E+02  0.57936392890E+02 -0.45820197867E+02  0.18902846421E+03  0.17236608221E+03 0.  0.
         24    2    5    5    0    0  0.47400001448E+02 -0.30197138240E+02 -0.38422427364E+02  0.97365211145E+02  0.69606566655E+02 0.  0.
          5    1    5    5  501    0 -0.23618121124E+02  0.88133531130E+02 -0.73977705035E+01  0.91663253069E+02  0.47000000000E+01 0. -1.
        -11    1    6    6    0    0  0.33222694178E+02  0.89939714102E+01 -0.43401211371E+02  0.55392274540E+02  0.00000000000E+00 0.  1.
         12    1    6    6    0    0  0.14177307270E+02 -0.39191109650E+02  0.49787840074E+01  0.41972936605E+02  0.00000000000E+00 0. -1.
         -5    1    3    3    0  503  0.48419339147E+02 -0.24242753564E+02  0.69074354710E+01  0.54790018878E+02  0.47000000000E+01 0.  1.
         13    1    4    4    0    0 -0.77903964768E+02 -0.44351257411E+02 -0.60292005500E+02  0.10803327121E+03  0.00000000000E+00 0. -1.
        -14    1    4    4    0    0  0.57027452970E+01  0.10657618085E+02 -0.42366750834E+02  0.44057322926E+02  0.00000000000E+00 0.  1.
</event>
<event>
12    1  0.1035051E+000  0.1967236E+03  0.7818608E-02  0.1153178E+00
         21   -1    0    0  503  502  0.00000000000E+00  0.00000000000E+00  0.63911402464E+02  0.63911402464E+02  0.00000000000E+00 0. -1.
         21   -1    0    0  501  503 -0.00000000000E+00 -0.00000000000E+00 -0.90262743645E+03  0.90262743645E+03  0.00000000000E+00 0. -1.
          6    2    1    2  501    0  0.83356672050E+02  0.34132746185E+02 -0.13578196749E+03  0.23659604169E+03  0.17154464467E+03 0.  0.
         24    2    3    3    0    0  0.65929206619E+02  0.78481395354E+02 -0.48655743270E+02  0.13717980469E+03  0.77103357632E+02 0.  0.
         -6    2    1    2    0  502 -0.83356672050E+02 -0.34132746185E+02 -0.70293406650E+03  0.72994279722E+03  0.17489084090E+03 0.  0.
        -24    2    5    5    0    0 -0.52637860333E+02 -0.74643709365E+02 -0.38640906068E+03  0.40932627731E+03  0.99466634768E+02 0.  0.
          5    1    3    3  501    0  0.17427465431E+02 -0.44348649170E+02 -0.87126224219E+02  0.99416237010E+02  0.47000000000E+01 0. -1.
        -11    1    4    4    0    0 -0.15162531281E+01  0.34898557980E+02 -0.44768625184E+02  0.56784136636E+02  0.00000000000E+00 0.  1.
         12    1    4    4    0    0  0.67445459747E+02  0.43582837374E+02 -0.38871180858E+01  0.80395668049E+02  0.00000000000E+00 0. -1.
         -5    1    5    5    0  502 -0.30718811716E+02  0.40510963180E+02 -0.31652500582E+03  0.32061651991E+03  0.47000000000E+01 0.  1.
         13    1    6    6    0    0 -0.13644594675E+02  0.47275730887E+01 -0.16487444897E+01  0.14534210317E+02  0.00000000000E+00 0. -1.
        -14    1    6    6    0    0 -0.38993265658E+02 -0.79371282454E+02 -0.38476031619E+03  0.39479206699E+03  0.00000000000E+00 0.  1.
</event>
<event>
12    1  0.1035051E+000  0.2711400E+03  0.7818608E-02  0.1101275E+00
         21   -1    0    0  503  502  0.00000000000E+00  0.00000000000E+00  0.71585048417E+03  0.71585048417E+03  0.00000000000E+00 0. -1.
         21   -1    0    0  501  503 -0.00000000000E+00 -0.00000000000E+00 -0.15193124897E+03  0.15193124897E+03  0.00000000000E+00 0. -1.
          6    2    1    2  501    0  0.16818997816E+03 -0.12485345756E+03  0.29186473688E+02  0.26823520475E+03  0.16499097006E+03 0.  0.
         24    2    3    3    0    0  0.13761489596E+03 -0.26539471358E+02 -0.55258961099E+00  0.16096462434E+03  0.79165028929E+02 0.  0.
         -6    2    1    2    0  502 -0.16818997816E+03  0.12485345756E+03  0.53473276152E+03  0.59954652839E+03  0.17216462717E+03 0.  0.
        -24    2    5    5    0    0 -0.12057907051E+03  0.15688121786E+03  0.40627952658E+03  0.45878112241E+03  0.79158295810E+02 0.  0.
          5    1    3    3  501    0  0.30575082205E+02 -0.98313986204E+02  0.29739063299E+02  0.10727058041E+03  0.47000000000E+01 0. -1.
        -11    1    4    4    0    0  0.27387339258E+02 -0.35090516332E+02 -0.19843054684E+02  0.48735587687E+02  0.00000000000E+00 0.  1.
         12    1    4    4    0    0  0.11022755670E+03  0.85510449734E+01  0.19290465073E+02  0.11222903666E+03  0.00000000000E+00 0. -1.
         -5    1    5    5    0  502 -0.47610907648E+02 -0.32027760296E+02  0.12845323493E+03  0.14076540598E+03  0.47000000000E+01 0.  1.
         11    1    6    6    0    0 -0.92516124115E+01  0.68602510780E+02  0.16230589833E+03  0.17645141386E+03  0.00000000000E+00 0. -1.
        -12    1    6    6    0    0 -0.11132745810E+03  0.88278707079E+02  0.24397362825E+03  0.28232970855E+03  0.00000000000E+00 0.  1.
</event>
<event>
12    1  0.1035051E+000  0.2082694E+03  0.7818608E-02  0.1143520E+00
         21   -1    0    0  503  502  0.00000000000E+00  0.00000000000E+00  0.19673746195E+03  0.19673746195E+03  0.00000000000E+00 0. -1.
         21   -1    0    0  501  503 -0.00000000000E+00 -0.00000000000E+00 -0.26970247768E+03  0.26970247768E+03  0.00000000000E+00 0. -1.
          6    2    1    2  501    0  0.94664419258E+02  0.63532650984E+02 -0.13892143780E+03  0.24797625378E+03  0.17086634117E+03 0.  0.
         24    2    3    3    0    0 -0.83389724164E+01  0.17656935275E+02 -0.10023028374E+03  0.12867254306E+03  0.78289256838E+02 0.  0.
         -6    2    1    2    0  502 -0.94664419258E+02 -0.63532650984E+02  0.65956422068E+02  0.21846368586E+03  0.17429395403E+03 0.  0.
        -24    2    5    5    0    0 -0.83221828280E+02  0.76307474778E+01  0.86942181181E+02  0.14324630585E+03  0.77307569248E+02 0.  0.
          5    1    3    3  501    0  0.10300339167E+03  0.45875715710E+02 -0.38691154063E+02  0.11930371072E+03  0.47000000000E+01 0. -1.
        -13    1    4    4    0    0  0.12533643381E+02  0.14205396597E+02 -0.10523994343E+03  0.10693143224E+03  0.00000000000E+00 0.  1.
         14    1    4    4    0    0 -0.20872615798E+02  0.34515386777E+01  0.50096596916E+01  0.21741110820E+02  0.00000000000E+00 0. -1.
         -5    1    5    5    0  502 -0.11442590979E+02 -0.71163398462E+02 -0.20985759113E+02  0.75217380003E+02  0.47000000000E+01 0.  1.
         13    1    6    6    0    0 -0.52383414163E+02  0.28341848853E+02  0.13688404564E+02  0.61111822876E+02  0.00000000000E+00 0. -1.
        -14    1    6    6    0    0 -0.30838414117E+02 -0.20711101375E+02  0.73253776617E+02  0.82134482978E+02  0.00000000000E+00 0.  1.
</event>
<event>
12    1  0.1035051E+000  0.2918282E+03  0.7818608E-02  0.1089415E+00
         21   -1    0    0  503  502  0.00000000000E+00  0.00000000000E+00  0.96421040463E+03  0.96421040463E+03  0.00000000000E+00 0.  1.
         21   -1    0    0  501  503 -0.00000000000E+00 -0.00000000000E+00 -0.69334342170E+03  0.69334342170E+03  0.00000000000E+00 0.  1.
          6    2    1    2  501    0 -0.23461280086E+03  0.29016747081E+02 -0.63878610410E+03  0.70223583668E+03  0.17088693803E+03 0.  0.
         24    2    3    3    0    0 -0.21624670578E+03 -0.15982543980E+02 -0.42339699925E+03  0.48138111943E+03  0.73788099953E+02 0.  0.
         -6    2    1    2    0  502  0.23461280086E+03 -0.29016747081E+02  0.90965308703E+03  0.95531798965E+03  0.17110986139E+03 0.  0.
        -24    2    5    5    0    0  0.78694867275E+02  0.41461669199E+02  0.41289711998E+03  0.42989797673E+03  0.80101726334E+02 0.  0.
          5    1    3    3  501    0 -0.18366095073E+02  0.44999291061E+02 -0.21538910485E+03  0.22085471725E+03  0.47000000000E+01 0. -1.
        -13    1    4    4    0    0 -0.12458405476E+03  0.24406892449E+02 -0.20529201385E+03  0.24137459281E+03  0.00000000000E+00 0.  1.
         14    1    4    4    0    0 -0.91662651022E+02 -0.40389436429E+02 -0.21810498539E+03  0.24000652662E+03  0.00000000000E+00 0. -1.
         -5    1    5    5    0  502  0.15591793358E+03 -0.70478416280E+02  0.49675596705E+03  0.52542001292E+03  0.47000000000E+01 0.  1.
         11    1    6    6    0    0  0.70843043302E+02  0.82303710552E+01  0.35957436456E+03  0.36657904937E+03  0.00000000000E+00 0. -1.
        -12    1    6    6    0    0  0.78518239734E+01  0.33231298144E+02  0.53322755423E+02  0.63318927360E+02  0.00000000000E+00 0.  1.
</event>
<event>
12    1  0.1035051E+000  0.5210400E+03  0.7818608E-02  0.1008430E+00
         21   -1    0    0  501  502  0.00000000000E+00  0.00000000000E+00  0.36124411941E+03  0.36124411941E+03  0.00000000000E+00 0.  1.
         21   -1    0    0  502  503 -0.00000000000E+00 -0.00000000000E+00 -0.98379508420E+03  0.98379508420E+03  0.00000000000E+00 0.  1.
         -6    2    1    2    0  503 -0.44825894645E+03 -0.20265426162E+03  0.15532579876E+02  0.52124718294E+03  0.17161739964E+03 0.  0.
        -24    2    3    3    0    0 -0.21628250225E+03 -0.16764963027E+03 -0.76737950704E+01  0.28545273704E+03  0.80869392489E+02 0.  0.
          6    2    1    2  501    0  0.44825894645E+03  0.20265426162E+03 -0.63808354466E+03  0.82379202067E+03  0.17169114866E+03 0.  0.
         24    2    5    5    0    0  0.24283942821E+03  0.55220690157E+02 -0.25713276219E+03  0.36653998389E+03  0.78828864560E+02 0.  0.
          5    1    5    5  501    0  0.20541951824E+03  0.14743357146E+03 -0.38095078248E+03  0.45725203678E+03  0.47000000000E+01 0. -1.
        -11    1    6    6    0    0  0.12818868268E+03 -0.56633926677E+01 -0.15593883336E+03  0.20194388363E+03  0.00000000000E+00 0.  1.
         12    1    6    6    0    0  0.11465074553E+03  0.60884082824E+02 -0.10119392882E+03  0.16459610027E+03  0.00000000000E+00 0. -1.
         -5    1    3    3    0  503 -0.23197644420E+03 -0.35004631345E+02  0.23206374946E+02  0.23579444590E+03  0.47000000000E+01 0.  1.
         13    1    4    4    0    0 -0.15359301853E+03 -0.69669921046E+02 -0.11734848327E+02  0.16906336062E+03  0.00000000000E+00 0. -1.
        -14    1    4    4    0    0 -0.62689483728E+02 -0.97979709228E+02  0.40610532570E+01  0.11638937642E+03  0.00000000000E+00 0.  1.
</event>
<event>
12    1  0.1035051E+000  0.1866628E+03  0.7818608E-02  0.1161910E+00
         21   -1    0    0  501  502  0.00000000000E+00  0.00000000000E+00  0.17373080463E+02  0.17373080463E+02  0.00000000000E+00 0.  1.
         21   -1    0    0  502  503 -0.00000000000E+00 -0.00000000000E+00 -0.20010284917E+04  0.20010284917E+04  0.00000000000E+00 0.  1.
         -6    2    1    2    0  503 -0.18308080345E+02  0.66035672564E+02 -0.10811618122E+04  0.10971571814E+04  0.17362926184E+03 0.  0.
        -24    2    3    3    0    0  0.46489706576E+02  0.17762607044E+02 -0.33789490908E+03  0.34949628140E+03  0.74147677651E+02 0.  0.
          6    2    1    2  501    0  0.18308080345E+02 -0.66035672564E+02 -0.90249359905E+03  0.92124439083E+03  0.17175749022E+03 0.  0.
         24    2    5    5    0    0  0.36775626350E+02  0.28595317592E+01 -0.72070379625E+03  0.72590565469E+03  0.78513909367E+02 0.  0.
          5    1    5    5  501    0 -0.18467546004E+02 -0.68895204324E+02 -0.18178980280E+03  0.19533873614E+03  0.47000000000E+01 0. -1.
        -11    1    6    6    0    0  0.11970910453E+02 -0.89429913990E+01 -0.64820613277E+03  0.64837833889E+03  0.00000000000E+00 0.  1.
         12    1    6    6    0    0  0.24804715896E+02  0.11802523158E+02 -0.72497663489E+02  0.77527315799E+02  0.00000000000E+00 0. -1.
         -5    1    3    3    0  503 -0.64797786921E+02  0.48273065521E+02 -0.74326690312E+03  0.74766089995E+03  0.47000000000E+01 0.  1.
         11    1    4    4    0    0  0.55327219648E+02 -0.39819140449E+01 -0.29873061602E+03  0.30383702510E+03  0.00000000000E+00 0. -1.
        -12    1    4    4    0    0 -0.88375130726E+01  0.21744521089E+02 -0.39164293061E+02  0.45659256297E+02  0.00000000000E+00 0.  1.
</event>
<event>
12    1  0.1035051E+000  0.2094054E+03  0.7818608E-02  0.1142273E+00
         21   -1    0    0  501  502  0.00000000000E+00  0.00000000000E+00  0.59990564168E+02  0.59990564168E+02  0.00000000000E+00 0. -1.
         21   -1    0    0  502  503 -0.00000000000E+00 -0.00000000000E+00 -0.74133102953E+03  0.74133102953E+03  0.00000000000E+00 0. -1.
         -6    2    1    2    0  503 -0.14120634365E+02  0.11534874651E+03 -0.39572144265E+03  0.44716223213E+03  0.17278274229E+03 0.  0.
        -24    2    3    3    0    0 -0.52439339620E+02  0.15958111653E+02 -0.23612738280E+03  0.25522689038E+03  0.79875396724E+02 0.  0.
          6    2    1    2  501    0  0.14120634365E+02 -0.11534874651E+03 -0.28561902271E+03  0.35415936156E+03  0.17420075090E+03 0.  0.
         24    2    5    5    0    0 -0.21536890397E+01  0.27984935797E+01 -0.75369261204E+02  0.11239361511E+03  0.83302636458E+02 0.  0.
          5    1    5    5  501    0  0.16274323405E+02 -0.11814724009E+03 -0.21024976150E+03  0.24176574645E+03  0.47000000000E+01 0. -1.
        -11    1    6    6    0    0  0.56967613683E+01 -0.38147023102E+02 -0.21117387824E+02  0.43972633878E+02  0.00000000000E+00 0.  1.
         12    1    6    6    0    0 -0.78504504079E+01  0.40945516682E+02 -0.54251873379E+02  0.68420981235E+02  0.00000000000E+00 0. -1.
         -5    1    3    3    0  503  0.38318705255E+02  0.99390634862E+02 -0.15959405985E+03  0.19193534175E+03  0.47000000000E+01 0.  1.
         11    1    4    4    0    0 -0.42390565697E+02  0.16234356870E+02 -0.45281795259E+02  0.64116732488E+02  0.00000000000E+00 0. -1.
        -12    1    4    4    0    0 -0.10048773924E+02 -0.27624521722E+00 -0.19084558754E+03  0.19111015790E+03  0.00000000000E+00 0.  1.
</event>
<event>
12    1  0.1035051E+000  0.1863916E+03  0.7818608E-02  0.1161917E+00
         21   -1    0    0  501  502  0.00000000000E+00  0.00000000000E+00  0.35799180665E+03  0.35799180665E+03  0.00000000000E+00 0. -1.
         21   -1    0    0  502  503 -0.00000000000E+00 -0.00000000000E+00 -0.10092473678E+03  0.10092473678E+03  0.00000000000E+00 0. -1.
         -6    2    1    2    0  503  0.54226346731E+02 -0.46031502308E+02  0.81285364184E+02  0.20271148254E+03  0.17153786416E+03 0.  0.
        -24    2    3    3    0    0 -0.29483593066E+02 -0.26824375059E+02  0.80380947533E+02  0.11669302099E+03  0.74614576756E+02 0.  0.
          6    2    1    2  501    0 -0.54226346731E+02  0.46031502308E+02  0.17578170569E+03  0.25620506089E+03  0.17228589403E+03 0.  0.
         24    2    5    5    0    0  0.25850672571E+02  0.66168613932E+02  0.93677951693E+02  0.13966773336E+03  0.75398769004E+02 0.  0.
          5    1    5    5  501    0 -0.80077019303E+02 -0.20137111624E+02  0.82103754001E+02  0.11653732752E+03  0.47000000000E+01 0. -1.
        -11    1    6    6    0    0  0.14937923761E+01  0.13967828668E+02  0.78978633416E+02  0.80218178673E+02  0.00000000000E+00 0.  1.
         12    1    6    6    0    0  0.24356880195E+02  0.52200785264E+02  0.14699318277E+02  0.59449554690E+02  0.00000000000E+00 0. -1.
         -5    1    3    3    0  503  0.83709939798E+02 -0.19207127249E+02  0.90441665052E+00  0.86018461551E+02  0.47000000000E+01 0.  1.
         11    1    4    4    0    0  0.24657705104E+02 -0.10573442011E+02  0.16976982175E+02  0.31749299531E+02  0.00000000000E+00 0. -1.
        -12    1    4    4    0    0 -0.54141298170E+02 -0.16250933048E+02  0.63403965358E+02  0.84943721461E+02  0.00000000000E+00 0.  1.
</event>
<event>
12    1  0.1035051E+000  0.2638511E+03  0.7818608E-02  0.1104933E+00
         21   -1    0    0  503  502  0.00000000000E+00  0.00000000000E+00  0.14296026551E+03  0.14296026551E+03  0.00000000000E+00 0.  1.
         21   -1    0    0  501  503 -0.00000000000E+00 -0.00000000000E+00 -0.56642548128E+03  0.56642548128E+03  0.00000000000E+00 0.  1.
          6    2    1    2  501    0  0.22138989629E+02  0.19980259499E+03 -0.77844800689E+02  0.27456292799E+03  0.17004051461E+03 0.  0.
         24    2    3    3    0    0  0.73617582153E+02  0.11019591813E+03 -0.61231597984E+02  0.16978940782E+03  0.86697437345E+02 0.  0.
         -6    2    1    2    0  502 -0.22138989629E+02 -0.19980259499E+03 -0.34562041508E+03  0.43482281879E+03  0.17089821706E+03 0.  0.
        -24    2    5    5    0    0 -0.45735935342E+02 -0.20911936563E+03 -0.33889179573E+03  0.40815856593E+03  0.76961554453E+02 0.  0.
          5    1    3    3  501    0 -0.51478592524E+02  0.89606676852E+02 -0.16613202705E+02  0.10477352017E+03  0.47000000000E+01 0. -1.
        -11    1    4    4    0    0  0.28408983537E+01  0.12288273980E+01 -0.37594497530E+02  0.37721704161E+02  0.00000000000E+00 0.  1.
         12    1    4    4    0    0  0.70776683799E+02  0.10896709074E+03 -0.23637100453E+02  0.13206770366E+03  0.00000000000E+00 0. -1.
         -5    1    5    5    0  502  0.23596945714E+02  0.93167706481E+01 -0.67286193526E+01  0.26664252862E+02  0.47000000000E+01 0.  1.
         13    1    6    6    0    0 -0.75259418479E+01 -0.13608631550E+03 -0.26251520481E+03  0.29578769045E+03  0.00000000000E+00 0. -1.
        -14    1    6    6    0    0 -0.38209993494E+02 -0.73033050138E+02 -0.76376590921E+02  0.11237087548E+03  0.00000000000E+00 0.  1.
</event>
<event>
12    1  0.1035051E+000  0.2266573E+03  0.7818608E-02  0.1129345E+00
         21   -1    0    0  503  502  0.00000000000E+00  0.00000000000E+00  0.74949429884E+03  0.74949429884E+03  0.00000000000E+00 0. -1.
         21   -1    0    0  501  503 -0.00000000000E+00 -0.00000000000E+00 -0.81516389265E+02  0.81516389265E+02  0.00000000000E+00 0. -1.
          6    2    1    2  501    0  0.14406395383E+03 -0.20405913711E+02  0.50210663969E+03  0.55014269903E+03  0.17139162047E+03 0.  0.
         24    2    3    3    0    0  0.12415775781E+03 -0.76148488488E+02  0.35734562929E+03  0.39367758658E+03  0.77925620163E+02 0.  0.
         -6    2    1    2    0  502 -0.14406395383E+03  0.20405913711E+02  0.16587126988E+03  0.28086798907E+03  0.17378931211E+03 0.  0.
        -24    2    5    5    0    0 -0.18360429375E+02 -0.18279978315E+02  0.24239103837E+02  0.87529594639E+02  0.80016453363E+02 0.  0.
          5    1    3    3  501    0  0.19906196026E+02  0.55742574777E+02  0.14476101040E+03  0.15646511246E+03  0.47000000000E+01 0. -1.
        -13    1    4    4    0    0  0.63583981401E+02 -0.66672296340E+02  0.28125218938E+03  0.29595761828E+03  0.00000000000E+00 0.  1.
         14    1    4    4    0    0  0.60573776405E+02 -0.94761921481E+01  0.76093439911E+02  0.97719968292E+02  0.00000000000E+00 0. -1.
         -5    1    5    5    0  502 -0.12570352446E+03  0.38685892027E+02  0.14163216604E+03  0.19333839443E+03  0.47000000000E+01 0.  1.
         13    1    6    6    0    0  0.19550946694E+02  0.20845953821E+02  0.14981628736E+02  0.32268289495E+02  0.00000000000E+00 0. -1.
        -14    1    6    6    0    0 -0.37911376069E+02 -0.39125932136E+02  0.92574751012E+01  0.55261305144E+02  0.00000000000E+00 0.  1.
</event>
<event>
12    1  0.1035051E+000  0.2335650E+03  0.7818608E-02  0.1124240E+00
         21   -1    0    0  503  502  0.00000000000E+00  0.00000000000E+00  0.40482030689E+02  0.40482030689E+02  0.00000000000E+00 0. -1.
         21   -1    0    0  501  503 -0.00000000000E+00 -0.00000000000E+00 -0.13722731183E+04  0.13722731183E+04  0.00000000000E+00 0. -1.
          6    2    1    2  501    0 -0.71897730980E+02 -0.13964795449E+03 -0.76662641851E+03  0.80141667545E+03  0.17286349298E+03 0.  0.
         24    2    3    3    0    0 -0.57001194702E+02 -0.15217596403E+03 -0.75781414593E+03  0.77953965636E+03  0.83624971334E+02 0.  0.
         -6    2    1    2    0  502  0.71897730980E+02  0.13964795449E+03 -0.56516466912E+03  0.61133847356E+03  0.17219985809E+03 0.  0.
        -24    2    5    5    0    0  0.69710598182E+02  0.17100741059E+03 -0.49145083103E+03  0.53106382649E+03  0.80011039955E+02 0.  0.
          5    1    3    3  501    0 -0.14896536278E+02  0.12528009543E+02 -0.88122725808E+01  0.21877019089E+02  0.47000000000E+01 0. -1.
        -13    1    4    4    0    0  0.21660651091E+02 -0.40445356097E+02 -0.17391491911E+03  0.17986497637E+03  0.00000000000E+00 0.  1.
         14    1    4    4    0    0 -0.78661845793E+02 -0.11173060793E+03 -0.58389922683E+03  0.59967467999E+03  0.00000000000E+00 0. -1.
         -5    1    5    5    0  502  0.21871327977E+01 -0.31359456098E+02 -0.73713838085E+02  0.80274647067E+02  0.47000000000E+01 0.  1.
         13    1    6    6    0    0 -0.37399616002E+01  0.90140459978E+02 -0.18747260951E+03  0.20805112149E+03  0.00000000000E+00 0. -1.
        -14    1    6    6    0    0  0.73450559782E+02  0.80866950608E+02 -0.30397822152E+03  0.32301270500E+03  0.00000000000E+00 0.  1.
</event>
<event>
12    1  0.1035051E+000  0.1863784E+03  0.7818608E-02  0.1162524E+00
         21   -1    0    0  501  502  0.00000000000E+00  0.00000000000E+00  0.26886337877E+03  0.26886337877E+03  0.00000000000E+00 0. -1.
         21   -1    0    0  502  503 -0.00000000000E+00 -0.00000000000E+00 -0.19937834358E+03  0.19937834358E+03  0.00000000000E+00 0.  1.
         -6    2    1    2    0  503 -0.65053006683E+02 -0.22335578943E+01 -0.10615474858E+03  0.21448948107E+03  0.17464256178E+03 0.  0.
        -24    2    3    3    0    0  0.13962720680E+02  0.43642540736E+02 -0.31715413892E+02  0.96542856936E+02  0.78835441372E+02 0.  0.
          6    2    1    2  501    0  0.65053006683E+02  0.22335578943E+01  0.17563978377E+03  0.25375224128E+03  0.17118406425E+03 0.  0.
         24    2    5    5    0    0  0.78952425856E+02  0.54653082678E+02  0.10149820462E+03  0.16177363404E+03  0.81537587244E+02 0.  0.
          5    1    5    5  501    0 -0.13899419172E+02 -0.52419524784E+02  0.74141579145E+02  0.91978607241E+02  0.47000000000E+01 0. -1.
        -13    1    6    6    0    0  0.32667772082E+02  0.25899641569E+02 -0.51559186092E+01  0.42006645461E+02  0.00000000000E+00 0.  1.
         14    1    6    6    0    0  0.46284653774E+02  0.28753441109E+02  0.10665412323E+03  0.11976698858E+03  0.00000000000E+00 0. -1.
         -5    1    3    3    0  503 -0.79015727363E+02 -0.45876098630E+02 -0.74439334686E+02  0.11794662413E+03  0.47000000000E+01 0.  1.
         11    1    4    4    0    0  0.29354100388E+02 -0.19955800994E+01  0.11735482000E+02  0.31675970187E+02  0.00000000000E+00 0. -1.
        -12    1    4    4    0    0 -0.15391379708E+02  0.45638120835E+02 -0.43450895892E+02  0.64866886749E+02  0.00000000000E+00 0.  1.
</event>
<event>
12    1  0.1035051E+000  0.1897251E+03  0.7818608E-02  0.1158881E+00
         21   -1    0    0  503  502  0.00000000000E+00  0.00000000000E+00  0.12194550010E+03  0.12194550010E+03  0.00000000000E+00 0.  1.
         21   -1    0    0  501  503 -0.00000000000E+00 -0.00000000000E+00 -0.56919420282E+03  0.56919420282E+03  0.00000000000E+00 0.  1.
          6    2    1    2  501    0 -0.70592308417E+02  0.35589180135E+02  0.16891816035E+02  0.18971969681E+03  0.17163439678E+03 0.  0.
         24    2    3    3    0    0 -0.62534526351E+02 -0.40302394745E+02 -0.47545740505E+01  0.11025199775E+03  0.81228363432E+02 0.  0.
         -6    2    1    2    0  502  0.70592308417E+02 -0.35589180135E+02 -0.46414051876E+03  0.50142000612E+03  0.17246952667E+03 0.  0.
        -24    2    5    5    0    0  0.32034337577E+02  0.50913698303E+01 -0.42291685911E+03  0.43168404426E+03  0.80251626284E+02 0.  0.
          5    1    3    3  501    0 -0.80577820660E+01  0.75891574880E+02  0.21646390085E+02  0.79467699056E+02  0.47000000000E+01 0. -1.
        -11    1    4    4    0    0  0.77040504275E+01 -0.85209957903E+01  0.25080542987E+02  0.27586108801E+02  0.00000000000E+00 0.  1.
         12    1    4    4    0    0 -0.70238576779E+02 -0.31781398955E+02 -0.29835117038E+02  0.82665888951E+02  0.00000000000E+00 0. -1.
         -5    1    5    5    0  502  0.38557970841E+02 -0.40680549965E+02 -0.41223659647E+02  0.69735961853E+02  0.47000000000E+01 0.  1.
         11    1    6    6    0    0  0.49875882020E+02  0.13115359748E+02 -0.16145602772E+03  0.16949237492E+03  0.00000000000E+00 0. -1.
        -12    1    6    6    0    0 -0.17841544444E+02 -0.80239899175E+01 -0.26146083139E+03  0.26219166934E+03  0.00000000000E+00 0.  1.
</event>
<event>
12    1  0.1035051E+000  0.2334174E+03  0.7818608E-02  0.1124263E+00
         21   -1    0    0  503  502  0.00000000000E+00  0.00000000000E+00  0.26830512436E+02  0.26830512436E+02  0.00000000000E+00 0. -1.
         21   -1    0    0  501  503 -0.00000000000E+00 -0.00000000000E+00 -0.25923359332E+04  0.25923359332E+04  0.00000000000E+00 0. -1.
          6    2    1    2  501    0  0.18897053928E+02 -0.15680090775E+03 -0.67296017121E+03  0.71228123387E+03  0.17182997637E+03 0.  0.
         24    2    3    3    0    0 -0.31204784682E+01 -0.14654919700E+03 -0.34445374726E+03  0.38284469995E+03  0.80220170501E+02 0.  0.
         -6    2    1    2    0  502 -0.18897053928E+02  0.15680090775E+03 -0.18925452496E+04  0.19068852118E+04  0.17187223716E+03 0.  0.
        -24    2    5    5    0    0  0.68166579228E+01  0.14761261356E+03 -0.10070266135E+04  0.10209332015E+04  0.79787537073E+02 0.  0.
          5    1    3    3  501    0  0.22017532396E+02 -0.10251710755E+02 -0.32850642395E+03  0.32943653392E+03  0.47000000000E+01 0. -1.
        -11    1    4    4    0    0 -0.35079489875E+02 -0.11108196519E+03 -0.20969149408E+03  0.23987558502E+03  0.00000000000E+00 0.  1.
         12    1    4    4    0    0  0.31959011406E+02 -0.35467231804E+02 -0.13476225318E+03  0.14296911493E+03  0.00000000000E+00 0. -1.
         -5    1    5    5    0  502 -0.25713711851E+02  0.91882941895E+01 -0.88551863613E+03  0.88595201036E+03  0.47000000000E+01 0.  1.
         13    1    6    6    0    0 -0.19414275876E+02  0.93414513106E+01 -0.25068203061E+03  0.25160615511E+03  0.00000000000E+00 0. -1.
        -14    1    6    6    0    0  0.26230933799E+02  0.13827116225E+03 -0.75634458287E+03  0.76932704634E+03  0.00000000000E+00 0.  1.
</event>
<event>
12    1  0.1035051E+000  0.2369593E+03  0.7818608E-02  0.1121980E+00
         21   -1    0    0  501  502  0.00000000000E+00  0.00000000000E+00  0.26734472724E+03  0.26734472724E+03  0.00000000000E+00 0.  1.
         21   -1    0    0  502  503 -0.00000000000E+00 -0.00000000000E+00 -0.22025762656E+03  0.22025762656E+03  0.00000000000E+00 0.  1.
         -6    2    1    2    0  503  0.73961953267E+02 -0.14558664803E+03  0.77950636420E+02  0.24864150109E+03  0.17052991448E+03 0.  0.
        -24    2    3    3    0    0  0.66387098056E+02 -0.27197252098E+02  0.58009728717E+02  0.12825397142E+03  0.89089927879E+02 0.  0.
          6    2    1    2  501    0 -0.73961953267E+02  0.14558664803E+03 -0.30863535743E+02  0.23896085270E+03  0.17170873207E+03 0.  0.
         24    2    5    5    0    0 -0.87366314240E+02  0.11640740594E+03 -0.76144722944E+02  0.18325106023E+03  0.81236538720E+02 0.  0.
          5    1    5    5  501    0  0.13404360973E+02  0.29179242093E+02  0.45281187201E+02  0.55709792466E+02  0.47000000000E+01 0. -1.
        -13    1    6    6    0    0 -0.55902024727E+01  0.67697861771E+02 -0.50588301262E+02  0.84696086548E+02  0.00000000000E+00 0.  1.
         14    1    6    6    0    0 -0.81776111768E+02  0.48709544167E+02 -0.25556421683E+02  0.98554973685E+02  0.00000000000E+00 0. -1.
         -5    1    3    3    0  503  0.75748552112E+01 -0.11838939593E+03  0.19940907703E+02  0.12038752967E+03  0.47000000000E+01 0.  1.
         11    1    4    4    0    0  0.45170331894E+02 -0.20155442797E+02  0.81810490665E+02  0.95601031064E+02  0.00000000000E+00 0. -1.
        -12    1    4    4    0    0  0.21216766162E+02 -0.70418093006E+01 -0.23800761948E+02  0.32652940356E+02  0.00000000000E+00 0.  1.
</event>
<event>
12    1  0.1035051E+000  0.1759818E+03  0.7818608E-02  0.1172079E+00
         21   -1    0    0  501  502  0.00000000000E+00  0.00000000000E+00  0.22695209697E+03  0.22695209697E+03  0.00000000000E+00 0. -1.
         21   -1    0    0  502  503 -0.00000000000E+00 -0.00000000000E+00 -0.20890601952E+03  0.20890601952E+03  0.00000000000E+00 0. -1.
         -6    2    1    2    0  503 -0.11242558872E+02 -0.37032990992E+02  0.13828201317E+03  0.22381133238E+03  0.17167341025E+03 0.  0.
        -24    2    3    3    0    0  0.38703032561E+02  0.13134748176E+02  0.36584740139E+02  0.99812181183E+02  0.83388140419E+02 0.  0.
          6    2    1    2  501    0  0.11242558872E+02  0.37032990992E+02 -0.12023593571E+03  0.21204678411E+03  0.17032122846E+03 0.  0.
         24    2    5    5    0    0 -0.14658750800E+02 -0.26580093542E+02 -0.11468328345E+03  0.14297852574E+03  0.79807411766E+02 0.  0.
          5    1    5    5  501    0  0.25901309671E+02  0.63613084534E+02 -0.55526522578E+01  0.69068258366E+02  0.47000000000E+01 0. -1.
        -13    1    6    6    0    0 -0.21972611414E+02  0.24024404462E+02 -0.58961296757E+02  0.67352818630E+02  0.00000000000E+00 0.  1.
         14    1    6    6    0    0  0.73138606143E+01 -0.50604498004E+02 -0.55721986695E+02  0.75625707115E+02  0.00000000000E+00 0. -1.
         -5    1    3    3    0  503 -0.49945591433E+02 -0.50167739167E+02  0.10169727303E+03  0.12399915120E+03  0.47000000000E+01 0.  1.
         11    1    4    4    0    0  0.54990068471E+01 -0.13384433483E+02 -0.22670406192E+02  0.26894784863E+02  0.00000000000E+00 0. -1.
        -12    1    4    4    0    0  0.33204025714E+02  0.26519181658E+02  0.59255146331E+02  0.72917396320E+02  0.00000000000E+00 0.  1.
</event>
<event>
12    1  0.1035051E+000  0.2896849E+03  0.7818608E-02  0.1090619E+00
         21   -1    0    0  501  502  0.00000000000E+00  0.00000000000E+00  0.21694187924E+04  0.21694187924E+04  0.00000000000E+00 0.  1.
         21   -1    0    0  502  503 -0.00000000000E+00 -0.00000000000E+00 -0.48105644409E+02  0.48105644409E+02  0.00000000000E+00 0. -1.
         -6    2    1    2    0  503 -0.23274363800E+03 -0.11659728718E+02  0.15553628210E+04  0.15821096114E+04  0.17208069929E+03 0.  0.
        -24    2    3    3    0    0 -0.58086310150E+02  0.54580852674E+01  0.79060266182E+03  0.79745784604E+03  0.86502238223E+02 0.  0.
          6    2    1    2  501    0  0.23274363800E+03  0.11659728718E+02  0.56595032701E+03  0.63541482548E+03  0.17072398043E+03 0.  0.
         24    2    5    5    0    0  0.16195009276E+03  0.69541453925E+02  0.33803366518E+03  0.38979293130E+03  0.81289139111E+02 0.  0.
          5    1    5    5  501    0  0.70793545243E+02 -0.57881725207E+02  0.22791666183E+03  0.24562189418E+03  0.47000000000E+01 0. -1.
        -11    1    6    6    0    0  0.26407950066E+02  0.40356285930E+02  0.13978833598E+03  0.14787423209E+03  0.00000000000E+00 0.  1.
         12    1    6    6    0    0  0.13554214269E+03  0.29185167995E+02  0.19824532920E+03  0.24191869921E+03  0.00000000000E+00 0. -1.
         -5    1    3    3    0  503 -0.17465732785E+03 -0.17117813986E+02  0.76476015920E+03  0.78465176532E+03  0.47000000000E+01 0.  1.
         13    1    4    4    0    0 -0.73635323392E+02  0.62211763960E+01  0.41467956578E+03  0.42121254274E+03  0.00000000000E+00 0. -1.
        -14    1    4    4    0    0  0.15549013242E+02 -0.76309112855E+00  0.37592309604E+03  0.37624530330E+03  0.00000000000E+00 0.  1.
</event>
<event>
12    1  0.1035051E+000  0.2804739E+03  0.7818608E-02  0.1095432E+00
         21   -1    0    0  501  502  0.00000000000E+00  0.00000000000E+00  0.15600794936E+03  0.15600794936E+03  0.00000000000E+00 0. -1.
         21   -1    0    0  502  503 -0.00000000000E+00 -0.00000000000E+00 -0.56929843889E+03  0.56929843889E+03  0.00000000000E+00 0.  1.
         -6    2    1    2    0  503  0.51623040711E+02  0.21526491812E+03 -0.84037375990E+02  0.29279328070E+03  0.17222572792E+03 0.  0.
        -24    2    3    3    0    0  0.45322179427E+02  0.10897909455E+03 -0.11401681862E+03  0.18208088697E+03  0.78886446712E+02 0.  0.
          6    2    1    2  501    0 -0.51623040711E+02 -0.21526491812E+03 -0.32925311354E+03  0.43251310755E+03  0.17220932646E+03 0.  0.
         24    2    5    5    0    0 -0.51689264049E+02 -0.11574996029E+03 -0.28734027744E+03  0.32442977374E+03  0.81365900255E+02 0.  0.
          5    1    5    5  501    0  0.66223338208E-01 -0.99514957827E+02 -0.41912836096E+02  0.10808333381E+03  0.47000000000E+01 0. -1.
        -11    1    6    6    0    0  0.10409485515E+02  0.58583600934E+01 -0.41835325027E+02  0.43507151042E+02  0.00000000000E+00 0.  1.
         12    1    6    6    0    0 -0.62098749564E+02 -0.12160832038E+03 -0.24550495242E+03  0.28092262270E+03  0.00000000000E+00 0. -1.
         -5    1    3    3    0  503  0.63008612835E+01  0.10628582357E+03  0.29979442634E+02  0.11071239373E+03  0.47000000000E+01 0.  1.
         11    1    4    4    0    0  0.15893255518E+02  0.36017432692E+02  0.47149694874E+01  0.39649488849E+02  0.00000000000E+00 0. -1.
        -12    1    4    4    0    0  0.29428923909E+02  0.72961661855E+02 -0.11873178811E+03  0.14243139812E+03  0.00000000000E+00 0.  1.
</event>
<event>
12    1  0.1035051E+000  0.2024674E+03  0.7818608E-02  0.1147793E+00
         21   -1    0    0  503  502  0.00000000000E+00  0.00000000000E+00  0.53561359299E+03  0.53561359299E+03  0.00000000000E+00 0. -1.
         21   -1    0    0  501  503 -0.00000000000E+00 -0.00000000000E+00 -0.97015857345E+02  0.97015857345E+02  0.00000000000E+00 0. -1.
          6    2    1    2  501    0  0.47721604831E+02 -0.94389261943E+02  0.72950560960E+02  0.21466904247E+03  0.17197188466E+03 0.  0.
         24    2    3    3    0    0  0.26428872918E+02  0.19642852596E+02  0.28759784066E+02  0.90444977410E+02  0.79176017690E+02 0.  0.
         -6    2    1    2    0  502 -0.47721604831E+02  0.94389261943E+02  0.36564717469E+03  0.41796040787E+03  0.17264519063E+03 0.  0.
        -24    2    5    5    0    0  0.30030704982E+02  0.63291563960E+02  0.13050458712E+03  0.16830741872E+03  0.79926682818E+02 0.  0.
          5    1    3    3  501    0  0.21292731913E+02 -0.11403211454E+03  0.44190776893E+02  0.12422406506E+03  0.47000000000E+01 0. -1.
        -13    1    4    4    0    0 -0.13448056775E+02  0.20905888997E+01  0.42607542401E+02  0.44728329529E+02  0.00000000000E+00 0.  1.
         14    1    4    4    0    0  0.39876929693E+02  0.17552263696E+02 -0.13847758334E+02  0.45716647881E+02  0.00000000000E+00 0. -1.
         -5    1    5    5    0  502 -0.77752309813E+02  0.31097697983E+02  0.23514258757E+03  0.24965298915E+03  0.47000000000E+01 0.  1.
         13    1    6    6    0    0  0.15848031916E+02 -0.77088935292E+01  0.75093943796E+02  0.77134217763E+02  0.00000000000E+00 0. -1.
        -14    1    6    6    0    0  0.14182673065E+02  0.71000457489E+02  0.55410643323E+02  0.91173200955E+02  0.00000000000E+00 0.  1.
</event>
<event>
12    1  0.1035051E+000  0.2716540E+03  0.7818608E-02  0.1100550E+00
         21   -1    0    0  501  502  0.00000000000E+00  0.00000000000E+00  0.81939160076E+02  0.81939160076E+02  0.00000000000E+00 0. -1.
         21   -1    0    0  502  503 -0.00000000000E+00 -0.00000000000E+00 -0.96636556965E+03  0.96636556965E+03  0.00000000000E+00 0. -1.
         -6    2    1    2    0  503 -0.16023245963E+03  0.13582602868E+03 -0.29930759926E+03  0.40320015036E+03  0.16988870207E+03 0.  0.
        -24    2    3    3    0    0 -0.95114929222E+02  0.10624190340E+03 -0.28722670552E+03  0.33051210988E+03  0.80030510530E+02 0.  0.
          6    2    1    2  501    0  0.16023245963E+03 -0.13582602868E+03 -0.58511881032E+03  0.64510457937E+03  0.17225778632E+03 0.  0.
         24    2    5    5    0    0  0.14575191914E+03 -0.58822044231E+02 -0.49560420128E+03  0.52604889952E+03  0.80001659559E+02 0.  0.
          5    1    5    5  501    0  0.14480540485E+02 -0.77003984454E+02 -0.89514609036E+02  0.11905567985E+03  0.47000000000E+01 0. -1.
        -13    1    6    6    0    0  0.11434897451E+03 -0.76438705661E+02 -0.34994875860E+03  0.37600890593E+03  0.00000000000E+00 0.  1.
         14    1    6    6    0    0  0.31402944628E+02  0.17616661430E+02 -0.14565544268E+03  0.15003999358E+03  0.00000000000E+00 0. -1.
         -5    1    3    3    0  503 -0.65117530404E+02  0.29584125290E+02 -0.12080893738E+02  0.72688040479E+02  0.47000000000E+01 0.  1.
         13    1    4    4    0    0 -0.59509472177E+02  0.11258770060E+03 -0.22495154135E+03  0.25849673801E+03  0.00000000000E+00 0. -1.
        -14    1    4    4    0    0 -0.35605457046E+02 -0.63457972036E+01 -0.62275164164E+02  0.72015371868E+02  0.00000000000E+00 0.  1.
</event>
<event>
12    1  0.1035051E+000  0.1769172E+03  0.7818608E-02  0.1171678E+00
         21   -1    0    0  503  502  0.00000000000E+00  0.00000000000E+00  0.15453600725E+03  0.15453600725E+03  0.00000000000E+00 0. -1.
         21   -1    0    0  501  503 -0.00000000000E+00 -0.00000000000E+00 -0.22993602953E+03  0.22993602953E+03  0.00000000000E+00 0. -1.
          6    2    1    2  501    0  0.29597666660E+02  0.17992908824E+02  0.33545701207E+02  0.17670086330E+03  0.16999445397E+03 0.  0.
         24    2    3    3    0    0  0.73375932793E+02  0.47745932448E+02  0.18114492148E+02  0.12136560137E+03  0.82083937470E+02 0.  0.
         -6    2    1    2    0  502 -0.29597666660E+02 -0.17992908824E+02 -0.10894572349E+03  0.20777117349E+03  0.17349329447E+03 0.  0.
        -24    2    5    5    0    0  0.13712605077E+02 -0.26848058508E+02 -0.13251890026E+03  0.15745240982E+03  0.79505651677E+02 0.  0.
          5    1    3    3  501    0 -0.43778266133E+02 -0.29753023624E+02  0.15431209060E+02  0.55335261935E+02  0.47000000000E+01 0. -1.
        -13    1    4    4    0    0  0.17210486111E+02 -0.11912927768E+02 -0.21801345638E+02  0.30222795235E+02  0.00000000000E+00 0.  1.
         14    1    4    4    0    0  0.56165446682E+02  0.59658860216E+02  0.39915837786E+02  0.91142806131E+02  0.00000000000E+00 0. -1.
         -5    1    5    5    0  502 -0.43310271737E+02  0.88551496845E+01  0.23573176771E+02  0.50318763667E+02  0.47000000000E+01 0.  1.
         11    1    6    6    0    0 -0.18698764939E+02  0.16922626737E+02 -0.19105585713E+02  0.31639255860E+02  0.00000000000E+00 0. -1.
        -12    1    6    6    0    0  0.32411370016E+02 -0.43770685245E+02 -0.11341331455E+03  0.12581315396E+03  0.00000000000E+00 0.  1.
</event>
<event>
12    1  0.1035051E+000  0.2598861E+03  0.7818608E-02  0.1107241E+00
         21   -1    0    0  501  502  0.00000000000E+00  0.00000000000E+00  0.15374177640E+04  0.15374177640E+04  0.00000000000E+00 0. -1.
         21   -1    0    0  502  503 -0.00000000000E+00 -0.00000000000E+00 -0.44924791999E+02  0.44924791999E+02  0.00000000000E+00 0. -1.
         -6    2    1    2    0  503 -0.18857963645E+03  0.47856146007E+02  0.62635951711E+03  0.67805945525E+03  0.17200549463E+03 0.  0.
        -24    2    3    3    0    0 -0.60585982326E+02  0.67710414956E+02  0.39491441482E+03  0.41279450682E+03  0.78654613847E+02 0.  0.
          6    2    1    2  501    0  0.18857963645E+03 -0.47856146007E+02  0.86613345491E+03  0.90428310077E+03  0.17230285730E+03 0.  0.
         24    2    5    5    0    0  0.63784037951E+02 -0.71877344301E+02  0.54012787565E+03  0.55435069719E+03  0.79572717019E+02 0.  0.
          5    1    5    5  501    0  0.12479559849E+03  0.24021198294E+02  0.32600557926E+03  0.34993240358E+03  0.47000000000E+01 0. -1.
        -11    1    6    6    0    0  0.28735909277E+01  0.14222995915E+02  0.13279498948E+03  0.13358540477E+03  0.00000000000E+00 0.  1.
         12    1    6    6    0    0  0.60910447023E+02 -0.86100340216E+02  0.40733288617E+03  0.42076529241E+03  0.00000000000E+00 0. -1.
         -5    1    3    3    0  503 -0.12799365412E+03 -0.19854268949E+02  0.23144510229E+03  0.26526494842E+03  0.47000000000E+01 0.  1.
         11    1    4    4    0    0 -0.64736123192E+02  0.14003891929E+02  0.22498639553E+03  0.23453305270E+03  0.00000000000E+00 0. -1.
        -12    1    4    4    0    0  0.41501408660E+01  0.53706523027E+02  0.16992801929E+03  0.17826145412E+03  0.00000000000E+00 0.  1.
</event>
<event>
12    1  0.1035051E+000  0.2307957E+03  0.7818608E-02  0.1126483E+00
         21   -1    0    0  501  502  0.00000000000E+00  0.00000000000E+00  0.12843779563E+04  0.12843779563E+04  0.00000000000E+00 0.  1.
         21   -1    0    0  502  503 -0.00000000000E+00 -0.00000000000E+00 -0.41460490847E+02  0.41460490847E+02  0.00000000000E+00 0.  1.
         -6    2    1    2    0  503  0.14509129584E+03 -0.39206377098E+02  0.68327118114E+03  0.72047029543E+03  0.17213168065E+03 0.  0.
        -24    2    3    3    0    0  0.15501836242E+03  0.13910506800E+02  0.48309537668E+03  0.51307600260E+03  0.75110895280E+02 0.  0.
          6    2    1    2  501    0 -0.14509129584E+03  0.39206377098E+02  0.55964628432E+03  0.60536815173E+03  0.17515139576E+03 0.  0.
         24    2    5    5    0    0 -0.63498074064E+02 -0.48275393552E+02  0.28059677842E+03  0.30172159604E+03  0.77063937255E+02 0.  0.
          5    1    5    5  501    0 -0.81593221776E+02  0.87481770649E+02  0.27904950590E+03  0.30364655568E+03  0.47000000000E+01 0. -1.
        -13    1    6    6    0    0 -0.16324425180E+02 -0.58373402335E+02  0.18439037007E+03  0.19409726822E+03  0.00000000000E+00 0.  1.
         14    1    6    6    0    0 -0.47173648884E+02  0.10098008783E+02  0.96206408358E+02  0.10762432782E+03  0.00000000000E+00 0. -1.
         -5    1    3    3    0  503 -0.99270665789E+01 -0.53116883897E+02  0.20017580446E+03  0.20739429283E+03  0.47000000000E+01 0.  1.
         13    1    4    4    0    0  0.13162415323E+02 -0.21877512043E+02  0.93272712654E+02  0.96704051808E+02  0.00000000000E+00 0. -1.
        -14    1    4    4    0    0  0.14185594710E+03  0.35788018842E+02  0.38982266402E+03  0.41637195079E+03  0.00000000000E+00 0.  1.
</event>
<event>
12    1  0.1035051E+000  0.2911116E+03  0.7818608E-02  0.1089959E+00
         21   -1    0    0  501  502  0.00000000000E+00  0.00000000000E+00  0.28298502602E+03  0.28298502602E+03  0.00000000000E+00 0.  1.
         21   -1    0    0  502  503 -0.00000000000E+00 -0.00000000000E+00 -0.43880187449E+03  0.43880187449E+03  0.00000000000E+00 0.  1.
         -6    2    1    2    0  503 -0.99150707030E+01  0.23280012670E+03 -0.28248640567E+03  0.40564090912E+03  0.17450435564E+03 0.  0.
        -24    2    3    3    0    0 -0.66893166242E+02  0.15940035306E+03 -0.23045657654E+03  0.29904248858E+03  0.80206035049E+02 0.  0.
          6    2    1    2  501    0  0.99150707030E+01 -0.23280012670E+03  0.12666955721E+03  0.31614599140E+03  0.17207237876E+03 0.  0.
         24    2    5    5    0    0  0.18375812812E+02 -0.52968638057E+02  0.41533252614E+01  0.98331240851E+02  0.80674876526E+02 0.  0.
          5    1    5    5  501    0 -0.84607421089E+01 -0.17983148865E+03  0.12251623194E+03  0.21781475055E+03  0.47000000000E+01 0. -1.
        -11    1    6    6    0    0  0.27227847846E+02 -0.43763938900E+02  0.36763107180E+02  0.63310063149E+02  0.00000000000E+00 0.  1.
         12    1    6    6    0    0 -0.88520350345E+01 -0.92046991574E+01 -0.32609781919E+02  0.35021177702E+02  0.00000000000E+00 0. -1.
         -5    1    3    3    0  503  0.56978095539E+02  0.73399773639E+02 -0.52029829134E+02  0.10659842054E+03  0.47000000000E+01 0.  1.
         13    1    4    4    0    0 -0.14119278219E+02  0.11415675594E+03 -0.17810855346E+03  0.21202305478E+03  0.00000000000E+00 0. -1.
        -14    1    4    4    0    0 -0.52773888024E+02  0.45243597129E+02 -0.52348023081E+02  0.87019433800E+02  0.00000000000E+00 0.  1.
</event>
<event>
12    1  0.1035051E+000  0.4113531E+03  0.7818608E-02  0.1040020E+00
         21   -1    0    0  503  502  0.00000000000E+00  0.00000000000E+00  0.87905482620E+03  0.87905482620E+03  0.00000000000E+00 0.  1.
         21   -1    0    0  501  503 -0.00000000000E+00 -0.00000000000E+00 -0.30681927011E+03  0.30681927011E+03  0.00000000000E+00 0.  1.
          6    2    1    2  501    0  0.12302339913E+03 -0.35246821406E+03  0.64869829720E+03  0.76747486024E+03  0.16982220602E+03 0.  0.
         24    2    3    3    0    0  0.89036831416E+02 -0.25070849629E+03  0.57367422694E+03  0.63647551649E+03  0.72226428531E+02 0.  0.
         -6    2    1    2    0  502 -0.12302339913E+03  0.35246821406E+03 -0.76462741115E+02  0.41839923607E+03  0.17275060437E+03 0.  0.
        -24    2    5    5    0    0 -0.13709033253E+03  0.26443701428E+03 -0.13015192012E+02  0.30887731024E+03  0.80716192704E+02 0.  0.
          5    1    3    3  501    0  0.33986567714E+02 -0.10175971777E+03  0.75024070269E+02  0.13099934376E+03  0.47000000000E+01 0. -1.
        -11    1    4    4    0    0  0.45427618437E+02 -0.49861202895E+02  0.18303451236E+03  0.19506778511E+03  0.00000000000E+00 0.  1.
         12    1    4    4    0    0  0.43609212980E+02 -0.20084729340E+03  0.39063971457E+03  0.44140773138E+03  0.00000000000E+00 0. -1.
         -5    1    5    5    0  502  0.14066933403E+02  0.88031199782E+02 -0.63447549103E+02  0.10952192583E+03  0.47000000000E+01 0.  1.
         11    1    6    6    0    0 -0.90225282124E+02  0.22749945116E+03  0.99473179978E+01  0.24493989252E+03  0.00000000000E+00 0. -1.
        -12    1    6    6    0    0 -0.46865050409E+02  0.36937563117E+02 -0.22962510009E+02  0.63937417721E+02  0.00000000000E+00 0.  1.
</event>
<event>
12    1  0.1035051E+000  0.1749354E+03  0.7818608E-02  0.1172955E+00
         21   -1    0    0  503  502  0.00000000000E+00  0.00000000000E+00  0.20581754106E+03  0.20581754106E+03  0.00000000000E+00 0. -1.
         21   -1    0    0  501  503 -0.00000000000E+00 -0.00000000000E+00 -0.16971147891E+03  0.16971147891E+03  0.00000000000E+00 0. -1.
          6    2    1    2  501    0  0.26404807253E+02  0.13715036266E+02  0.84944794941E+02  0.19390406298E+03  0.17174938540E+03 0.  0.
         24    2    3    3    0    0 -0.50063614381E+02 -0.73055631665E+01  0.47284460837E+02  0.10598548774E+03  0.80233201585E+02 0.  0.
         -6    2    1    2    0  502 -0.26404807253E+02 -0.13715036266E+02 -0.48838732791E+02  0.18162495698E+03  0.17238644701E+03 0.  0.
        -24    2    5    5    0    0 -0.83731922164E+02 -0.23551770507E+00 -0.34006202432E+02  0.12071363224E+03  0.80026676477E+02 0.  0.
          5    1    3    3  501    0  0.76468421633E+02  0.21020599432E+02  0.37660334104E+02  0.87918575241E+02  0.47000000000E+01 0. -1.
        -13    1    4    4    0    0 -0.12747353291E+02 -0.30985836945E+02  0.51659582172E+02  0.61573773129E+02  0.00000000000E+00 0.  1.
         14    1    4    4    0    0 -0.37316261089E+02  0.23680273779E+02 -0.43751213347E+01  0.44411714610E+02  0.00000000000E+00 0. -1.
         -5    1    5    5    0  502  0.57327114911E+02 -0.13479518561E+02 -0.14832530359E+02  0.60911324740E+02  0.47000000000E+01 0.  1.
         13    1    6    6    0    0 -0.79566406710E+01  0.79023284185E+01  0.22968514264E+02  0.25559882095E+02  0.00000000000E+00 0. -1.
        -14    1    6    6    0    0 -0.75775281493E+02 -0.81378461236E+01 -0.56974716697E+02  0.95153750150E+02  0.00000000000E+00 0.  1.
</event>
<event>
12    1  0.1035051E+000  0.1916654E+03  0.7818608E-02  0.1157108E+00
         21   -1    0    0  503  502  0.00000000000E+00  0.00000000000E+00  0.28472845121E+02  0.28472845121E+02  0.00000000000E+00 0. -1.
         21   -1    0    0  501  503 -0.00000000000E+00 -0.00000000000E+00 -0.12883330540E+04  0.12883330540E+04  0.00000000000E+00 0. -1.
          6    2    1    2  501    0  0.16950507683E+02  0.82522215859E+02 -0.65903891273E+03  0.68634388376E+03  0.17215807408E+03 0.  0.
         24    2    3    3    0    0  0.71431709063E+02  0.34394008581E+02 -0.31733749886E+03  0.33696375858E+03  0.80969435737E+02 0.  0.
         -6    2    1    2    0  502 -0.16950507683E+02 -0.82522215859E+02 -0.60082129610E+03  0.63046201531E+03  0.17146103660E+03 0.  0.
        -24    2    5    5    0    0  0.12860724205E+02 -0.64596621127E+02 -0.17798529402E+03  0.20617153562E+03  0.80559391293E+02 0.  0.
          5    1    3    3  501    0 -0.54481201380E+02  0.48128207277E+02 -0.34170141386E+03  0.34938012519E+03  0.47000000000E+01 0. -1.
        -13    1    4    4    0    0  0.40143491049E+02  0.53668731468E+02 -0.26272120138E+03  0.27113513653E+03  0.00000000000E+00 0.  1.
         14    1    4    4    0    0  0.31288218014E+02 -0.19274722887E+02 -0.54616297489E+02  0.65828622045E+02  0.00000000000E+00 0. -1.
         -5    1    5    5    0  502 -0.29811231888E+02 -0.17925594732E+02 -0.42283600208E+03  0.42429047969E+03  0.47000000000E+01 0.  1.
         13    1    6    6    0    0 -0.32483918468E+02 -0.14957618511E+02 -0.48344865616E+02  0.60134527037E+02  0.00000000000E+00 0. -1.
        -14    1    6    6    0    0  0.45344642673E+02 -0.49639002615E+02 -0.12964042840E+03  0.14603700858E+03  0.00000000000E+00 0.  1.
</event>
<event>
12    1  0.1035051E+000  0.2880197E+03  0.7818608E-02  0.1091408E+00
         21   -1    0    0  501  502  0.00000000000E+00  0.00000000000E+00  0.92908940740E+03  0.92908940740E+03  0.00000000000E+00 0.  1.
         21   -1    0    0  502  503 -0.00000000000E+00 -0.00000000000E+00 -0.93872929927E+02  0.93872929927E+02  0.00000000000E+00 0. -1.
         -6    2    1    2    0  503 -0.22028817024E+03  0.67838619514E+02  0.53115366171E+03  0.60414314399E+03  0.17244062701E+03 0.  0.
        -24    2    3    3    0    0 -0.52109268456E+02  0.31699131562E+02  0.29786578675E+03  0.31425432359E+03  0.79445214932E+02 0.  0.
          6    2    1    2  501    0  0.22028817024E+03 -0.67838619514E+02  0.30406281577E+03  0.41881919333E+03  0.17270311092E+03 0.  0.
         24    2    5    5    0    0  0.88256516580E+02 -0.52938572212E+02  0.23612328105E+03  0.26951333492E+03  0.79319157193E+02 0.  0.
          5    1    5    5  501    0  0.13203165366E+03 -0.14900047302E+02  0.67939534717E+02  0.14930585841E+03  0.47000000000E+01 0. -1.
        -11    1    6    6    0    0  0.39321529546E+02 -0.16379879445E+02  0.24261102092E+02  0.49021262848E+02  0.00000000000E+00 0.  1.
         12    1    6    6    0    0  0.48934987034E+02 -0.36558692767E+02  0.21186217896E+03  0.22049207207E+03  0.00000000000E+00 0. -1.
         -5    1    3    3    0  503 -0.16817890179E+03  0.36139487952E+02  0.23328787495E+03  0.28988882040E+03  0.47000000000E+01 0.  1.
         11    1    4    4    0    0  0.42931505759E+01 -0.21080437336E+02  0.45468532317E+02  0.50301127335E+02  0.00000000000E+00 0. -1.
        -12    1    4    4    0    0 -0.56402419032E+02  0.52779568898E+02  0.25239725444E+03  0.26395319626E+03  0.00000000000E+00 0.  1.
</event>
<event>
12    1  0.1035051E+000  0.2221601E+03  0.7818608E-02  0.1132703E+00
         21   -1    0    0  501  502  0.00000000000E+00  0.00000000000E+00  0.10806430443E+04  0.10806430443E+04  0.00000000000E+00 0. -1.
         21   -1    0    0  502  503 -0.00000000000E+00 -0.00000000000E+00 -0.54095838293E+02  0.54095838293E+02  0.00000000000E+00 0. -1.
         -6    2    1    2    0  503 -0.13470565077E+03 -0.33209807571E+02  0.28107479833E+03  0.35686728164E+03  0.17059516635E+03 0.  0.
        -24    2    3    3    0    0 -0.12798826930E+03 -0.26005790167E+02  0.11470987762E+03  0.19014476390E+03  0.77067353754E+02 0.  0.
          6    2    1    2  501    0  0.13470565077E+03  0.33209807571E+02  0.74547240766E+03  0.77787160093E+03  0.17351257386E+03 0.  0.
         24    2    5    5    0    0  0.16738944574E+03  0.35938467503E+02  0.66225291425E+03  0.68829900400E+03  0.76588487896E+02 0.  0.
          5    1    5    5  501    0 -0.32683794969E+02 -0.27286599324E+01  0.83219493413E+02  0.89572596939E+02  0.47000000000E+01 0. -1.
        -11    1    6    6    0    0  0.36109729096E+02 -0.21350464620E+02  0.10867002288E+03  0.11648574483E+03  0.00000000000E+00 0.  1.
         12    1    6    6    0    0  0.13127971665E+03  0.57288932123E+02  0.55358289137E+03  0.57181325917E+03  0.00000000000E+00 0. -1.
         -5    1    3    3    0  503 -0.67173814783E+01 -0.72040174035E+01  0.16636492070E+03  0.16672251774E+03  0.47000000000E+01 0.  1.
         11    1    4    4    0    0 -0.33727416525E+02 -0.14786010460E+02 -0.52188989617E+01  0.37194107559E+02  0.00000000000E+00 0. -1.
        -12    1    4    4    0    0 -0.94260852771E+02 -0.11219779707E+02  0.11992877659E+03  0.15295065634E+03  0.00000000000E+00 0.  1.
</event>
<event>
12    1  0.1035051E+000  0.2621490E+03  0.7818608E-02  0.1106237E+00
         21   -1    0    0  503  502  0.00000000000E+00  0.00000000000E+00  0.11923793584E+03  0.11923793584E+03  0.00000000000E+00 0. -1.
         21   -1    0    0  501  503 -0.00000000000E+00 -0.00000000000E+00 -0.63215395172E+03  0.63215395172E+03  0.00000000000E+00 0. -1.
          6    2    1    2  501    0  0.14843564440E+03  0.13170299247E+03 -0.13828175905E+03  0.29414698591E+03  0.16739708982E+03 0.  0.
         24    2    3    3    0    0  0.77327813790E+02  0.14808637454E+03 -0.87260332442E+02  0.20498413067E+03  0.80591333876E+02 0.  0.
         -6    2    1    2    0  502 -0.14843564440E+03 -0.13170299247E+03 -0.37463425684E+03  0.45724490165E+03  0.17129873011E+03 0.  0.
        -24    2    5    5    0    0 -0.38544349252E+01 -0.41546450375E+02 -0.10601693521E+03  0.13911083605E+03  0.79820235210E+02 0.  0.
          5    1    3    3  501    0  0.71107830611E+02 -0.16383382077E+02 -0.51021426603E+02  0.89162855244E+02  0.47000000000E+01 0. -1.
        -11    1    4    4    0    0  0.80158182123E+02  0.13685880731E+03 -0.50511669393E+02  0.16645448641E+03  0.00000000000E+00 0.  1.
         12    1    4    4    0    0 -0.28303683336E+01  0.11227567232E+02 -0.36748663048E+02  0.38529644258E+02  0.00000000000E+00 0. -1.
         -5    1    5    5    0  502 -0.14458120948E+03 -0.90156542092E+02 -0.26861732163E+03  0.31813406560E+03  0.47000000000E+01 0.  1.
         13    1    6    6    0    0 -0.23948437671E+02 -0.30930215487E+02 -0.10935498542E+03  0.11614094340E+03  0.00000000000E+00 0. -1.
        -14    1    6    6    0    0  0.20094002745E+02 -0.10616234888E+02  0.33380502086E+01  0.22969892658E+02  0.00000000000E+00 0.  1.
</event>
<event>
12    1  0.1035051E+000  0.1794157E+03  0.7818608E-02  0.1168546E+00
         21   -1    0    0  503  502  0.00000000000E+00  0.00000000000E+00  0.39428650614E+03  0.39428650614E+03  0.00000000000E+00 0. -1.
         21   -1    0    0  501  503 -0.00000000000E+00 -0.00000000000E+00 -0.92661931348E+02  0.92661931348E+02  0.00000000000E+00 0. -1.
          6    2    1    2  501    0 -0.34972888751E+02  0.35261408284E+02  0.65337030589E+02  0.19026376419E+03  0.17165343730E+03 0.  0.
         24    2    3    3    0    0  0.71530246152E+01  0.59249460956E+02 -0.80483339912E+01  0.10218697393E+03  0.82557480442E+02 0.  0.
         -6    2    1    2    0  502  0.34972888751E+02 -0.35261408284E+02  0.23628754421E+03  0.29668467330E+03  0.17240511002E+03 0.  0.
        -24    2    5    5    0    0  0.14990120418E+02  0.36486354688E+02  0.19246132403E+03  0.21014057993E+03  0.74577103041E+02 0.  0.
          5    1    3    3  501    0 -0.42125913367E+02 -0.23988052672E+02  0.73385364580E+02  0.88076790260E+02  0.47000000000E+01 0. -1.
        -11    1    4    4    0    0 -0.19379659346E+02  0.28833669893E+02 -0.38327629369E+02  0.51729671263E+02  0.00000000000E+00 0.  1.
         12    1    4    4    0    0  0.26532683962E+02  0.30415791063E+02  0.30279295378E+02  0.50457302670E+02  0.00000000000E+00 0. -1.
         -5    1    5    5    0  502  0.19982768333E+02 -0.71747762972E+02  0.43826220176E+02  0.86544093367E+02  0.47000000000E+01 0.  1.
         11    1    6    6    0    0  0.14123608450E+02  0.31864943280E+02  0.25680862699E+02  0.43293852160E+02  0.00000000000E+00 0. -1.
        -12    1    6    6    0    0  0.86651196886E+00  0.46214114081E+01  0.16678046133E+03  0.16684672777E+03  0.00000000000E+00 0.  1.
</event>
<event>
12    1  0.1035051E+000  0.2758939E+03  0.7818608E-02  0.1097969E+00
         21   -1    0    0  503  502  0.00000000000E+00  0.00000000000E+00  0.13163250101E+03  0.13163250101E+03  0.00000000000E+00 0. -1.
         21   -1    0    0  501  503 -0.00000000000E+00 -0.00000000000E+00 -0.11083234223E+04  0.11083234223E+04  0.00000000000E+00 0. -1.
          6    2    1    2  501    0  0.30202558583E+02 -0.21320587067E+03 -0.59438176998E+02  0.28210934782E+03  0.17229001540E+03 0.  0.
         24    2    3    3    0    0 -0.43232740164E+02 -0.91053542365E+02 -0.57744827064E+02  0.13949486101E+03  0.77230394254E+02 0.  0.
         -6    2    1    2    0  502 -0.30202558583E+02  0.21320587067E+03 -0.91725274433E+03  0.95784657552E+03  0.17247761428E+03 0.  0.
        -24    2    5    5    0    0 -0.69397945595E+02  0.13488070846E+03 -0.74557180014E+03  0.76505771174E+03  0.80169275729E+02 0.  0.
          5    1    3    3  501    0  0.73435298747E+02 -0.12215232831E+03 -0.16933499337E+01  0.14261448680E+03  0.47000000000E+01 0. -1.
        -11    1    4    4    0    0  0.10813878769E+02 -0.65798965852E+02 -0.23456395762E+02  0.70686960491E+02  0.00000000000E+00 0.  1.
         12    1    4    4    0    0 -0.54046618933E+02 -0.25254576513E+02 -0.34288431302E+02  0.68807900521E+02  0.00000000000E+00 0. -1.
         -5    1    5    5    0  502  0.39195387012E+02  0.78325162211E+02 -0.17168094419E+03  0.19278886378E+03  0.47000000000E+01 0.  1.
         13    1    6    6    0    0 -0.49553984189E+01  0.93565473317E+02 -0.45693817853E+03  0.46644565897E+03  0.00000000000E+00 0. -1.
        -14    1    6    6    0    0 -0.64442547176E+02  0.41315235142E+02 -0.28863362161E+03  0.29861205278E+03  0.00000000000E+00 0.  1.
</event>
<event>
12    1  0.1035051E+000  0.1897992E+03  0.7818608E-02  0.1158987E+00
         21   -1    0    0  503  502  0.00000000000E+00  0.00000000000E+00  0.54462820509E+02  0.54462820509E+02  0.00000000000E+00 0.  1.
         21   -1    0    0  501  503 -0.00000000000E+00 -0.00000000000E+00 -0.68946411728E+03  0.68946411728E+03  0.00000000000E+00 0.  1.
          6    2    1    2  501    0 -0.76069136881E+02  0.27086049486E+02 -0.23452953885E+03  0.30075500620E+03  0.17008615905E+03 0.  0.
         24    2    3    3    0    0 -0.33522310268E+01 -0.90334751599E+01 -0.66604692463E+02  0.11417201531E+03  0.92229186786E+02 0.  0.
         -6    2    1    2    0  502  0.76069136881E+02 -0.27086049486E+02 -0.40047175793E+03  0.44317193159E+03  0.17176601640E+03 0.  0.
        -24    2    5    5    0    0  0.82216082665E+02 -0.39124895852E+02 -0.15143845896E+03  0.19372776397E+03  0.79414091677E+02 0.  0.
          5    1    3    3  501    0 -0.72716905854E+02  0.36119524646E+02 -0.16792484639E+03  0.18658299090E+03  0.47000000000E+01 0. -1.
        -11    1    4    4    0    0 -0.98631706890E+01 -0.44359215188E+02 -0.63544396355E+02  0.78121139368E+02  0.00000000000E+00 0.  1.
         12    1    4    4    0    0  0.65109396622E+01  0.35325740028E+02 -0.30602961086E+01  0.36050875940E+02  0.00000000000E+00 0. -1.
         -5    1    5    5    0  502 -0.61469457834E+01  0.12038846366E+02 -0.24903329897E+03  0.24944416762E+03  0.47000000000E+01 0.  1.
         11    1    6    6    0    0 -0.64975318576E+01  0.12667133570E+02 -0.55028953189E+01  0.15262897825E+02  0.00000000000E+00 0. -1.
        -12    1    6    6    0    0  0.88713614522E+02 -0.51792029422E+02 -0.14593556364E+03  0.17846486614E+03  0.00000000000E+00 0.  1.
</event>
<event>
12    1  0.1035051E+000  0.2376504E+03  0.7818608E-02  0.1121544E+00
         21   -1    0    0  503  502  0.00000000000E+00  0.00000000000E+00  0.10444850930E+04  0.10444850930E+04  0.00000000000E+00 0. -1.
         21   -1    0    0  501  503 -0.00000000000E+00 -0.00000000000E+00 -0.54408780936E+02  0.54408780936E+02  0.00000000000E+00 0. -1.
          6    2    1    2  501    0 -0.69399630593E+02 -0.14767650702E+03  0.43754942593E+03  0.49742593332E+03  0.17134292967E+03 0.  0.
         24    2    3    3    0    0  0.23032912971E+01 -0.11846710325E+03  0.17491378848E+03  0.22357548812E+03  0.73153303293E+02 0.  0.
         -6    2    1    2    0  502  0.69399630593E+02  0.14767650702E+03  0.55252688617E+03  0.60146794066E+03  0.17278039312E+03 0.  0.
        -24    2    5    5    0    0  0.13003094221E+02  0.12891235989E+03  0.24346786309E+03  0.28671052251E+03  0.78350790476E+02 0.  0.
          5    1    3    3  501    0 -0.71702921890E+02 -0.29209403774E+02  0.26263563745E+03  0.27385044520E+03  0.47000000000E+01 0. -1.
        -13    1    4    4    0    0  0.15359543531E+02 -0.10464326736E+03  0.17509589600E+03  0.20455977556E+03  0.00000000000E+00 0.  1.
         14    1    4    4    0    0 -0.13056252233E+02 -0.13823835890E+02 -0.18210751229E+00  0.19015712562E+02  0.00000000000E+00 0. -1.
         -5    1    5    5    0  502  0.56396536372E+02  0.18764147130E+02  0.30905902308E+03  0.31475741815E+03  0.47000000000E+01 0.  1.
         13    1    6    6    0    0  0.37734709215E+02  0.49423590276E+02  0.14498591747E+03  0.15775777579E+03  0.00000000000E+00 0. -1.
        -14    1    6    6    0    0 -0.24731614994E+02  0.79488769617E+02  0.98481945617E+02  0.12895274673E+03  0.00000000000E+00 0.  1.
</event>
<event>
12    1  0.1035051E+000  0.2157276E+03  0.7818608E-02  0.1137721E+00
         21   -1    0    0  501  502  0.00000000000E+00  0.00000000000E+00  0.36595648164E+02  0.36595648164E+02  0.00000000000E+00 0.  1.
         21   -1    0    0  502  503 -0.00000000000E+00 -0.00000000000E+00 -0.14602577890E+04  0.14602577890E+04  0.00000000000E+00 0.  1.
         -6    2    1    2    0  503 -0.96352804499E+02  0.80242098134E+02 -0.99829042842E+03  0.10213335246E+04  0.17554410182E+03 0.  0.
        -24    2    3    3    0    0 -0.46882801682E+02  0.11851650914E+03 -0.77812390024E+03  0.79240645791E+03  0.78657678480E+02 0.  0.
          6    2    1    2  501    0  0.96352804499E+02 -0.80242098134E+02 -0.42537171238E+03  0.47551991256E+03  0.17162586140E+03 0.  0.
         24    2    5    5    0    0  0.10658777590E+03 -0.27516836124E+01 -0.24558111642E+03  0.27941721656E+03  0.79971059986E+02 0.  0.
          5    1    5    5  501    0 -0.10234971399E+02 -0.77490414521E+02 -0.17979059595E+03  0.19610269599E+03  0.47000000000E+01 0. -1.
        -13    1    6    6    0    0  0.76874568810E+02 -0.22986953576E+02 -0.22292246821E+03  0.23692303856E+03  0.00000000000E+00 0.  1.
         14    1    6    6    0    0  0.29713207087E+02  0.20235269964E+02 -0.22658648212E+02  0.42494178010E+02  0.00000000000E+00 0. -1.
         -5    1    3    3    0  503 -0.49470002817E+02 -0.38274411008E+02 -0.22016652818E+03  0.22892706666E+03  0.47000000000E+01 0.  1.
         11    1    4    4    0    0 -0.66664792830E+02  0.10876343417E+03 -0.65045143326E+03  0.66284292728E+03  0.00000000000E+00 0. -1.
        -12    1    4    4    0    0  0.19781991148E+02  0.97530749737E+01 -0.12767246697E+03  0.12956353063E+03  0.00000000000E+00 0.  1.
</event>
<event>
12    1  0.1035051E+000  0.1967659E+03  0.7818608E-02  0.1153090E+00
         21   -1    0    0  503  502  0.00000000000E+00  0.00000000000E+00  0.51306481517E+03  0.51306481517E+03  0.00000000000E+00 0.  1.
         21   -1    0    0  501  503 -0.00000000000E+00 -0.00000000000E+00 -0.97344476231E+02  0.97344476231E+02  0.00000000000E+00 0.  1.
          6    2    1    2  501    0 -0.77954426029E+02 -0.49611035332E+02  0.60855221472E+02  0.20596158234E+03  0.17372008535E+03 0.  0.
         24    2    3    3    0    0 -0.72891911321E+02  0.14075176177E+02 -0.10255514440E+02  0.11025165938E+03  0.80863536272E+02 0.  0.
         -6    2    1    2    0  502  0.77954426029E+02  0.49611035332E+02  0.35486511747E+03  0.40444770906E+03  0.17061814208E+03 0.  0.
        -24    2    5    5    0    0  0.57805637437E+02  0.95814114843E+02  0.30192643066E+03  0.33119955005E+03  0.77535386104E+02 0.  0.
          5    1    3    3  501    0 -0.50625147074E+01 -0.63686211509E+02  0.71110735912E+02  0.95709922963E+02  0.47000000000E+01 0. -1.
        -11    1    4    4    0    0 -0.29433536555E+01  0.11558672869E+01 -0.34846194828E+02  0.34989379159E+02  0.00000000000E+00 0.  1.
         12    1    4    4    0    0 -0.69948557666E+02  0.12919308890E+02  0.24590680388E+02  0.75262280218E+02  0.00000000000E+00 0. -1.
         -5    1    5    5    0  502  0.20148788592E+02 -0.46203079511E+02  0.52938686811E+02  0.73248159016E+02  0.47000000000E+01 0.  1.
         11    1    6    6    0    0  0.76617658188E+02  0.69777894628E+02  0.21942235750E+03  0.24266312265E+03  0.00000000000E+00 0. -1.
        -12    1    6    6    0    0 -0.18812020752E+02  0.26036220215E+02  0.82504073160E+02  0.88536427395E+02  0.00000000000E+00 0.  1.
</event>
<event>
12    1  0.1035051E+000  0.2192457E+03  0.7818608E-02  0.1134485E+00
         21   -1    0    0  503  502  0.00000000000E+00  0.00000000000E+00  0.53526810558E+02  0.53526810558E+02  0.00000000000E+00 0. -1.
         21   -1    0    0  501  503 -0.00000000000E+00 -0.00000000000E+00 -0.94944282671E+03  0.94944282671E+03  0.00000000000E+00 0. -1.
          6    2    1    2  501    0 -0.48450795999E+02  0.12730273598E+03 -0.56581079797E+03  0.60680354545E+03  0.17179993437E+03 0.  0.
         24    2    3    3    0    0 -0.86248184508E+02  0.64341358836E+02 -0.44799886371E+03  0.46789883191E+03  0.81533890059E+02 0.  0.
         -6    2    1    2    0  502  0.48450795999E+02 -0.12730273598E+03 -0.33010521819E+03  0.39616609183E+03  0.17153615076E+03 0.  0.
        -24    2    5    5    0    0  0.83435986460E+02 -0.11312851994E+03 -0.18039078591E+03  0.24169482206E+03  0.78204382919E+02 0.  0.
          5    1    3    3  501    0  0.37797388508E+02  0.62961377139E+02 -0.11781193426E+03  0.13890471354E+03  0.47000000000E+01 0. -1.
        -13    1    4    4    0    0 -0.28288687332E+02 -0.24123706146E+01 -0.24296483614E+03  0.24461803074E+03  0.00000000000E+00 0.  1.
         14    1    4    4    0    0 -0.57959497176E+02  0.66753729451E+02 -0.20503402757E+03  0.22328080116E+03  0.00000000000E+00 0. -1.
         -5    1    5    5    0  502 -0.34985190461E+02 -0.14174216036E+02 -0.14971443228E+03  0.15447126977E+03  0.47000000000E+01 0.  1.
         13    1    6    6    0    0 -0.12455655052E+02 -0.34062462129E+02 -0.34702559923E+02  0.50196238248E+02  0.00000000000E+00 0. -1.
        -14    1    6    6    0    0  0.95891641512E+02 -0.79066057811E+02 -0.14568822599E+03  0.19149858381E+03  0.00000000000E+00 0.  1.
</event>
<event>
12    1  0.1035051E+000  0.3617248E+03  0.7818608E-02  0.1057924E+00
         21   -1    0    0  501  502  0.00000000000E+00  0.00000000000E+00  0.20699657337E+03  0.20699657337E+03  0.00000000000E+00 0. -1.
         21   -1    0    0  502  503 -0.00000000000E+00 -0.00000000000E+00 -0.64234843709E+03  0.64234843709E+03  0.00000000000E+00 0.  1.
         -6    2    1    2    0  503 -0.24438773892E+03 -0.20329496264E+03 -0.16314906105E+03  0.39681536418E+03  0.17259956071E+03 0.  0.
        -24    2    3    3    0    0 -0.32051495921E+02 -0.68740968266E+02 -0.44126624054E+02  0.11864295720E+03  0.79852196181E+02 0.  0.
          6    2    1    2  501    0  0.24438773892E+03  0.20329496264E+03 -0.27220280267E+03  0.45252964628E+03  0.17214675777E+03 0.  0.
         24    2    5    5    0    0  0.24959387615E+03  0.19749692944E+03 -0.28658844704E+03  0.43550737212E+03  0.78940439841E+02 0.  0.
          5    1    5    5  501    0 -0.52061372326E+01  0.57980331938E+01  0.14385644365E+02  0.17022274161E+02  0.47000000000E+01 0. -1.
        -13    1    6    6    0    0  0.23908234082E+03  0.15688716600E+03 -0.25125161692E+03  0.38065906472E+03  0.00000000000E+00 0.  1.
         14    1    6    6    0    0  0.10511535333E+02  0.40609763444E+02 -0.35336830124E+02  0.54848307406E+02  0.00000000000E+00 0. -1.
         -5    1    3    3    0  503 -0.21233624300E+03 -0.13455399437E+03 -0.11902243700E+03  0.27817240697E+03  0.47000000000E+01 0.  1.
         13    1    4    4    0    0 -0.75650011108E+01  0.18071933596E+02 -0.11536674642E+02  0.22735850270E+02  0.00000000000E+00 0. -1.
        -14    1    4    4    0    0 -0.24486494810E+02 -0.86812901862E+02 -0.32589949412E+02  0.95907106934E+02  0.00000000000E+00 0.  1.
</event>
<event>
12    1  0.1035051E+000  0.3610085E+03  0.7818608E-02  0.1058238E+00
         21   -1    0    0  503  502  0.00000000000E+00  0.00000000000E+00  0.84408121616E+03  0.84408121616E+03  0.00000000000E+00 0. -1.
         21   -1    0    0  501  503 -0.00000000000E+00 -0.00000000000E+00 -0.28097748658E+03  0.28097748658E+03  0.00000000000E+00 0. -1.
          6    2    1    2  501    0 -0.10195492695E+02  0.31661358047E+03  0.65933915125E+03  0.75144338707E+03  0.17202017379E+03 0.  0.
         24    2    3    3    0    0 -0.14521534457E+02  0.27224089399E+03  0.41720499771E+03  0.50519414696E+03  0.82674885474E+02 0.  0.
         -6    2    1    2    0  502  0.10195492695E+02 -0.31661358047E+03 -0.96235421661E+02  0.37361531567E+03  0.17314456478E+03 0.  0.
        -24    2    5    5    0    0 -0.54287920102E+02 -0.13326991227E+03 -0.23139819423E+02  0.16591825680E+03  0.79280318568E+02 0.  0.
          5    1    3    3  501    0  0.43260417620E+01  0.44372686478E+02  0.24213415354E+03  0.24624924010E+03  0.47000000000E+01 0. -1.
        -11    1    4    4    0    0 -0.28341988575E+01  0.77006876268E+02  0.19216595163E+03  0.20704068354E+03  0.00000000000E+00 0.  1.
         12    1    4    4    0    0 -0.11687335600E+02  0.19523401773E+03  0.22503904608E+03  0.29815346343E+03  0.00000000000E+00 0. -1.
         -5    1    5    5    0  502  0.64483412797E+02 -0.18334366821E+03 -0.73095602239E+02  0.20769705887E+03  0.47000000000E+01 0.  1.
         11    1    6    6    0    0 -0.53095462190E+02 -0.80840253327E+02 -0.47893938481E+02  0.10792638235E+03  0.00000000000E+00 0. -1.
        -12    1    6    6    0    0 -0.11924579121E+01 -0.52429658941E+02  0.24754119058E+02  0.57991874455E+02  0.00000000000E+00 0.  1.
</event>
<event>
12    1  0.1035051E+000  0.1760500E+03  0.7818608E-02  0.1172362E+00
         21   -1    0    0  503  502  0.00000000000E+00  0.00000000000E+00  0.56985012932E+02  0.56985012932E+02  0.00000000000E+00 0.  1.
         21   -1    0    0  501  503 -0.00000000000E+00 -0.00000000000E+00 -0.57978948330E+03  0.57978948330E+03  0.00000000000E+00 0.  1.
          6    2    1    2  501    0 -0.33032266806E+02 -0.11791173205E+02 -0.17158388977E+03  0.24390109270E+03  0.16975437955E+03 0.  0.
         24    2    3    3    0    0 -0.45246290163E+02  0.54345383075E+02 -0.96937296000E+02  0.14331565437E+03  0.78370211153E+02 0.  0.
         -6    2    1    2    0  502  0.33032266806E+02  0.11791173205E+02 -0.35122058060E+03  0.39287340353E+03  0.17252087570E+03 0.  0.
        -24    2    5    5    0    0 -0.40357396091E+01  0.46353966608E+01 -0.53688371383E+02  0.92918827373E+02  0.75588975137E+02 0.  0.
          5    1    3    3  501    0  0.12214023357E+02 -0.66136556280E+02 -0.74646593766E+02  0.10058543833E+03  0.47000000000E+01 0. -1.
        -13    1    4    4    0    0 -0.55110642785E+02  0.60049031429E+01 -0.59955510276E+02  0.81657241090E+02  0.00000000000E+00 0.  1.
         14    1    4    4    0    0  0.98643526219E+01  0.48340479932E+02 -0.36981785724E+02  0.61658413278E+02  0.00000000000E+00 0. -1.
         -5    1    5    5    0  502  0.37068006416E+02  0.71557765446E+01 -0.29753220922E+03  0.29995457616E+03  0.47000000000E+01 0.  1.
         11    1    6    6    0    0 -0.31330748872E+02 -0.21432696066E+02 -0.24151444376E+02  0.44991872055E+02  0.00000000000E+00 0. -1.
        -12    1    6    6    0    0  0.27295009263E+02  0.26068092727E+02 -0.29536927006E+02  0.47926955318E+02  0.00000000000E+00 0.  1.
</event>
<event>
12    1  0.1035051E+000  0.1975307E+03  0.7818608E-02  0.1151939E+00
         21   -1    0    0  503  502  0.00000000000E+00  0.00000000000E+00  0.47803937697E+03  0.47803937697E+03  0.00000000000E+00 0. -1.
         21   -1    0    0  501  503 -0.00000000000E+00 -0.00000000000E+00 -0.81490974565E+02  0.81490974565E+02  0.00000000000E+00 0. -1.
          6    2    1    2  501    0  0.74941202114E+02 -0.61054855925E+02  0.20571327767E+03  0.28487345250E+03  0.17172959013E+03 0.  0.
         24    2    3    3    0    0 -0.14567628887E+02 -0.49854983987E+02  0.15488123591E+03  0.18122378088E+03  0.78460985715E+02 0.  0.
         -6    2    1    2    0  502 -0.74941202114E+02  0.61054855925E+02  0.19083512474E+03  0.27465689904E+03  0.17226284610E+03 0.  0.
        -24    2    5    5    0    0 -0.10401696295E+03  0.13814724162E+02  0.16938124029E+03  0.21499628325E+03  0.80765228078E+02 0.  0.
          5    1    3    3  501    0  0.89508831001E+02 -0.11199871939E+02  0.50832041762E+02  0.10364967163E+03  0.47000000000E+01 0. -1.
        -13    1    4    4    0    0 -0.63021393252E+01  0.17969371272E+02  0.11119580581E+02  0.22051311441E+02  0.00000000000E+00 0.  1.
         14    1    4    4    0    0 -0.82654895618E+01 -0.67824355258E+02  0.14376165533E+03  0.15917246944E+03  0.00000000000E+00 0. -1.
         -5    1    5    5    0  502  0.29075760838E+02  0.47240131763E+02  0.21453884454E+02  0.59660615782E+02  0.47000000000E+01 0.  1.
         13    1    6    6    0    0 -0.34460829771E+02  0.30560036679E+02  0.21736031819E+02  0.50930538085E+02  0.00000000000E+00 0. -1.
        -14    1    6    6    0    0 -0.69556133181E+02 -0.16745312518E+02  0.14764520847E+03  0.16406574517E+03  0.00000000000E+00 0.  1.
</event>
<event>
12    1  0.1035051E+000  0.2334533E+03  0.7818608E-02  0.1124925E+00
         21   -1    0    0  501  502  0.00000000000E+00  0.00000000000E+00  0.89429117568E+03  0.89429117568E+03  0.00000000000E+00 0.  1.
         21   -1    0    0  502  503 -0.00000000000E+00 -0.00000000000E+00 -0.69950513873E+02  0.69950513873E+02  0.00000000000E+00 0.  1.
         -6    2    1    2    0  503  0.90015750552E+01 -0.15257129977E+03  0.59179417984E+03  0.63472945898E+03  0.17117857617E+03 0.  0.
        -24    2    3    3    0    0  0.68058692081E+02 -0.80195497479E+02  0.31986183081E+03  0.34716156738E+03  0.84535552730E+02 0.  0.
          6    2    1    2  501    0 -0.90015750552E+01  0.15257129977E+03  0.23254648197E+03  0.32951223058E+03  0.17646930032E+03 0.  0.
         24    2    5    5    0    0 -0.11721272387E+02  0.47073598646E+02  0.19672348209E+03  0.21796610103E+03  0.80347874128E+02 0.  0.
          5    1    5    5  501    0  0.27196973313E+01  0.10549770112E+03  0.35822999881E+02  0.11154612955E+03  0.47000000000E+01 0. -1.
        -11    1    6    6    0    0  0.77985113674E+01  0.64165159812E+02  0.16349457064E+03  0.17580801786E+03  0.00000000000E+00 0.  1.
         12    1    6    6    0    0 -0.19519783754E+02 -0.17091561166E+02  0.33228911449E+02  0.42158083175E+02  0.00000000000E+00 0. -1.
         -5    1    3    3    0  503 -0.59057117026E+02 -0.72375802291E+02  0.27193234903E+03  0.28756789160E+03  0.47000000000E+01 0.  1.
         13    1    4    4    0    0  0.43921318379E+02 -0.52098043765E+02  0.29447283792E+03  0.30225409947E+03  0.00000000000E+00 0. -1.
        -14    1    4    4    0    0  0.24137373703E+02 -0.28097453715E+02  0.25388992886E+02  0.44907467912E+02  0.00000000000E+00 0.  1.
</event>
<event>
12    1  0.1035051E+000  0.1789788E+03  0.7818608E-02  0.1170599E+00
         21   -1    0    0  501  502  0.00000000000E+00  0.00000000000E+00  0.69574051803E+03  0.69574051803E+03  0.00000000000E+00 0.  1.
         21   -1    0    0  502  503 -0.00000000000E+00 -0.00000000000E+00 -0.90014900025E+02  0.90014900025E+02  0.00000000000E+00 0.  1.
         -6    2    1    2    0  503  0.45199310142E+02 -0.22116549936E+02  0.58005520117E+03  0.60494511922E+03  0.16420244043E+03 0.  0.
        -24    2    3    3    0    0  0.41507047000E+02  0.37042598837E+02  0.46976754821E+03  0.47964989151E+03  0.79293631501E+02 0.  0.
          6    2    1    2  501    0 -0.45199310142E+02  0.22116549936E+02  0.25670416831E+02  0.18081029883E+03  0.17175935039E+03 0.  0.
         24    2    5    5    0    0 -0.43756271814E+01  0.74259977767E+02 -0.14434242948E+01  0.10909725583E+03  0.79789957668E+02 0.  0.
          5    1    5    5  501    0 -0.40823682961E+02 -0.52143427831E+02  0.27113841126E+02  0.71713043005E+02  0.47000000000E+01 0. -1.
        -13    1    6    6    0    0  0.21228884974E+02 -0.80998093607E+01 -0.23641736491E+01  0.22844294386E+02  0.00000000000E+00 0.  1.
         14    1    6    6    0    0 -0.25604512156E+02  0.82359787127E+02  0.92074935431E+00  0.86252961444E+02  0.00000000000E+00 0. -1.
         -5    1    3    3    0  503  0.36922631424E+01 -0.59159148773E+02  0.11028765296E+03  0.12529522771E+03  0.47000000000E+01 0.  1.
         13    1    4    4    0    0  0.38297965570E+02  0.57568736830E+02  0.26651156989E+03  0.27533490609E+03  0.00000000000E+00 0. -1.
        -14    1    4    4    0    0  0.32090814301E+01 -0.20526137993E+02  0.20325597832E+03  0.20431498542E+03  0.00000000000E+00 0.  1.
</event>
<event>
12    1  0.1035051E+000  0.2536704E+03  0.7818608E-02  0.1111164E+00
         21   -1    0    0  503  502  0.00000000000E+00  0.00000000000E+00  0.62113479664E+03  0.62113479664E+03  0.00000000000E+00 0.  1.
         21   -1    0    0  501  503 -0.00000000000E+00 -0.00000000000E+00 -0.15413572004E+03  0.15413572004E+03  0.00000000000E+00 0.  1.
          6    2    1    2  501    0  0.15432762499E+03 -0.10253248309E+03  0.45667557518E+03  0.52239950442E+03  0.17325915655E+03 0.  0.
         24    2    3    3    0    0  0.45127622754E+02 -0.21731735195E+02  0.86250646249E+02  0.12782363171E+03  0.79943331152E+02 0.  0.
         -6    2    1    2    0  502 -0.15432762499E+03  0.10253248309E+03  0.10323501421E+02  0.25287101226E+03  0.17177673950E+03 0.  0.
        -24    2    5    5    0    0 -0.96524114324E+02  0.56780883536E+02 -0.61261967992E+02  0.15000690706E+03  0.78791307018E+02 0.  0.
          5    1    3    3  501    0  0.10920000224E+03 -0.80800747893E+02  0.37042492893E+03  0.39457587271E+03  0.47000000000E+01 0. -1.
        -13    1    4    4    0    0  0.36819216258E+01 -0.43743144919E+02  0.59059729993E+02  0.73587165872E+02  0.00000000000E+00 0.  1.
         14    1    4    4    0    0  0.41445701128E+02  0.22011409724E+02  0.27190916256E+02  0.54236465841E+02  0.00000000000E+00 0. -1.
         -5    1    5    5    0  502 -0.57803510671E+02  0.45751599551E+02  0.71585469413E+02  0.10286410520E+03  0.47000000000E+01 0.  1.
         13    1    6    6    0    0 -0.41678293327E+02  0.24942289405E+02  0.14987763265E+02  0.50831397612E+02  0.00000000000E+00 0. -1.
        -14    1    6    6    0    0 -0.54845820996E+02  0.31838594132E+02 -0.76249731258E+02  0.99175509446E+02  0.00000000000E+00 0.  1.
</event>
<event>
12    1  0.1035051E+000  0.2206209E+03  0.7818608E-02  0.1133822E+00
         21   -1    0    0  501  502  0.00000000000E+00  0.00000000000E+00  0.16840055105E+03  0.16840055105E+03  0.00000000000E+00 0.  1.
         21   -1    0    0  502  503 -0.00000000000E+00 -0.00000000000E+00 -0.34990924595E+03  0.34990924595E+03  0.00000000000E+00 0.  1.
         -6    2    1    2    0  503  0.21035823466E+02 -0.13528809579E+03  0.20167946273E+02  0.21940002000E+03  0.17024760788E+03 0.  0.
        -24    2    3    3    0    0  0.63784793905E+02 -0.13037799610E+03 -0.60619428276E+01  0.16878697193E+03  0.85938192570E+02 0.  0.
          6    2    1    2  501    0 -0.21035823466E+02  0.13528809579E+03 -0.20167664117E+03  0.29890977700E+03  0.17299772386E+03 0.  0.
         24    2    5    5    0    0 -0.41712521884E+02  0.16019865759E+02 -0.12660375021E+03  0.15639498650E+03  0.80214161187E+02 0.  0.
          5    1    5    5  501    0  0.20676698418E+02  0.11926823003E+03 -0.75072890953E+02  0.14251479049E+03  0.47000000000E+01 0. -1.
        -13    1    6    6    0    0 -0.21966303934E+01  0.17978709881E+02 -0.11317280830E+03  0.11461301729E+03  0.00000000000E+00 0.  1.
         14    1    6    6    0    0 -0.39515891491E+02 -0.19588441229E+01 -0.13430941912E+02  0.41781969212E+02  0.00000000000E+00 0. -1.
         -5    1    3    3    0  503 -0.42748970439E+02 -0.49100996873E+01  0.26229889100E+02  0.50613048068E+02  0.47000000000E+01 0.  1.
         11    1    4    4    0    0  0.33016060915E+02 -0.28151982602E+01  0.14127419159E+02  0.36021793288E+02  0.00000000000E+00 0. -1.
        -12    1    4    4    0    0  0.30768732991E+02 -0.12756279784E+03 -0.20189361987E+02  0.13276517865E+03  0.00000000000E+00 0.  1.
</event>
<event>
12    1  0.1035051E+000  0.3090823E+03  0.7818608E-02  0.1082360E+00
         21   -1    0    0  503  502  0.00000000000E+00  0.00000000000E+00  0.63859663692E+03  0.63859663692E+03  0.00000000000E+00 0.  1.
         21   -1    0    0  501  503 -0.00000000000E+00 -0.00000000000E+00 -0.20480160661E+03  0.20480160661E+03  0.00000000000E+00 0.  1.
          6    2    1    2  501    0  0.11937318067E+03  0.20955448465E+03 -0.10626718725E+02  0.30926494592E+03  0.19331022044E+03 0.  0.
         24    2    3    3    0    0 -0.20857685056E+02  0.10573571902E+03  0.13258966249E+01  0.13431356178E+03  0.80145427659E+02 0.  0.
         -6    2    1    2    0  502 -0.11937318067E+03 -0.20955448465E+03  0.44442174904E+03  0.53413329761E+03  0.17211812888E+03 0.  0.
        -24    2    5    5    0    0 -0.75814680206E+02 -0.14604243100E+03  0.17181013715E+03  0.25081315208E+03  0.79449711412E+02 0.  0.
          5    1    3    3  501    0  0.14023086572E+03  0.10381876563E+03 -0.11952615350E+02  0.17495138414E+03  0.47000000000E+01 0. -1.
        -11    1    4    4    0    0 -0.40527588767E+02  0.19427712986E+02 -0.66544955527E+01  0.45433509596E+02  0.00000000000E+00 0.  1.
         12    1    4    4    0    0  0.19669903711E+02  0.86308006033E+02  0.79803921776E+01  0.88880052186E+02  0.00000000000E+00 0. -1.
         -5    1    5    5    0  502 -0.43558500461E+02 -0.63512053653E+02  0.27261161189E+03  0.28332014552E+03  0.47000000000E+01 0.  1.
         13    1    6    6    0    0 -0.70501580671E+02 -0.95996916755E+02  0.15939259507E+03  0.19897708477E+03  0.00000000000E+00 0. -1.
        -14    1    6    6    0    0 -0.53130995348E+01 -0.50045514242E+02  0.12417542083E+02  0.51836067307E+02  0.00000000000E+00 0.  1.
</event>
<event>
12    1  0.1035051E+000  0.2456295E+03  0.7818608E-02  0.1116186E+00
         21   -1    0    0  501  502  0.00000000000E+00  0.00000000000E+00  0.25984461906E+03  0.25984461906E+03  0.00000000000E+00 0.  1.
         21   -1    0    0  502  503 -0.00000000000E+00 -0.00000000000E+00 -0.23603963904E+03  0.23603963904E+03  0.00000000000E+00 0. -1.
         -6    2    1    2    0  503  0.88121600907E+02 -0.15056417083E+03 -0.21811836667E+02  0.24605485533E+03  0.17214020312E+03 0.  0.
        -24    2    3    3    0    0 -0.11223356247E+02 -0.10871340831E+03  0.90343557285E+00  0.13578708838E+03  0.80577591820E+02 0.  0.
          6    2    1    2  501    0 -0.88121600907E+02  0.15056417083E+03  0.45616816686E+02  0.24982940276E+03  0.17291284058E+03 0.  0.
         24    2    5    5    0    0 -0.85416222869E+02  0.24603984867E+02  0.21245981973E+02  0.12141867462E+03  0.79936322132E+02 0.  0.
          5    1    5    5  501    0 -0.27053780389E+01  0.12596018596E+03  0.24370834713E+02  0.12841072814E+03  0.47000000000E+01 0. -1.
        -11    1    6    6    0    0 -0.53084585165E+01 -0.66848076414E+01 -0.23121716885E+02  0.24647112950E+02  0.00000000000E+00 0.  1.
         12    1    6    6    0    0 -0.80107764352E+02  0.31288792509E+02  0.44367698858E+02  0.96771561670E+02  0.00000000000E+00 0. -1.
         -5    1    3    3    0  503  0.99344957154E+02 -0.41850762519E+02 -0.22715272240E+02  0.11026776695E+03  0.47000000000E+01 0.  1.
         11    1    4    4    0    0 -0.85314892240E+01 -0.92184202571E+02 -0.32747411757E+02  0.98199320205E+02  0.00000000000E+00 0. -1.
        -12    1    4    4    0    0 -0.26918670228E+01 -0.16529205736E+02  0.33650847330E+02  0.37587768174E+02  0.00000000000E+00 0.  1.
</event>
<event>
12    1  0.1035051E+000  0.3587488E+03  0.7818608E-02  0.1059260E+00
         21   -1    0    0  501  502  0.00000000000E+00  0.00000000000E+00  0.11232360901E+04  0.11232360901E+04  0.00000000000E+00 0. -1.
         21   -1    0    0  502  503 -0.00000000000E+00 -0.00000000000E+00 -0.12492354664E+03  0.12492354664E+03  0.00000000000E+00 0. -1.
         -6    2    1    2    0  503 -0.15225740375E+03 -0.27281784972E+03  0.31581323236E+03  0.47795258334E+03  0.17632010115E+03 0.  0.
        -24    2    3    3    0    0 -0.13535073727E+03 -0.10727442860E+03  0.13235782110E+03  0.23022604547E+03  0.75218442527E+02 0.  0.
          6    2    1    2  501    0  0.15225740375E+03  0.27281784972E+03  0.68249931107E+03  0.77020705337E+03  0.17263168694E+03 0.  0.
         24    2    5    5    0    0  0.31940956702E+01  0.77749474884E+02  0.20224856336E+03  0.23082369124E+03  0.79497873955E+02 0.  0.
          5    1    5    5  501    0  0.14906330808E+03  0.19506837483E+03  0.48025074770E+03  0.53938336213E+03  0.47000000000E+01 0. -1.
        -11    1    6    6    0    0  0.33691951197E+02  0.72356435298E+02  0.15472652569E+03  0.17410025577E+03  0.00000000000E+00 0.  1.
         12    1    6    6    0    0 -0.30497855527E+02  0.53930395855E+01  0.47522037669E+02  0.56723435473E+02  0.00000000000E+00 0. -1.
         -5    1    3    3    0  503 -0.16906666477E+02 -0.16554342111E+03  0.18345541125E+03  0.24772653787E+03  0.47000000000E+01 0.  1.
         13    1    4    4    0    0 -0.94645830838E+00 -0.12307177742E+02  0.39245546052E+02  0.41140919924E+02  0.00000000000E+00 0. -1.
        -14    1    4    4    0    0 -0.13440427896E+03 -0.94967250863E+02  0.93112275051E+02  0.18908512555E+03  0.00000000000E+00 0.  1.
</event>
<event>
12    1  0.1035051E+000  0.2316731E+03  0.7818608E-02  0.1125546E+00
         21   -1    0    0  501  502  0.00000000000E+00  0.00000000000E+00  0.17804580701E+03  0.17804580701E+03  0.00000000000E+00 0. -1.
         21   -1    0    0  502  503 -0.00000000000E+00 -0.00000000000E+00 -0.30316248027E+03  0.30316248027E+03  0.00000000000E+00 0. -1.
         -6    2    1    2    0  503  0.98616140202E+02 -0.12002469985E+03 -0.41690481705E+02  0.23539439352E+03  0.17187598015E+03 0.  0.
        -24    2    3    3    0    0 -0.10500835789E+02 -0.84614359430E+02 -0.19211705338E+02  0.11839955583E+03  0.79871821225E+02 0.  0.
          6    2    1    2  501    0 -0.98616140202E+02  0.12002469985E+03 -0.83426191547E+02  0.24581389376E+03  0.17127016449E+03 0.  0.
         24    2    5    5    0    0 -0.10023172277E+03  0.15061391945E+03 -0.80814932056E+02  0.21471374683E+03  0.82704225118E+02 0.  0.
          5    1    5    5  501    0  0.16155825707E+01 -0.30589219600E+02 -0.26112594911E+01  0.31100146928E+02  0.47000000000E+01 0. -1.
        -13    1    6    6    0    0 -0.29670998327E+02  0.10291769903E+03 -0.17364537570E+02  0.10850782498E+03  0.00000000000E+00 0.  1.
         14    1    6    6    0    0 -0.70560724446E+02  0.47696220418E+02 -0.63450394486E+02  0.10620592185E+03  0.00000000000E+00 0. -1.
         -5    1    3    3    0  503  0.10911697599E+03 -0.35410340421E+02 -0.22478776367E+02  0.11699483769E+03  0.47000000000E+01 0.  1.
         13    1    4    4    0    0 -0.19395664643E+02 -0.23076761502E+02 -0.42413154831E+02  0.52034646450E+02  0.00000000000E+00 0. -1.
        -14    1    4    4    0    0  0.88948288545E+01 -0.61537597928E+02  0.23201449493E+02  0.66364909385E+02  0.00000000000E+00 0.  1.
</event>
<event>
12    1  0.1035051E+000  0.1999589E+03  0.7818608E-02  0.1149949E+00
         21   -1    0    0  501  502  0.00000000000E+00  0.00000000000E+00  0.15161500570E+03  0.15161500570E+03  0.00000000000E+00 0.  1.
         21   -1    0    0  502  503 -0.00000000000E+00 -0.00000000000E+00 -0.38361011798E+03  0.38361011798E+03  0.00000000000E+00 0.  1.
         -6    2    1    2    0  503 -0.13731858640E+02 -0.10007140303E+03 -0.26644988943E+03  0.33313523778E+03  0.17257083598E+03 0.  0.
        -24    2    3    3    0    0  0.13594938740E+02 -0.12842929230E+03 -0.24275025860E+03  0.28693257292E+03  0.81998218694E+02 0.  0.
          6    2    1    2  501    0  0.13731858640E+02  0.10007140303E+03  0.34454777151E+02  0.20208988590E+03  0.17161101558E+03 0.  0.
         24    2    5    5    0    0  0.39559908852E+01  0.89475947341E+02 -0.39477293131E+02  0.12661888294E+03  0.80326146596E+02 0.  0.
          5    1    5    5  501    0  0.97758677549E+01  0.10595455686E+02  0.73932070282E+02  0.75471002959E+02  0.47000000000E+01 0. -1.
        -11    1    6    6    0    0 -0.32253352888E+02  0.11354497817E+02 -0.10531240735E+02  0.35778630837E+02  0.00000000000E+00 0.  1.
         12    1    6    6    0    0  0.36209343773E+02  0.78121449524E+02 -0.28946052396E+02  0.90840252100E+02  0.00000000000E+00 0. -1.
         -5    1    3    3    0  503 -0.27326797380E+02  0.28357889277E+02 -0.23699630822E+02  0.46202664862E+02  0.47000000000E+01 0.  1.
         11    1    4    4    0    0  0.44635960159E+02 -0.91076168721E+02 -0.18896356549E+03  0.21446320554E+03  0.00000000000E+00 0. -1.
        -12    1    4    4    0    0 -0.31041021420E+02 -0.37353123582E+02 -0.53786693116E+02  0.72469367380E+02  0.00000000000E+00 0.  1.
</event>
<event>
12    1  0.1035051E+000  0.2209528E+03  0.7818608E-02  0.1133673E+00
         21   -1    0    0  503  502  0.00000000000E+00  0.00000000000E+00  0.62912832990E+03  0.62912832990E+03  0.00000000000E+00 0.  1.
         21   -1    0    0  501  503 -0.00000000000E+00 -0.00000000000E+00 -0.10082942119E+03  0.10082942119E+03  0.00000000000E+00 0.  1.
          6    2    1    2  501    0 -0.13105016384E+03 -0.27939632397E+02  0.84255344461E+02  0.23397909636E+03  0.17231507759E+03 0.  0.
         24    2    3    3    0    0 -0.34920536819E+02  0.13993029489E+01 -0.17778904178E+02  0.90679563172E+02  0.81763633743E+02 0.  0.
         -6    2    1    2    0  502  0.13105016384E+03  0.27939632397E+02  0.44404356425E+03  0.49597865472E+03  0.17568543050E+03 0.  0.
        -24    2    5    5    0    0  0.82865587813E+02  0.76656582883E+02  0.37292925815E+03  0.39711294195E+03  0.76678026409E+02 0.  0.
          5    1    3    3  501    0 -0.96129627017E+02 -0.29338935346E+02  0.10203424864E+03  0.14329953319E+03  0.47000000000E+01 0. -1.
        -11    1    4    4    0    0 -0.46456124250E+02 -0.25400492253E+02 -0.27835772212E+02  0.59817946318E+02  0.00000000000E+00 0.  1.
         12    1    4    4    0    0  0.11535587431E+02  0.26799795202E+02  0.10056868034E+02  0.30861616855E+02  0.00000000000E+00 0. -1.
         -5    1    5    5    0  502  0.48184576022E+02 -0.48716950485E+02  0.71114306101E+02  0.98865712779E+02  0.47000000000E+01 0.  1.
         11    1    6    6    0    0  0.59160310508E+02  0.11773851604E+02  0.11218451703E+03  0.12737319884E+03  0.00000000000E+00 0. -1.
        -12    1    6    6    0    0  0.23705277306E+02  0.64882731279E+02  0.26074474112E+03  0.26973974311E+03  0.00000000000E+00 0.  1.
</event>
<event>
12    1  0.1035051E+000  0.1772388E+03  0.7818608E-02  0.1170848E+00
         21   -1    0    0  501  502  0.00000000000E+00  0.00000000000E+00  0.13143621931E+03  0.13143621931E+03  0.00000000000E+00 0.  1.
         21   -1    0    0  502  503 -0.00000000000E+00 -0.00000000000E+00 -0.23827323955E+03  0.23827323955E+03  0.00000000000E+00 0.  1.
         -6    2    1    2    0  503  0.34337383834E+02 -0.27401964237E+02 -0.40818677979E+02  0.18187838721E+03  0.17170806530E+03 0.  0.
        -24    2    3    3    0    0  0.74732939012E+02  0.85836412821E+01  0.57957842475E+01  0.11031189525E+03  0.80476282511E+02 0.  0.
          6    2    1    2  501    0 -0.34337383834E+02  0.27401964237E+02 -0.66018342262E+02  0.18783107166E+03  0.17027086184E+03 0.  0.
         24    2    5    5    0    0 -0.48810973421E+02  0.17970965929E+01 -0.10267189226E+03  0.14060113655E+03  0.82712885664E+02 0.  0.
          5    1    5    5  501    0  0.14473589587E+02  0.25604867645E+02  0.36653550002E+02  0.47229935108E+02  0.47000000000E+01 0. -1.
        -13    1    6    6    0    0 -0.58017893058E+02  0.84709491629E+01 -0.27834028414E+02  0.64904283621E+02  0.00000000000E+00 0.  1.
         14    1    6    6    0    0  0.92069196372E+01 -0.66738525699E+01 -0.74837863849E+02  0.75696852925E+02  0.00000000000E+00 0. -1.
         -5    1    3    3    0  503 -0.40395555178E+02 -0.35985605520E+02 -0.46614462226E+02  0.71566491960E+02  0.47000000000E+01 0.  1.
         13    1    4    4    0    0 -0.13628278435E+01 -0.24101283003E+02  0.12571067431E+02  0.27216922648E+02  0.00000000000E+00 0. -1.
        -14    1    4    4    0    0  0.76095766856E+02  0.32684924285E+02 -0.67752831830E+01  0.83094972598E+02  0.00000000000E+00 0.  1.
</event>
<event>
12    1  0.1035051E+000  0.2263515E+03  0.7818608E-02  0.1129463E+00
         21   -1    0    0  503  502  0.00000000000E+00  0.00000000000E+00  0.25943058652E+03  0.25943058652E+03  0.00000000000E+00 0. -1.
         21   -1    0    0  501  503 -0.00000000000E+00 -0.00000000000E+00 -0.26036473237E+03  0.26036473237E+03  0.00000000000E+00 0.  1.
          6    2    1    2  501    0  0.13423754937E+03 -0.57478725727E+02 -0.12929848436E+03  0.25957928877E+03  0.17128860303E+03 0.  0.
         24    2    3    3    0    0  0.34670968211E+02  0.40822774792E+01 -0.12180458685E+03  0.14218461385E+03  0.64508650678E+02 0.  0.
         -6    2    1    2    0  502 -0.13423754937E+03  0.57478725727E+02  0.12836433851E+03  0.26021603012E+03  0.17294928551E+03 0.  0.
        -24    2    5    5    0    0 -0.66053012070E+02  0.98300132195E+02  0.95702644589E+02  0.17416723813E+03  0.84553617682E+02 0.  0.
          5    1    3    3  501    0  0.99566581161E+02 -0.61561003206E+02 -0.74938975108E+01  0.11739467492E+03  0.47000000000E+01 0. -1.
        -11    1    4    4    0    0  0.50349665761E+02 -0.10565736318E+02 -0.92797473268E+02  0.10610416896E+03  0.00000000000E+00 0.  1.
         12    1    4    4    0    0 -0.15678697550E+02  0.14648013797E+02 -0.29007113578E+02  0.36080444886E+02  0.00000000000E+00 0. -1.
         -5    1    5    5    0  502 -0.68184537301E+02 -0.40821406467E+02  0.32661693917E+02  0.86048791987E+02  0.47000000000E+01 0.  1.
         13    1    6    6    0    0 -0.20355147057E+02  0.55942327329E+02  0.94691250806E+02  0.11184949252E+03  0.00000000000E+00 0. -1.
        -14    1    6    6    0    0 -0.45697865013E+02  0.42357804866E+02  0.10113937824E+01  0.62317745604E+02  0.00000000000E+00 0.  1.
</event>
<event>
12    1  0.1035051E+000  0.2249159E+03  0.7818608E-02  0.1130500E+00
         21   -1    0    0  503  502  0.00000000000E+00  0.00000000000E+00  0.12152044484E+04  0.12152044484E+04  0.00000000000E+00 0.  1.
         21   -1    0    0  501  503 -0.00000000000E+00 -0.00000000000E+00 -0.41548986292E+02  0.41548986292E+02  0.00000000000E+00 0. -1.
          6    2    1    2  501    0  0.89153304224E+02  0.11428434410E+03  0.54685747122E+03  0.59082334645E+03  0.17032295769E+03 0.  0.
         24    2    3    3    0    0  0.93715511059E+02  0.12162600294E+02  0.28007715943E+03  0.30509009838E+03  0.75539572665E+02 0.  0.
         -6    2    1    2    0  502 -0.89153304224E+02 -0.11428434410E+03  0.62679799084E+03  0.66593008820E+03  0.17198237725E+03 0.  0.
        -24    2    5    5    0    0 -0.11122554397E+03 -0.10098450268E+03  0.36379724040E+03  0.40162807481E+03  0.79923006309E+02 0.  0.
          5    1    3    3  501    0 -0.45622068350E+01  0.10212174381E+03  0.26678031179E+03  0.28573324807E+03  0.47000000000E+01 0. -1.
        -11    1    4    4    0    0 -0.14378735134E+01 -0.10818111228E+02  0.95865634878E+02  0.96484812076E+02  0.00000000000E+00 0.  1.
         12    1    4    4    0    0  0.95153384573E+02  0.22980711522E+02  0.18421152455E+03  0.20860528630E+03  0.00000000000E+00 0. -1.
         -5    1    5    5    0  502  0.22072239749E+02 -0.13299841426E+02  0.26300075044E+03  0.26430201339E+03  0.47000000000E+01 0.  1.
         13    1    6    6    0    0 -0.21789794299E+02 -0.47623964663E+02  0.55927814322E+02  0.76620868963E+02  0.00000000000E+00 0. -1.
        -14    1    6    6    0    0 -0.89435749675E+02 -0.53360538016E+02  0.30786942608E+03  0.32500720584E+03  0.00000000000E+00 0.  1.
</event>
<event>
12    1  0.1035051E+000  0.2454643E+03  0.7818608E-02  0.1116256E+00
         21   -1    0    0  501  502  0.00000000000E+00  0.00000000000E+00  0.42247784368E+02  0.42247784368E+02  0.00000000000E+00 0. -1.
         21   -1    0    0  502  503 -0.00000000000E+00 -0.00000000000E+00 -0.18567827459E+04  0.18567827459E+04  0.00000000000E+00 0. -1.
         -6    2    1    2    0  503 -0.13028134618E+03 -0.11648324269E+03 -0.13650518192E+04  0.13868901038E+04  0.17191892256E+03 0.  0.
        -24    2    3    3    0    0 -0.11073293721E+03 -0.28227454168E+02 -0.10461069829E+04  0.10553495737E+04  0.79776754004E+02 0.  0.
          6    2    1    2  501    0  0.13028134618E+03  0.11648324269E+03 -0.44948314231E+03  0.51214042644E+03  0.17236921473E+03 0.  0.
         24    2    5    5    0    0  0.58194214525E+02  0.10373636792E+03 -0.39526747994E+03  0.42092384126E+03  0.82417830649E+02 0.  0.
          5    1    5    5  501    0  0.72087131654E+02  0.12746874771E+02 -0.54215662368E+02  0.91216585184E+02  0.47000000000E+01 0. -1.
        -13    1    6    6    0    0  0.77772955060E+02  0.65409348689E+02 -0.28258331456E+03  0.30030042475E+03  0.00000000000E+00 0.  1.
         14    1    6    6    0    0 -0.19578740535E+02  0.38327019229E+02 -0.11268416538E+03  0.12062341651E+03  0.00000000000E+00 0. -1.
         -5    1    3    3    0  503 -0.19548408968E+02 -0.88255788521E+02 -0.31894483637E+03  0.33154053017E+03  0.47000000000E+01 0.  1.
         13    1    4    4    0    0 -0.32385383586E+02  0.10140478563E+02 -0.58997178756E+03  0.59094699634E+03  0.00000000000E+00 0. -1.
        -14    1    4    4    0    0 -0.78347553626E+02 -0.38367932731E+02 -0.45613519530E+03  0.46440257731E+03  0.00000000000E+00 0.  1.
</event>
<event>
12    1  0.1035051E+000  0.2025067E+03  0.7818608E-02  0.1148740E+00
         21   -1    0    0  501  502  0.00000000000E+00  0.00000000000E+00  0.14125212287E+04  0.14125212287E+04  0.00000000000E+00 0.  1.
         21   -1    0    0  502  503 -0.00000000000E+00 -0.00000000000E+00 -0.28290991895E+02  0.28290991895E+02  0.00000000000E+00 0.  1.
         -6    2    1    2    0  503  0.45105996423E+02  0.88518538542E+02  0.68966260688E+03  0.71732542717E+03  0.17044405110E+03 0.  0.
        -24    2    3    3    0    0 -0.34878205354E+02  0.15289167290E+02  0.34904799932E+03  0.35983358918E+03  0.78711233155E+02 0.  0.
          6    2    1    2  501    0 -0.45105996423E+02 -0.88518538542E+02  0.69456762989E+03  0.72348679339E+03  0.17646207848E+03 0.  0.
         24    2    5    5    0    0 -0.93101331705E+02 -0.94166179997E+02  0.46880553208E+03  0.49256242727E+03  0.72828500092E+02 0.  0.
          5    1    5    5  501    0  0.47995335282E+02  0.56476414552E+01  0.22576209781E+03  0.23092436612E+03  0.47000000000E+01 0. -1.
        -11    1    6    6    0    0 -0.61359703194E+02 -0.73885283732E+02  0.42038234560E+03  0.43121382726E+03  0.00000000000E+00 0.  1.
         12    1    6    6    0    0 -0.31741628511E+02 -0.20280896264E+02  0.48423186478E+02  0.61348600004E+02  0.00000000000E+00 0. -1.
         -5    1    3    3    0  503  0.79984201777E+02  0.73229371252E+02  0.34061460756E+03  0.35749183799E+03  0.47000000000E+01 0.  1.
         13    1    4    4    0    0 -0.10953085990E+02  0.15871657070E+02  0.13753917718E+02  0.23686490737E+02  0.00000000000E+00 0. -1.
        -14    1    4    4    0    0 -0.23925119364E+02 -0.58248978087E+00  0.33529408160E+03  0.33614709844E+03  0.00000000000E+00 0.  1.
</event>
<event>
12    1  0.1035051E+000  0.3376086E+03  0.7818608E-02  0.1067907E+00
         21   -1    0    0  501  502  0.00000000000E+00  0.00000000000E+00  0.17705759064E+03  0.17705759064E+03  0.00000000000E+00 0.  1.
         21   -1    0    0  502  503 -0.00000000000E+00 -0.00000000000E+00 -0.65603685127E+03  0.65603685127E+03  0.00000000000E+00 0.  1.
         -6    2    1    2    0  503  0.38852606904E+02 -0.28709727252E+03 -0.17925355209E+03  0.38224523515E+03  0.17333555581E+03 0.  0.
        -24    2    3    3    0    0 -0.44421403048E+02 -0.15361137160E+03 -0.11373353424E+03  0.21175180649E+03  0.79585150672E+02 0.  0.
          6    2    1    2  501    0 -0.38852606904E+02  0.28709727252E+03 -0.29972570854E+03  0.45084920676E+03  0.17174148575E+03 0.  0.
         24    2    5    5    0    0  0.25706855088E+02  0.10076842211E+03 -0.17182953875E+03  0.21576223376E+03  0.78821531569E+02 0.  0.
          5    1    5    5  501    0 -0.64559461992E+02  0.18632885041E+03 -0.12789616979E+03  0.23508697300E+03  0.47000000000E+01 0. -1.
        -11    1    6    6    0    0  0.45034036421E+01  0.82548800742E+02 -0.64513244445E+02  0.10486440701E+03  0.00000000000E+00 0.  1.
         12    1    6    6    0    0  0.21203451446E+02  0.18219621367E+02 -0.10731629430E+03  0.11089782675E+03  0.00000000000E+00 0. -1.
         -5    1    3    3    0  503  0.83274009952E+02 -0.13348590092E+03 -0.65520017854E+02  0.17049342866E+03  0.47000000000E+01 0.  1.
         11    1    4    4    0    0  0.95127907924E+01 -0.35342107947E+02 -0.61697457273E+02  0.71736559833E+02  0.00000000000E+00 0. -1.
        -12    1    4    4    0    0 -0.53934193841E+02 -0.11826926365E+03 -0.52036076968E+02  0.14001524666E+03  0.00000000000E+00 0.  1.
</event>
<event>
12    1  0.1035051E+000  0.2075428E+03  0.7818608E-02  0.1143665E+00
         21   -1    0    0  501  502  0.00000000000E+00  0.00000000000E+00  0.15159543426E+03  0.15159543426E+03  0.00000000000E+00 0. -1.
         21   -1    0    0  502  503 -0.00000000000E+00 -0.00000000000E+00 -0.28527400993E+03  0.28527400993E+03  0.00000000000E+00 0. -1.
         -6    2    1    2    0  503 -0.63804402372E+02  0.96100810736E+02 -0.85595081638E+02  0.22450065656E+03  0.17253306700E+03 0.  0.
        -24    2    3    3    0    0 -0.10169987899E+03  0.43335185138E+02 -0.82207957339E+02  0.15927918000E+03  0.79943137763E+02 0.  0.
          6    2    1    2  501    0  0.63804402372E+02 -0.96100810736E+02 -0.48083494035E+02  0.21236878763E+03  0.17170355843E+03 0.  0.
         24    2    5    5    0    0 -0.46950982793E+01 -0.10914390617E+03 -0.43886118918E+02  0.14235441850E+03  0.80027200556E+02 0.  0.
          5    1    5    5  501    0  0.68499500651E+02  0.13043095437E+02 -0.41973751172E+01  0.70014369139E+02  0.47000000000E+01 0. -1.
        -11    1    6    6    0    0  0.34192080229E+02 -0.59213840467E+02 -0.61067406525E+01  0.68648885895E+02  0.00000000000E+00 0.  1.
         12    1    6    6    0    0 -0.38887178508E+02 -0.49930065706E+02 -0.37779378265E+02  0.73705532600E+02  0.00000000000E+00 0. -1.
         -5    1    3    3    0  503  0.37895476618E+02  0.52765625597E+02 -0.33871242985E+01  0.65221476553E+02  0.47000000000E+01 0.  1.
         11    1    4    4    0    0  0.10995423471E+02  0.14974460292E+02 -0.34478661299E+01  0.18895014665E+02  0.00000000000E+00 0. -1.
        -12    1    4    4    0    0 -0.11269530246E+03  0.28360724847E+02 -0.78760091209E+02  0.14038416534E+03  0.00000000000E+00 0.  1.
</event>
<event>
12    1  0.1035051E+000  0.3644113E+03  0.7818608E-02  0.1056879E+00
         21   -1    0    0  503  502  0.00000000000E+00  0.00000000000E+00  0.74349906637E+03  0.74349906637E+03  0.00000000000E+00 0. -1.
         21   -1    0    0  501  503 -0.00000000000E+00 -0.00000000000E+00 -0.21656499195E+03  0.21656499195E+03  0.00000000000E+00 0. -1.
          6    2    1    2  501    0  0.90199389410E+02  0.30809131000E+03  0.46488570357E+03  0.59068971200E+03  0.17245124916E+03 0.  0.
         24    2    3    3    0    0  0.54013549085E+02  0.22629436999E+03  0.42829136162E+03  0.49393543408E+03  0.80075696813E+02 0.  0.
         -6    2    1    2    0  502 -0.90199389410E+02 -0.30809131000E+03  0.62048370851E+02  0.36937434632E+03  0.17184650780E+03 0.  0.
        -24    2    5    5    0    0 -0.11008727391E+03 -0.16847253686E+03  0.67684218023E+02  0.22815542925E+03  0.83495766215E+02 0.  0.
          5    1    3    3  501    0  0.36185840325E+02  0.81796940008E+02  0.36594341946E+02  0.96754277927E+02  0.47000000000E+01 0. -1.
        -11    1    4    4    0    0  0.56744565068E+02  0.23070346977E+03  0.42691454718E+03  0.48856940881E+03  0.00000000000E+00 0.  1.
         12    1    4    4    0    0 -0.27310159839E+01 -0.44090997778E+01  0.13768144407E+01  0.53660252664E+01  0.00000000000E+00 0. -1.
         -5    1    5    5    0  502  0.19887884500E+02 -0.13961877314E+03 -0.56358471722E+01  0.14121891706E+03  0.47000000000E+01 0.  1.
         13    1    6    6    0    0 -0.86186040703E+00  0.91925569214E+01  0.15215425269E+01  0.93574033672E+01  0.00000000000E+00 0. -1.
        -14    1    6    6    0    0 -0.10922541350E+03 -0.17766509378E+03  0.66162675496E+02  0.21879802589E+03  0.00000000000E+00 0.  1.
</event>
<event>
12    1  0.1035051E+000  0.1973247E+03  0.7818608E-02  0.1152356E+00
         21   -1    0    0  503  502  0.00000000000E+00  0.00000000000E+00  0.29826721524E+03  0.29826721524E+03  0.00000000000E+00 0.  1.
         21   -1    0    0  501  503 -0.00000000000E+00 -0.00000000000E+00 -0.31651712008E+03  0.31651712008E+03  0.00000000000E+00 0.  1.
          6    2    1    2  501    0  0.22733178725E+02 -0.92674231344E+02 -0.24542167598E+03  0.31491085868E+03  0.17271867097E+03 0.  0.
         24    2    3    3    0    0 -0.41509935680E+02 -0.12518252906E+02 -0.14144378556E+03  0.16867252470E+03  0.81020335104E+02 0.  0.
         -6    2    1    2    0  502 -0.22733178725E+02  0.92674231344E+02  0.22717177115E+03  0.29987347664E+03  0.17091453366E+03 0.  0.
        -24    2    5    5    0    0 -0.10021634728E+02  0.10372778430E+03  0.24326353524E+03  0.27610797106E+03  0.78731046629E+02 0.  0.
          5    1    3    3  501    0  0.64243114404E+02 -0.80155978438E+02 -0.10397789042E+03  0.14623833398E+03  0.47000000000E+01 0. -1.
        -11    1    4    4    0    0 -0.52879152478E+02 -0.37227264579E+02 -0.97809309830E+02  0.11725500025E+03  0.00000000000E+00 0.  1.
         12    1    4    4    0    0  0.11369216798E+02  0.24709011673E+02 -0.43634475731E+02  0.51417524452E+02  0.00000000000E+00 0. -1.
         -5    1    5    5    0  502 -0.12711543997E+02 -0.11053552959E+02 -0.16091764097E+02  0.23765505582E+02  0.47000000000E+01 0.  1.
         11    1    6    6    0    0  0.29581521641E+02  0.24169172851E+02  0.46306992549E+02  0.60029600181E+02  0.00000000000E+00 0. -1.
        -12    1    6    6    0    0 -0.39603156369E+02  0.79558611452E+02  0.19695654269E+03  0.21607837088E+03  0.00000000000E+00 0.  1.
</event>
<event>
12    1  0.1035051E+000  0.2210517E+03  0.7818608E-02  0.1133564E+00
         21   -1    0    0  503  502  0.00000000000E+00  0.00000000000E+00  0.79272653884E+02  0.79272653884E+02  0.00000000000E+00 0. -1.
         21   -1    0    0  501  503 -0.00000000000E+00 -0.00000000000E+00 -0.62522860696E+03  0.62522860696E+03  0.00000000000E+00 0. -1.
          6    2    1    2  501    0  0.15177054151E+02 -0.13788507510E+03 -0.21560952913E+03  0.30701840355E+03  0.16890883387E+03 0.  0.
         24    2    3    3    0    0 -0.44426529819E+02 -0.32092677403E+02 -0.95472789295E+02  0.13613966031E+03  0.80095549939E+02 0.  0.
         -6    2    1    2    0  502 -0.15177054151E+02  0.13788507510E+03 -0.33034642394E+03  0.39748285729E+03  0.17210817854E+03 0.  0.
        -24    2    5    5    0    0 -0.54289140613E+02  0.85495684497E+02 -0.11767781557E+03  0.17494200589E+03  0.80621425756E+02 0.  0.
          5    1    3    3  501    0  0.59603583970E+02 -0.10579239770E+03 -0.12013673984E+03  0.17087874324E+03  0.47000000000E+01 0. -1.
        -11    1    4    4    0    0 -0.41360711444E+02 -0.43973766124E+01 -0.55060950803E+01  0.41956673548E+02  0.00000000000E+00 0.  1.
         12    1    4    4    0    0 -0.30658183756E+01 -0.27695300791E+02 -0.89966694215E+02  0.94182986766E+02  0.00000000000E+00 0. -1.
         -5    1    5    5    0  502  0.39112086462E+02  0.52389390602E+02 -0.21266860837E+03  0.22254085140E+03  0.47000000000E+01 0.  1.
         13    1    6    6    0    0 -0.97606492795E+01  0.82496531313E+02 -0.62404301933E+02  0.10390016772E+03  0.00000000000E+00 0. -1.
        -14    1    6    6    0    0 -0.44528491333E+02  0.29991531844E+01 -0.55273513638E+02  0.71041838167E+02  0.00000000000E+00 0.  1.
</event>
<event>
12    1  0.1035051E+000  0.2704817E+03  0.7818608E-02  0.1101010E+00
         21   -1    0    0  501  502  0.00000000000E+00  0.00000000000E+00  0.65021983544E+02  0.65021983544E+02  0.00000000000E+00 0.  1.
         21   -1    0    0  502  503 -0.00000000000E+00 -0.00000000000E+00 -0.13928752950E+04  0.13928752950E+04  0.00000000000E+00 0.  1.
         -6    2    1    2    0  503 -0.97543636109E+02 -0.18459027515E+03 -0.34421606389E+03  0.43774897433E+03  0.17190443641E+03 0.  0.
        -24    2    3    3    0    0 -0.66644379796E+02 -0.15224237850E+03 -0.34726977119E+03  0.39266499062E+03  0.77267623925E+02 0.  0.
          6    2    1    2  501    0  0.97543636109E+02  0.18459027515E+03 -0.98363724754E+03  0.10201483042E+04  0.17196510454E+03 0.  0.
         24    2    5    5    0    0  0.67899782948E+02  0.27598158973E+02 -0.45858829898E+03  0.47130973872E+03  0.80359211949E+02 0.  0.
          5    1    5    5  501    0  0.29643853161E+02  0.15699211617E+03 -0.52504894855E+03  0.54883856547E+03  0.47000000000E+01 0. -1.
        -11    1    6    6    0    0  0.54418814060E+02  0.23660051878E+02 -0.13559015010E+03  0.14800639913E+03  0.00000000000E+00 0.  1.
         12    1    6    6    0    0  0.13480968888E+02  0.39381070951E+01 -0.32299814888E+03  0.32330333959E+03  0.00000000000E+00 0. -1.
         -5    1    3    3    0  503 -0.30899256313E+02 -0.32347896650E+02  0.30537072991E+01  0.45083983704E+02  0.47000000000E+01 0.  1.
         11    1    4    4    0    0 -0.48249117348E+02 -0.10635420657E+03 -0.15459858254E+03  0.19375220335E+03  0.00000000000E+00 0. -1.
        -12    1    4    4    0    0 -0.18395262449E+02 -0.45888171931E+02 -0.19267118866E+03  0.19891278728E+03  0.00000000000E+00 0.  1.
</event>
