<event>
12    1  0.1593360E-001  0.2387905E+03  0.7818608E-02  0.1120876E+00
         21   -1    0    0  501  502  0.00000000000E+00  0.00000000000E+00  0.55877422499E+02  0.55877422499E+02  0.00000000000E+00 0.  1.
         21   -1    0    0  502  503 -0.00000000000E+00 -0.00000000000E+00 -0.10279671181E+04  0.10279671181E+04  0.00000000000E+00 0. -1.
         -6    2    1    2    0  503  0.13953327785E+03 -0.89472931602E+02 -0.54867490927E+03  0.59773655918E+03  0.16961691249E+03 0.  0.
        -24    2    3    3    0    0  0.15663772584E+03 -0.98940858176E+02 -0.53913231354E+03  0.57547998918E+03  0.78669535851E+02 0.  0.
          6    2    1    2  501    0 -0.13953327785E+03  0.89472931602E+02 -0.42341478631E+03  0.48610798140E+03  0.17188934579E+03 0.  0.
         24    2    5    5    0    0 -0.12181521218E+03  0.77844378686E+02 -0.18960837699E+03  0.25129597120E+03  0.79370241937E+02 0.  0.
          5    1    5    5  501    0 -0.17718065673E+02  0.11628552915E+02 -0.23380640932E+03  0.23481201020E+03  0.47000000000E+01 0. -1.
        -13    1    6    6    0    0 -0.83557384305E+02  0.88392240119E+02 -0.11822962250E+03  0.16962684995E+03  0.00000000000E+00 0.  1.
         14    1    6    6    0    0 -0.38257827872E+02 -0.10547861433E+02 -0.71378754483E+02  0.81669121251E+02  0.00000000000E+00 0. -1.
         -5    1    3    3    0  503 -0.17104447993E+02  0.94679265746E+01 -0.95425957255E+01  0.22256569995E+02  0.47000000000E+01 0.  1.
         11    1    4    4    0    0  0.10753107605E+03 -0.38785346419E+02 -0.23132020595E+03  0.25802378397E+03  0.00000000000E+00 0. -1.
        -12    1    4    4    0    0  0.49106649794E+02 -0.60155511757E+02 -0.30781210759E+03  0.31745620521E+03  0.00000000000E+00 0.  1.
</event>
<event>
12    1  0.1593360E-001  0.2384019E+03  0.7818608E-02  0.1120912E+00
         21   -1    0    0  503  502  0.00000000000E+00  0.00000000000E+00  0.33801715651E+03  0.33801715651E+03  0.00000000000E+00 0. -1.
         21   -1    0    0  501  503 -0.00000000000E+00 -0.00000000000E+00 -0.21008354252E+03  0.21008354252E+03  0.00000000000E+00 0.  1.
          6    2    1    2  501    0 -0.80520089789E+02  0.14367813150E+03 -0.58753214625E+02  0.24553498173E+03  0.17236181912E+03 0.  0.
         24    2    3    3    0    0 -0.30211353531E+02  0.56547836867E+00 -0.25451218389E+02  0.90153794372E+02  0.81036389815E+02 0.  0.
         -6    2    1    2    0  502  0.80520089789E+02 -0.14367813150E+03  0.18668682862E+03  0.30256571730E+03  0.17195101331E+03 0.  0.
        -24    2    5    5    0    0  0.83918372651E+02 -0.52139488423E+02  0.45295028089E+02  0.13402906622E+03  0.78430424584E+02 0.  0.
          5    1    3    3  501    0 -0.50308736258E+02  0.14311265313E+03 -0.33301996236E+02  0.15538118735E+03  0.47000000000E+01 0. -1.
        -13    1    4    4    0    0  0.27178090300E+02 -0.50995385599E+01 -0.15286749962E+02  0.31596496804E+02  0.00000000000E+00 0.  1.
         14    1    4    4    0    0 -0.57389443832E+02  0.56650169285E+01 -0.10164468427E+02  0.58557297568E+02  0.00000000000E+00 0. -1.
         -5    1    5    5    0  502 -0.33982828622E+01 -0.91538643077E+02  0.14139180053E+03  0.16853665109E+03  0.47000000000E+01 0.  1.
         11    1    6    6    0    0  0.75870472288E+02 -0.71971059804E+02  0.40136461854E+02  0.11201382765E+03  0.00000000000E+00 0. -1.
        -12    1    6    6    0    0  0.80479003635E+01  0.19831571381E+02  0.51585662351E+01  0.22015238570E+02  0.00000000000E+00 0.  1.
</event>
<event>
12    1  0.1593360E-001  0.2819681E+03  0.7818608E-02  0.1094652E+00
         21   -1    0    0  503  502  0.00000000000E+00  0.00000000000E+00  0.32133382834E+03  0.32133382834E+03  0.00000000000E+00 0. -1.
         21   -1    0    0  501  503 -0.00000000000E+00 -0.00000000000E+00 -0.41879680267E+03  0.41879680267E+03  0.00000000000E+00 0. -1.
          6    2    1    2  501    0  0.22215476884E+03 -0.18831196260E+02 -0.28559485630E+03  0.40116217208E+03  0.17221878844E+03 0.  0.
         24    2    3    3    0    0  0.12136236815E+03  0.38681274819E+02 -0.22205313446E+03  0.26877473770E+03  0.81897494951E+02 0.  0.
         -6    2    1    2    0  502 -0.22215476884E+03  0.18831196260E+02  0.18813188197E+03  0.33896845893E+03  0.17262287178E+03 0.  0.
        -24    2    5    5    0    0 -0.23744809105E+03  0.11090516324E+02  0.13907040786E+03  0.28678683312E+03  0.80009460790E+02 0.  0.
          5    1    3    3  501    0  0.10079240069E+03 -0.57512471078E+02 -0.63541721842E+02  0.13238743438E+03  0.47000000000E+01 0. -1.
        -13    1    4    4    0    0 -0.11199123499E+02  0.67749393311E+01 -0.34489786262E+02  0.36889910904E+02  0.00000000000E+00 0.  1.
         14    1    4    4    0    0  0.13256149165E+03  0.31906335488E+02 -0.18756334820E+03  0.23188482680E+03  0.00000000000E+00 0. -1.
         -5    1    5    5    0  502  0.15293322205E+02  0.77406799359E+01  0.49061474108E+02  0.52181625804E+02  0.47000000000E+01 0.  1.
         11    1    6    6    0    0 -0.45085490328E+02 -0.97264971946E+01  0.64795398837E+02  0.79534583020E+02  0.00000000000E+00 0. -1.
        -12    1    6    6    0    0 -0.19236260072E+03  0.20817013518E+02  0.74275009026E+02  0.20725225010E+03  0.00000000000E+00 0.  1.
</event>
<event>
12    1  0.1593360E-001  0.1802572E+03  0.7818608E-02  0.1167749E+00
         21   -1    0    0  503  502  0.00000000000E+00  0.00000000000E+00  0.19815730107E+03  0.19815730107E+03  0.00000000000E+00 0.  1.
         21   -1    0    0  501  503 -0.00000000000E+00 -0.00000000000E+00 -0.53003476169E+03  0.53003476169E+03  0.00000000000E+00 0.  1.
          6    2    1    2  501    0  0.48244726156E+02 -0.26057183778E+02 -0.46893470097E+03  0.50238672750E+03  0.17171528692E+03 0.  0.
         24    2    3    3    0    0  0.63624610993E+02 -0.63004912455E+02 -0.22534447298E+03  0.25548600922E+03  0.80468995819E+02 0.  0.
         -6    2    1    2    0  502 -0.48244726156E+02  0.26057183778E+02  0.13705724036E+03  0.22580533526E+03  0.17087080461E+03 0.  0.
        -24    2    5    5    0    0 -0.16417941651E+02  0.63741958277E+00  0.15846648108E+03  0.17955001976E+03  0.82804763497E+02 0.  0.
          5    1    3    3  501    0 -0.15379884837E+02  0.36947728678E+02 -0.24359022799E+03  0.24690071828E+03  0.47000000000E+01 0. -1.
        -13    1    4    4    0    0 -0.50708132562E+01  0.73082164452E+01 -0.77099065288E+02  0.77610495702E+02  0.00000000000E+00 0.  1.
         14    1    4    4    0    0  0.68695424249E+02 -0.70313128901E+02 -0.14824540769E+03  0.17787551352E+03  0.00000000000E+00 0. -1.
         -5    1    5    5    0  502 -0.31826784505E+02  0.25419764195E+02 -0.21409240722E+02  0.46255315500E+02  0.47000000000E+01 0.  1.
         11    1    6    6    0    0 -0.21776921981E+01  0.32942976283E+02  0.24778854314E+02  0.41279215724E+02  0.00000000000E+00 0. -1.
        -12    1    6    6    0    0 -0.14240249453E+02 -0.32305556700E+02  0.13368762676E+03  0.13827080403E+03  0.00000000000E+00 0.  1.
</event>
<event>
12    1  0.1593360E-001  0.2059136E+03  0.7818608E-02  0.1145003E+00
         21   -1    0    0  503  502  0.00000000000E+00  0.00000000000E+00  0.12059851387E+03  0.12059851387E+03  0.00000000000E+00 0.  1.
         21   -1    0    0  501  503 -0.00000000000E+00 -0.00000000000E+00 -0.35109866048E+03  0.35109866048E+03  0.00000000000E+00 0.  1.
          6    2    1    2  501    0 -0.40726119646E+02 -0.10367541494E+03 -0.10387140120E+03  0.23062888800E+03  0.17318547142E+03 0.  0.
         24    2    3    3    0    0  0.29851413238E+02 -0.25167352230E+02 -0.84019427773E+01  0.88216769315E+02  0.78658141698E+02 0.  0.
         -6    2    1    2    0  502  0.40726119646E+02  0.10367541494E+03 -0.12662874541E+03  0.24106828635E+03  0.17225524966E+03 0.  0.
        -24    2    5    5    0    0 -0.45115987507E+01  0.53207739019E+02 -0.14049203000E+03  0.17173057556E+03  0.83078048073E+02 0.  0.
          5    1    3    3  501    0 -0.70577532884E+02 -0.78508062710E+02 -0.95469458419E+02  0.14241211869E+03  0.47000000000E+01 0. -1.
        -11    1    4    4    0    0 -0.24377255019E+02 -0.49573394451E+01 -0.16398198678E+02  0.29794742766E+02  0.00000000000E+00 0.  1.
         12    1    4    4    0    0  0.54228668257E+02 -0.20210012785E+02  0.79962559008E+01  0.58422026549E+02  0.00000000000E+00 0. -1.
         -5    1    5    5    0  502  0.45237718397E+02  0.50467675922E+02  0.13863284594E+02  0.69337710796E+02  0.47000000000E+01 0.  1.
         11    1    6    6    0    0 -0.18612775817E+02  0.51752472227E+02 -0.14638716598E+03  0.15637760763E+03  0.00000000000E+00 0. -1.
        -12    1    6    6    0    0  0.14101177067E+02  0.14552667915E+01  0.58951359711E+01  0.15352967929E+02  0.00000000000E+00 0.  1.
</event>
<event>
12    1  0.1593360E-001  0.1835430E+03  0.7818608E-02  0.1165063E+00
         21   -1    0    0  503  502  0.00000000000E+00  0.00000000000E+00  0.18179914736E+03  0.18179914736E+03  0.00000000000E+00 0.  1.
         21   -1    0    0  501  503 -0.00000000000E+00 -0.00000000000E+00 -0.18430708657E+03  0.18430708657E+03  0.00000000000E+00 0.  1.
          6    2    1    2  501    0  0.38564150264E+02  0.46142892172E+02 -0.19012323719E+02  0.18452507121E+03  0.17341186023E+03 0.  0.
         24    2    3    3    0    0 -0.18216722702E+02 -0.15035413907E+02  0.23055575041E+02  0.90937407630E+02  0.84735706220E+02 0.  0.
         -6    2    1    2    0  502 -0.38564150264E+02 -0.46142892172E+02  0.16504384504E+02  0.18158116271E+03  0.17053727968E+03 0.  0.
        -24    2    5    5    0    0 -0.75072768146E+02 -0.77768947394E+02  0.87999687383E+01  0.13244324893E+03  0.76025292115E+02 0.  0.
          5    1    3    3  501    0  0.56780872965E+02  0.61178306078E+02 -0.42067898760E+02  0.93587663585E+02  0.47000000000E+01 0. -1.
        -11    1    4    4    0    0 -0.22183116971E+02  0.30705621238E+02 -0.32554932417E+01  0.38020048533E+02  0.00000000000E+00 0.  1.
         12    1    4    4    0    0  0.39663942698E+01 -0.45741035145E+02  0.26311068283E+02  0.52917359097E+02  0.00000000000E+00 0. -1.
         -5    1    5    5    0  502  0.36508617882E+02  0.31626055223E+02  0.77044157656E+01  0.49137913783E+02  0.47000000000E+01 0.  1.
         13    1    6    6    0    0 -0.66198265064E+02 -0.14417959568E+02  0.98661881372E+01  0.68464805002E+02  0.00000000000E+00 0. -1.
        -14    1    6    6    0    0 -0.88745030816E+01 -0.63350987826E+02 -0.10662193989E+01  0.63978443927E+02  0.00000000000E+00 0.  1.
</event>
<event>
12    1  0.1593360E-001  0.1761841E+03  0.7818608E-02  0.1171774E+00
         21   -1    0    0  503  502  0.00000000000E+00  0.00000000000E+00  0.29620659460E+03  0.29620659460E+03  0.00000000000E+00 0.  1.
         21   -1    0    0  501  503 -0.00000000000E+00 -0.00000000000E+00 -0.29053374504E+03  0.29053374504E+03  0.00000000000E+00 0.  1.
          6    2    1    2  501    0 -0.17462264024E+02  0.32666229134E+02 -0.23207342319E+03  0.29082795929E+03  0.17132079547E+03 0.  0.
         24    2    3    3    0    0  0.32516450498E+02  0.70528244713E+02 -0.14451695436E+03  0.18303357463E+03  0.81145465002E+02 0.  0.
         -6    2    1    2    0  502  0.17462264024E+02 -0.32666229134E+02  0.23774627276E+03  0.29591238034E+03  0.17224643230E+03 0.  0.
        -24    2    5    5    0    0  0.43255675476E+02 -0.23151088685E+02  0.50203038665E+02  0.10630649271E+03  0.79835449098E+02 0.  0.
          5    1    3    3  501    0 -0.49978714522E+02 -0.37862015578E+02 -0.87556468836E+02  0.10779438466E+03  0.47000000000E+01 0. -1.
        -11    1    4    4    0    0 -0.18122199714E+02 -0.42146453927E+01 -0.44848024042E+02  0.48554326468E+02  0.00000000000E+00 0.  1.
         12    1    4    4    0    0  0.50638650211E+02  0.74742890105E+02 -0.99668930316E+02  0.13447924816E+03  0.00000000000E+00 0. -1.
         -5    1    5    5    0  502 -0.25793411452E+02 -0.95151404490E+01  0.18754323409E+03  0.18960588763E+03  0.47000000000E+01 0.  1.
         13    1    6    6    0    0  0.60248835625E+01  0.28167212504E+02  0.71788332777E+01  0.29685463268E+02  0.00000000000E+00 0. -1.
        -14    1    6    6    0    0  0.37230791913E+02 -0.51318301189E+02  0.43024205387E+02  0.76621029441E+02  0.00000000000E+00 0.  1.
</event>
<event>
12    1  0.1593360E-001  0.2854152E+03  0.7818608E-02  0.1092875E+00
         21   -1    0    0  503  502  0.00000000000E+00  0.00000000000E+00  0.68659934658E+03  0.68659934658E+03  0.00000000000E+00 0. -1.
         21   -1    0    0  501  503 -0.00000000000E+00 -0.00000000000E+00 -0.14785331109E+03  0.14785331109E+03  0.00000000000E+00 0.  1.
          6    2    1    2  501    0 -0.20913394519E+03  0.88141172930E+02  0.45617702103E+03  0.53810715362E+03  0.17307790403E+03 0.  0.
         24    2    3    3    0    0 -0.23140799568E+03  0.79012774582E+02  0.38510163064E+03  0.46291897569E+03  0.78727588064E+02 0.  0.
         -6    2    1    2    0  502  0.20913394519E+03 -0.88141172930E+02  0.82569014454E+02  0.29634550404E+03  0.17174732086E+03 0.  0.
        -24    2    5    5    0    0  0.12701088494E+03 -0.99328129241E+02  0.10773749879E+03  0.20959939392E+03  0.79540525121E+02 0.  0.
          5    1    3    3  501    0  0.22274050481E+02  0.91283983482E+01  0.71075390393E+02  0.75188177932E+02  0.47000000000E+01 0. -1.
        -13    1    4    4    0    0 -0.39621936256E+02  0.39640232551E+02  0.51533658201E+02  0.76137794800E+02  0.00000000000E+00 0.  1.
         14    1    4    4    0    0 -0.19178605942E+03  0.39372542031E+02  0.33356797244E+03  0.38678118089E+03  0.00000000000E+00 0. -1.
         -5    1    5    5    0  502  0.82123060259E+02  0.11186956311E+02 -0.25168484334E+02  0.86746110123E+02  0.47000000000E+01 0.  1.
         11    1    6    6    0    0  0.94132751841E+01 -0.49205348300E+02  0.44371293905E+02  0.66922251709E+02  0.00000000000E+00 0. -1.
        -12    1    6    6    0    0  0.11759760975E+03 -0.50122780940E+02  0.63366204882E+02  0.14267714221E+03  0.00000000000E+00 0.  1.
</event>
<event>
12    1  0.1593360E-001  0.1802332E+03  0.7818608E-02  0.1167586E+00
         21   -1    0    0  503  502  0.00000000000E+00  0.00000000000E+00  0.55971711062E+02  0.55971711062E+02  0.00000000000E+00 0. -1.
         21   -1    0    0  501  503 -0.00000000000E+00 -0.00000000000E+00 -0.60512408670E+03  0.60512408670E+03  0.00000000000E+00 0. -1.
          6    2    1    2  501    0  0.60765443414E+01 -0.53297120016E+02 -0.34155997357E+03  0.38618016574E+03  0.17203022256E+03 0.  0.
         24    2    3    3    0    0 -0.34437062061E+02 -0.76921224920E+01 -0.82685910514E+02  0.12017445410E+03  0.79748728072E+02 0.  0.
         -6    2    1    2    0  502 -0.60765443414E+01  0.53297120016E+02 -0.20759240207E+03  0.27491563202E+03  0.17206537112E+03 0.  0.
        -24    2    5    5    0    0 -0.69319632431E-01  0.96677522461E+02 -0.10826422657E+03  0.16625964961E+03  0.81083784939E+02 0.  0.
          5    1    3    3  501    0  0.40513606402E+02 -0.45604997524E+02 -0.25887406306E+03  0.26600571164E+03  0.47000000000E+01 0. -1.
        -13    1    4    4    0    0 -0.35061191996E+02  0.31959495036E+02 -0.42047802893E+02  0.63393329580E+02  0.00000000000E+00 0.  1.
         14    1    4    4    0    0  0.62412993560E+00 -0.39651617528E+02 -0.40638107622E+02  0.56781124521E+02  0.00000000000E+00 0. -1.
         -5    1    5    5    0  502 -0.60072247090E+01 -0.43380402445E+02 -0.99328175507E+02  0.10865598241E+03  0.47000000000E+01 0.  1.
         11    1    6    6    0    0  0.38603063854E+00 -0.12780775948E+02 -0.71660573176E+00  0.12806669249E+02  0.00000000000E+00 0. -1.
        -12    1    6    6    0    0 -0.45535027097E+00  0.10945829841E+03 -0.10754762083E+03  0.15345298036E+03  0.00000000000E+00 0.  1.
</event>
<event>
12    1  0.1593360E-001  0.2102190E+03  0.7818608E-02  0.1141414E+00
         21   -1    0    0  503  502  0.00000000000E+00  0.00000000000E+00  0.88493640672E+02  0.88493640672E+02  0.00000000000E+00 0. -1.
         21   -1    0    0  501  503 -0.00000000000E+00 -0.00000000000E+00 -0.74476843181E+03  0.74476843181E+03  0.00000000000E+00 0. -1.
          6    2    1    2  501    0 -0.11678987550E+03 -0.30541306585E+02 -0.56746744277E+03  0.60515397600E+03  0.17210284610E+03 0.  0.
         24    2    3    3    0    0 -0.32527600892E+02 -0.35824374198E+02 -0.14213654991E+03  0.17149915918E+03  0.82871781529E+02 0.  0.
         -6    2    1    2    0  502  0.11678987550E+03  0.30541306585E+02 -0.88807348371E+02  0.22810809649E+03  0.17197067230E+03 0.  0.
        -24    2    5    5    0    0 -0.11843044603E+01  0.44670913849E+02 -0.42312814667E+02  0.10043122074E+03  0.79367264613E+02 0.  0.
          5    1    3    3  501    0 -0.84262274604E+02  0.52830676126E+01 -0.42533089286E+03  0.43365481681E+03  0.47000000000E+01 0. -1.
        -11    1    4    4    0    0 -0.21628952353E+02  0.15978928475E+02 -0.92187860736E+01  0.28427517510E+02  0.00000000000E+00 0.  1.
         12    1    4    4    0    0 -0.10898648539E+02 -0.51803302673E+02 -0.13291776384E+03  0.14307164167E+03  0.00000000000E+00 0. -1.
         -5    1    5    5    0  502  0.11797417996E+03 -0.14129607264E+02 -0.46494533704E+02  0.12767687575E+03  0.47000000000E+01 0.  1.
         13    1    6    6    0    0  0.37343561365E+02  0.31034891511E+02 -0.13409333172E+02  0.50373765818E+02  0.00000000000E+00 0. -1.
        -14    1    6    6    0    0 -0.38527865826E+02  0.13636022338E+02 -0.28903481495E+02  0.50057454917E+02  0.00000000000E+00 0.  1.
</event>
<event>
12    1  0.1593360E-001  0.1929969E+03  0.7818608E-02  0.1155807E+00
         21   -1    0    0  501  502  0.00000000000E+00  0.00000000000E+00  0.87427623493E+02  0.87427623493E+02  0.00000000000E+00 0.  1.
         21   -1    0    0  502  503 -0.00000000000E+00 -0.00000000000E+00 -0.64562526918E+03  0.64562526918E+03  0.00000000000E+00 0.  1.
         -6    2    1    2    0  503 -0.44319894063E+02  0.77480505649E+02 -0.49291005501E+03  0.52931220096E+03  0.17100760799E+03 0.  0.
        -24    2    3    3    0    0 -0.67408257473E+02  0.91839503135E+02 -0.47765689433E+03  0.49778439983E+03  0.81577156712E+02 0.  0.
          6    2    1    2  501    0  0.44319894063E+02 -0.77480505649E+02 -0.65287590677E+02  0.20374069171E+03  0.17111492687E+03 0.  0.
         24    2    5    5    0    0  0.68147015061E+02 -0.95200805839E+02 -0.11900016354E+02  0.14247027612E+03  0.80305417600E+02 0.  0.
          5    1    5    5  501    0 -0.23827120997E+02  0.17720300190E+02 -0.53387574323E+02  0.61270415585E+02  0.47000000000E+01 0. -1.
        -13    1    6    6    0    0  0.31989956803E+02 -0.51791453002E+02  0.33958302486E+02  0.69705654348E+02  0.00000000000E+00 0.  1.
         14    1    6    6    0    0  0.36157058258E+02 -0.43409352837E+02 -0.45858318840E+02  0.72764621777E+02  0.00000000000E+00 0. -1.
         -5    1    3    3    0  503  0.23088363410E+02 -0.14358997486E+02 -0.15253160679E+02  0.31527801135E+02  0.47000000000E+01 0.  1.
         13    1    4    4    0    0  0.14073626160E+02 -0.26813874726E+01 -0.33639817271E+02  0.36563562437E+02  0.00000000000E+00 0. -1.
        -14    1    4    4    0    0 -0.81481883633E+02  0.94520890608E+02 -0.44401707706E+03  0.46122083739E+03  0.00000000000E+00 0.  1.
</event>
<event>
12    1  0.1593360E-001  0.1807633E+03  0.7818608E-02  0.1167190E+00
         21   -1    0    0  501  502  0.00000000000E+00  0.00000000000E+00  0.22832256082E+03  0.22832256082E+03  0.00000000000E+00 0. -1.
         21   -1    0    0  502  503 -0.00000000000E+00 -0.00000000000E+00 -0.16739031697E+03  0.16739031697E+03  0.00000000000E+00 0. -1.
         -6    2    1    2    0  503 -0.54214014978E+02  0.17076269661E+01  0.10648295749E+03  0.20979513831E+03  0.17243347823E+03 0.  0.
        -24    2    3    3    0    0 -0.42997757318E+02 -0.65767791636E+02  0.68759237966E+02  0.13153975150E+03  0.80004149063E+02 0.  0.
          6    2    1    2  501    0  0.54214014978E+02 -0.17076269661E+01 -0.45550713634E+02  0.18591773948E+03  0.17189666353E+03 0.  0.
         24    2    5    5    0    0  0.62069478734E+02  0.49723776322E+02 -0.64876680053E+02  0.13021782446E+03  0.80141275703E+02 0.  0.
          5    1    5    5  501    0 -0.78554637565E+01 -0.51431403288E+02  0.19325966418E+02  0.55699915018E+02  0.47000000000E+01 0. -1.
        -11    1    6    6    0    0  0.21945616962E+02 -0.19142644912E+02 -0.29213369212E+01  0.29267476274E+02  0.00000000000E+00 0.  1.
         12    1    6    6    0    0  0.40123861772E+02  0.68866421234E+02 -0.61955343132E+02  0.10095034819E+03  0.00000000000E+00 0. -1.
         -5    1    3    3    0  503 -0.11216257660E+02  0.67475418602E+02  0.37723719521E+02  0.78255386817E+02  0.47000000000E+01 0.  1.
         13    1    4    4    0    0  0.30445460612E+01 -0.62748468568E+02  0.23983987979E+02  0.67244860381E+02  0.00000000000E+00 0. -1.
        -14    1    4    4    0    0 -0.46042303379E+02 -0.30193230684E+01  0.44775249987E+02  0.64294891116E+02  0.00000000000E+00 0.  1.
</event>
<event>
12    1  0.1593360E-001  0.1851334E+03  0.7818608E-02  0.1162996E+00
         21   -1    0    0  503  502  0.00000000000E+00  0.00000000000E+00  0.26287470980E+03  0.26287470980E+03  0.00000000000E+00 0.  1.
         21   -1    0    0  501  503 -0.00000000000E+00 -0.00000000000E+00 -0.14505955183E+03  0.14505955183E+03  0.00000000000E+00 0.  1.
          6    2    1    2  501    0 -0.64493851634E+02  0.23463656728E+02 -0.64859178325E+01  0.18494293355E+03  0.17161532989E+03 0.  0.
         24    2    3    3    0    0 -0.92765862560E+02  0.23618147474E+01 -0.44144411139E+02  0.13312742955E+03  0.84635099324E+02 0.  0.
         -6    2    1    2    0  502  0.64493851634E+02 -0.23463656728E+02  0.12430107581E+03  0.22299132808E+03  0.17194294073E+03 0.  0.
        -24    2    5    5    0    0 -0.27000568350E+02  0.99549940050E+01  0.68406593897E+02  0.11058884495E+03  0.81989620944E+02 0.  0.
          5    1    3    3  501    0  0.28272010926E+02  0.21101841981E+02  0.37658493306E+02  0.51815504001E+02  0.47000000000E+01 0. -1.
        -11    1    4    4    0    0 -0.81104150944E+02  0.24170016052E+02 -0.24668866892E+01  0.84664978039E+02  0.00000000000E+00 0.  1.
         12    1    4    4    0    0 -0.11661711616E+02 -0.21808201304E+02 -0.41677524450E+02  0.48462451508E+02  0.00000000000E+00 0. -1.
         -5    1    5    5    0  502  0.91494419985E+02 -0.33418650733E+02  0.55894481908E+02  0.11240248313E+03  0.47000000000E+01 0.  1.
         11    1    6    6    0    0 -0.22736543280E+02 -0.34457383938E+02  0.24572824136E+02  0.48042537342E+02  0.00000000000E+00 0. -1.
        -12    1    6    6    0    0 -0.42640250703E+01  0.44412377943E+02  0.43833769760E+02  0.62546307611E+02  0.00000000000E+00 0.  1.
</event>
<event>
12    1  0.1593360E-001  0.2179329E+03  0.7818608E-02  0.1135460E+00
         21   -1    0    0  501  502  0.00000000000E+00  0.00000000000E+00  0.44902598766E+03  0.44902598766E+03  0.00000000000E+00 0. -1.
         21   -1    0    0  502  503 -0.00000000000E+00 -0.00000000000E+00 -0.10862768905E+03  0.10862768905E+03  0.00000000000E+00 0.  1.
         -6    2    1    2    0  503 -0.34472399119E+02 -0.13001565616E+03  0.21587378214E+03  0.30665350832E+03  0.17129643080E+03 0.  0.
        -24    2    3    3    0    0 -0.78270552421E+02 -0.49297861874E+02  0.99499040415E+02  0.15833354656E+03  0.81319704626E+02 0.  0.
          6    2    1    2  501    0  0.34472399119E+02  0.13001565616E+03  0.12452451648E+03  0.25100016839E+03  0.17147102431E+03 0.  0.
         24    2    5    5    0    0 -0.22150131745E+02  0.17414186682E+02  0.83166444878E+02  0.11826817520E+03  0.79226393812E+02 0.  0.
          5    1    5    5  501    0  0.56622530864E+02  0.11260146948E+03  0.41358071600E+02  0.13273199319E+03  0.47000000000E+01 0. -1.
        -13    1    6    6    0    0  0.20072554122E+02 -0.15827200405E+02  0.46975121403E+02  0.53479619786E+02  0.00000000000E+00 0.  1.
         14    1    6    6    0    0 -0.42222685867E+02  0.33241387086E+02  0.36191323475E+02  0.64788555410E+02  0.00000000000E+00 0. -1.
         -5    1    3    3    0  503  0.43798153302E+02 -0.80717794284E+02  0.11637474172E+03  0.14831996176E+03  0.47000000000E+01 0.  1.
         11    1    4    4    0    0 -0.48126101977E+02  0.10663103006E+02  0.68540486372E+02  0.84425243437E+02  0.00000000000E+00 0. -1.
        -12    1    4    4    0    0 -0.30144450444E+02 -0.59960964880E+02  0.30958554043E+02  0.73908303122E+02  0.00000000000E+00 0.  1.
</event>
<event>
12    1  0.1593360E-001  0.1973368E+03  0.7818608E-02  0.1152243E+00
         21   -1    0    0  503  502  0.00000000000E+00  0.00000000000E+00  0.66294890818E+02  0.66294890818E+02  0.00000000000E+00 0. -1.
         21   -1    0    0  501  503 -0.00000000000E+00 -0.00000000000E+00 -0.70250248586E+03  0.70250248586E+03  0.00000000000E+00 0. -1.
          6    2    1    2  501    0 -0.94903774498E+02  0.10544442103E+02 -0.16105347406E+03  0.25471563046E+03  0.17269603128E+03 0.  0.
         24    2    3    3    0    0 -0.12008035571E+03  0.34524747039E+02 -0.16220389172E+03  0.21961109048E+03  0.79420895141E+02 0.  0.
         -6    2    1    2    0  502  0.94903774498E+02 -0.10544442103E+02 -0.47515412097E+03  0.51408174622E+03  0.17143713554E+03 0.  0.
        -24    2    5    5    0    0  0.67162241579E+01  0.45425038402E+02 -0.17713870027E+03  0.19825757399E+03  0.76285022983E+02 0.  0.
          5    1    3    3  501    0  0.25176581216E+02 -0.23980304935E+02  0.11504176552E+01  0.35104539981E+02  0.47000000000E+01 0. -1.
        -11    1    4    4    0    0  0.86494271786E+01 -0.38638412670E+01 -0.63688494225E+00  0.94946027976E+01  0.00000000000E+00 0.  1.
         12    1    4    4    0    0 -0.12872978289E+03  0.38388588306E+02 -0.16156700678E+03  0.21011648768E+03  0.00000000000E+00 0. -1.
         -5    1    5    5    0  502  0.88187550340E+02 -0.55969480505E+02 -0.29801542071E+03  0.31582417222E+03  0.47000000000E+01 0.  1.
         11    1    6    6    0    0  0.39732204235E+02  0.10807708829E+02 -0.84321799668E+02  0.93838267902E+02  0.00000000000E+00 0. -1.
        -12    1    6    6    0    0 -0.33015980078E+02  0.34617329573E+02 -0.92816900601E+02  0.10441930609E+03  0.00000000000E+00 0.  1.
</event>
<event>
12    1  0.1593360E-001  0.2060081E+03  0.7818608E-02  0.1145282E+00
         21   -1    0    0  501  502  0.00000000000E+00  0.00000000000E+00  0.11077123600E+03  0.11077123600E+03  0.00000000000E+00 0. -1.
         21   -1    0    0  502  503 -0.00000000000E+00 -0.00000000000E+00 -0.50476021498E+03  0.50476021498E+03  0.00000000000E+00 0. -1.
         -6    2    1    2    0  503  0.58987244064E+02 -0.98139848178E+02 -0.35003801675E+03  0.40488714812E+03  0.16821434179E+03 0.  0.
        -24    2    3    3    0    0 -0.27087608520E+02 -0.64721564766E+02 -0.14788818714E+03  0.18259835955E+03  0.80923578355E+02 0.  0.
          6    2    1    2  501    0 -0.58987244064E+02  0.98139848178E+02 -0.43950962231E+02  0.21064430286E+03  0.17125539549E+03 0.  0.
         24    2    5    5    0    0 -0.24684625158E+02 -0.14630956814E+02 -0.44093957216E+02  0.92678059516E+02  0.76299082800E+02 0.  0.
          5    1    5    5  501    0 -0.34302618906E+02  0.11277080499E+03  0.14299498441E+00  0.11796624335E+03  0.47000000000E+01 0. -1.
        -13    1    6    6    0    0 -0.71272232933E+01  0.25615602509E+02 -0.40729263436E+02  0.48639791363E+02  0.00000000000E+00 0.  1.
         14    1    6    6    0    0 -0.17557401865E+02 -0.40246559324E+02 -0.33646937793E+01  0.44038268152E+02  0.00000000000E+00 0. -1.
         -5    1    3    3    0  503  0.86074852584E+02 -0.33418283412E+02 -0.20214982961E+03  0.22228878857E+03  0.47000000000E+01 0.  1.
         11    1    4    4    0    0 -0.65894506214E+01  0.19101339129E+02 -0.36201955484E+02  0.41459179886E+02  0.00000000000E+00 0. -1.
        -12    1    4    4    0    0 -0.20498157899E+02 -0.83822903895E+02 -0.11168623165E+03  0.14113917966E+03  0.00000000000E+00 0.  1.
</event>
<event>
12    1  0.1593360E-001  0.2117333E+03  0.7818608E-02  0.1141226E+00
         21   -1    0    0  503  502  0.00000000000E+00  0.00000000000E+00  0.20492361630E+03  0.20492361630E+03  0.00000000000E+00 0. -1.
         21   -1    0    0  501  503 -0.00000000000E+00 -0.00000000000E+00 -0.31528701350E+03  0.31528701350E+03  0.00000000000E+00 0.  1.
          6    2    1    2  501    0 -0.76886257549E+01 -0.11585457298E+03 -0.20345068098E+03  0.29363780186E+03  0.17705813182E+03 0.  0.
         24    2    3    3    0    0  0.64667838582E+01  0.62724550446E+01 -0.12061361282E+03  0.14531566442E+03  0.80547102632E+02 0.  0.
         -6    2    1    2    0  502  0.76886257549E+01  0.11585457298E+03  0.93087283777E+02  0.22657282794E+03  0.17084673516E+03 0.  0.
        -24    2    5    5    0    0 -0.44260578597E+02  0.59610040027E+02  0.47975755588E+01  0.10961416047E+03  0.80497774838E+02 0.  0.
          5    1    3    3  501    0 -0.14155409613E+02 -0.12212702802E+03 -0.82837068167E+02  0.14832213745E+03  0.47000000000E+01 0. -1.
        -11    1    4    4    0    0 -0.35299604190E+02  0.13509199514E+02 -0.67492162431E+02  0.77354718777E+02  0.00000000000E+00 0.  1.
         12    1    4    4    0    0  0.41766388048E+02 -0.72367444696E+01 -0.53121450384E+02  0.67960945638E+02  0.00000000000E+00 0. -1.
         -5    1    5    5    0  502  0.51949204352E+02  0.56244532948E+02  0.88289708218E+02  0.11695866747E+03  0.47000000000E+01 0.  1.
         13    1    6    6    0    0  0.14573093143E+02  0.58099886712E+01  0.22997938775E+02  0.27839471978E+02  0.00000000000E+00 0. -1.
        -14    1    6    6    0    0 -0.58833671740E+02  0.53800051356E+02 -0.18200363216E+02  0.81774688489E+02  0.00000000000E+00 0.  1.
</event>
<event>
12    1  0.1593360E-001  0.1960878E+03  0.7818608E-02  0.1153352E+00
         21   -1    0    0  501  502  0.00000000000E+00  0.00000000000E+00  0.28546419895E+03  0.28546419895E+03  0.00000000000E+00 0.  1.
         21   -1    0    0  502  503 -0.00000000000E+00 -0.00000000000E+00 -0.13538374622E+03  0.13538374622E+03  0.00000000000E+00 0.  1.
         -6    2    1    2    0  503  0.53806066600E+02  0.76324610705E+02  0.97259286940E+02  0.21777033167E+03  0.17100879936E+03 0.  0.
        -24    2    3    3    0    0 -0.66884106573E+01  0.78400070963E+02  0.10461734453E+02  0.11184680061E+03  0.78796909556E+02 0.  0.
          6    2    1    2  501    0 -0.53806066600E+02 -0.76324610705E+02  0.52821165785E+02  0.20307761350E+03  0.17242361366E+03 0.  0.
         24    2    5    5    0    0 -0.69692283481E+02 -0.99842684061E+02  0.72919334086E+02  0.16798490728E+03  0.89867256839E+02 0.  0.
          5    1    5    5  501    0  0.15886216881E+02  0.23518073356E+02 -0.20098168301E+02  0.35092706225E+02  0.47000000000E+01 0. -1.
        -13    1    6    6    0    0 -0.38882046199E+02 -0.10645868192E+03  0.34868608048E+02  0.11857944299E+03  0.00000000000E+00 0.  1.
         14    1    6    6    0    0 -0.30810237281E+02  0.66159978612E+01  0.38050726038E+02  0.49405464283E+02  0.00000000000E+00 0. -1.
         -5    1    3    3    0  503  0.60494477257E+02 -0.20754602583E+01  0.86797552487E+02  0.10592353106E+03  0.47000000000E+01 0.  1.
         11    1    4    4    0    0 -0.30989798390E+02  0.22532429656E+02  0.29124697145E+02  0.48128224300E+02  0.00000000000E+00 0. -1.
        -12    1    4    4    0    0  0.24301387733E+02  0.55867641307E+02 -0.18662962692E+02  0.63718576313E+02  0.00000000000E+00 0.  1.
</event>
<event>
12    1  0.1593360E-001  0.1828787E+03  0.7818608E-02  0.1165489E+00
         21   -1    0    0  503  502  0.00000000000E+00  0.00000000000E+00  0.34191320396E+03  0.34191320396E+03  0.00000000000E+00 0.  1.
         21   -1    0    0  501  503 -0.00000000000E+00 -0.00000000000E+00 -0.15989463932E+03  0.15989463932E+03  0.00000000000E+00 0.  1.
          6    2    1    2  501    0  0.20046224485E+02  0.46574625085E+02 -0.66288145210E+02  0.19452177958E+03  0.17570872977E+03 0.  0.
         24    2    3    3    0    0  0.44463116046E+02 -0.27783533494E+02 -0.69331653263E+01  0.96183465697E+02  0.80338638712E+02 0.  0.
         -6    2    1    2    0  502 -0.20046224485E+02 -0.46574625085E+02  0.24830670985E+03  0.30728606370E+03  0.17377415218E+03 0.  0.
        -24    2    5    5    0    0 -0.49334950649E+02 -0.77594963289E+02  0.11747943693E+03  0.16959816952E+03  0.80667250606E+02 0.  0.
          5    1    3    3  501    0 -0.24416891561E+02  0.74358158579E+02 -0.59354979884E+02  0.98338313885E+02  0.47000000000E+01 0. -1.
        -13    1    4    4    0    0  0.59985494425E+01  0.13248900598E+02 -0.31587534351E+02  0.34774822629E+02  0.00000000000E+00 0.  1.
         14    1    4    4    0    0  0.38464566603E+02 -0.41032434092E+02  0.24654369025E+02  0.61408643068E+02  0.00000000000E+00 0. -1.
         -5    1    5    5    0  502  0.29288726164E+02  0.31020338204E+02  0.13082727292E+03  0.13768789418E+03  0.47000000000E+01 0.  1.
         13    1    6    6    0    0 -0.26476251790E+02  0.74056297340E+01  0.70518190665E+01  0.28382449026E+02  0.00000000000E+00 0. -1.
        -14    1    6    6    0    0 -0.22858698859E+02 -0.85000593023E+02  0.11042761787E+03  0.14121572050E+03  0.00000000000E+00 0.  1.
</event>
<event>
12    1  0.1593360E-001  0.1788010E+03  0.7818608E-02  0.1169550E+00
         21   -1    0    0  501  502  0.00000000000E+00  0.00000000000E+00  0.53630807825E+02  0.53630807825E+02  0.00000000000E+00 0.  1.
         21   -1    0    0  502  503 -0.00000000000E+00 -0.00000000000E+00 -0.83690016732E+03  0.83690016732E+03  0.00000000000E+00 0.  1.
         -6    2    1    2    0  503 -0.51781073685E+02 -0.85429986078E+01 -0.63250171425E+03  0.65664921632E+03  0.16845032607E+03 0.  0.
        -24    2    3    3    0    0  0.24784562328E+02 -0.28036372692E+02 -0.24976165613E+03  0.26581123155E+03  0.82912081284E+02 0.  0.
          6    2    1    2  501    0  0.51781073685E+02  0.85429986078E+01 -0.15076764524E+03  0.23388175882E+03  0.17092551547E+03 0.  0.
         24    2    5    5    0    0  0.90473901221E+02  0.20423899141E+02 -0.63642475936E+02  0.13769872587E+03  0.79422364008E+02 0.  0.
          5    1    5    5  501    0 -0.38692827536E+02 -0.11880900533E+02 -0.87125169308E+02  0.96183032948E+02  0.47000000000E+01 0. -1.
        -11    1    6    6    0    0  0.92936485717E+02  0.75245382597E+00 -0.70572733363E+02  0.11669733184E+03  0.00000000000E+00 0.  1.
         12    1    6    6    0    0 -0.24625844960E+01  0.19671445315E+02  0.69302574272E+01  0.21001394030E+02  0.00000000000E+00 0. -1.
         -5    1    3    3    0  503 -0.76565636013E+02  0.19493374085E+02 -0.38274005811E+03  0.39083798477E+03  0.47000000000E+01 0.  1.
         13    1    4    4    0    0  0.36367656226E+02  0.78370724879E+00 -0.21933444484E+03  0.22233042822E+03  0.00000000000E+00 0. -1.
        -14    1    4    4    0    0 -0.11583093898E+02 -0.28820079941E+02 -0.30427211290E+02  0.43480803338E+02  0.00000000000E+00 0.  1.
</event>
<event>
12    1  0.1593360E-001  0.1851130E+03  0.7818608E-02  0.1163097E+00
         21   -1    0    0  503  502  0.00000000000E+00  0.00000000000E+00  0.31687783336E+03  0.31687783336E+03  0.00000000000E+00 0.  1.
         21   -1    0    0  501  503 -0.00000000000E+00 -0.00000000000E+00 -0.50123970435E+03  0.50123970435E+03  0.00000000000E+00 0. -1.
          6    2    1    2  501    0  0.58874738391E+02 -0.30386867568E+02 -0.45457707752E+03  0.49057657584E+03  0.17214953040E+03 0.  0.
         24    2    3    3    0    0 -0.89971557725E+01 -0.54086527396E+02 -0.15285052993E+03  0.18036815008E+03  0.78505310684E+02 0.  0.
         -6    2    1    2    0  502 -0.58874738391E+02  0.30386867568E+02  0.27021520652E+03  0.32754096187E+03  0.17285030323E+03 0.  0.
        -24    2    5    5    0    0 -0.91781746302E+02  0.21149033434E+02  0.26639813440E+03  0.29282974194E+03  0.76877312565E+02 0.  0.
          5    1    3    3  501    0  0.67871894164E+02  0.23699659827E+02 -0.30172654758E+03  0.31020842576E+03  0.47000000000E+01 0. -1.
        -13    1    4    4    0    0  0.70780940932E+01  0.10070537021E+02  0.15417255756E+01  0.12405323439E+02  0.00000000000E+00 0.  1.
         14    1    4    4    0    0 -0.16075249866E+02 -0.64157064417E+02 -0.15439225551E+03  0.16796282664E+03  0.00000000000E+00 0. -1.
         -5    1    5    5    0  502  0.32907007911E+02  0.92378341346E+01  0.38170721214E+01  0.34711219926E+02  0.47000000000E+01 0.  1.
         13    1    6    6    0    0 -0.61982579571E+02  0.11144558027E+02  0.70941722162E+02  0.94861843157E+02  0.00000000000E+00 0. -1.
        -14    1    6    6    0    0 -0.29799166731E+02  0.10004475407E+02  0.19545641224E+03  0.19796789879E+03  0.00000000000E+00 0.  1.
</event>
<event>
12    1  0.1593360E-001  0.2332957E+03  0.7818608E-02  0.1124501E+00
         21   -1    0    0  501  502  0.00000000000E+00  0.00000000000E+00  0.18787935781E+02  0.18787935781E+02  0.00000000000E+00 0. -1.
         21   -1    0    0  502  503 -0.00000000000E+00 -0.00000000000E+00 -0.36651192701E+04  0.36651192701E+04  0.00000000000E+00 0. -1.
         -6    2    1    2    0  503  0.15184167771E+03  0.37119245420E+02 -0.26755339833E+04  0.26856859427E+04  0.17318531491E+03 0.  0.
        -24    2    3    3    0    0  0.66513170548E+02  0.60862702879E+02 -0.20877299061E+04  0.20912278457E+04  0.80557254087E+02 0.  0.
          6    2    1    2  501    0 -0.15184167771E+03 -0.37119245420E+02 -0.97079735097E+03  0.99822126317E+03  0.17194318870E+03 0.  0.
         24    2    5    5    0    0 -0.92673215695E+01  0.31090121352E+01 -0.44002445368E+03  0.44714257712E+03  0.78863269198E+02 0.  0.
          5    1    5    5  501    0 -0.14257435614E+03 -0.40228257555E+02 -0.53077289728E+03  0.55107868605E+03  0.47000000000E+01 0. -1.
        -13    1    6    6    0    0 -0.96521963132E+01 -0.71101072934E+01 -0.43598109066E+03  0.43614588148E+03  0.00000000000E+00 0.  1.
         14    1    6    6    0    0  0.38487474374E+00  0.10219119429E+02 -0.40433630247E+01  0.10996695641E+02  0.00000000000E+00 0. -1.
         -5    1    3    3    0  503  0.85328507158E+02 -0.23743457459E+02 -0.58780407719E+03  0.59445809698E+03  0.47000000000E+01 0.  1.
         13    1    4    4    0    0  0.78189415557E+02  0.59448597455E+02 -0.14194030444E+04  0.14227974989E+04  0.00000000000E+00 0. -1.
        -14    1    4    4    0    0 -0.11676245010E+02  0.14141054241E+01 -0.66832686176E+03  0.66843034681E+03  0.00000000000E+00 0.  1.
</event>
<event>
12    1  0.1593360E-001  0.1928228E+03  0.7818608E-02  0.1156121E+00
         21   -1    0    0  501  502  0.00000000000E+00  0.00000000000E+00  0.38049777064E+03  0.38049777064E+03  0.00000000000E+00 0.  1.
         21   -1    0    0  502  503 -0.00000000000E+00 -0.00000000000E+00 -0.18089831587E+03  0.18089831587E+03  0.00000000000E+00 0.  1.
         -6    2    1    2    0  503  0.17395638733E+02  0.84107223742E+02 -0.90902459932E+02  0.21317576900E+03  0.17263840226E+03 0.  0.
        -24    2    3    3    0    0 -0.30981567803E+02  0.49159786817E+01 -0.86830588106E+02  0.12016890072E+03  0.76921968774E+02 0.  0.
          6    2    1    2  501    0 -0.17395638733E+02 -0.84107223742E+02  0.29050191470E+03  0.34822031752E+03  0.17172476162E+03 0.  0.
         24    2    5    5    0    0 -0.48743031684E+02 -0.57635920958E+02  0.28665414827E+03  0.30674400835E+03  0.78889184394E+02 0.  0.
          5    1    5    5  501    0  0.31347392951E+02 -0.26471302785E+02  0.38477664315E+01  0.41476309171E+02  0.47000000000E+01 0. -1.
        -11    1    6    6    0    0  0.61168740010E+00 -0.43713279011E+02  0.59269261563E+02  0.73648287757E+02  0.00000000000E+00 0.  1.
         12    1    6    6    0    0 -0.49354719084E+02 -0.13922641947E+02  0.22738488671E+03  0.23309572059E+03  0.00000000000E+00 0. -1.
         -5    1    3    3    0  503  0.48377206536E+02  0.79191245061E+02 -0.40718718261E+01  0.93006868277E+02  0.47000000000E+01 0.  1.
         11    1    4    4    0    0 -0.27862366456E+02  0.67209256934E+01  0.42867595875E+01  0.28980314258E+02  0.00000000000E+00 0. -1.
        -12    1    4    4    0    0 -0.31192013463E+01 -0.18049470116E+01 -0.91117347693E+02  0.91188586465E+02  0.00000000000E+00 0.  1.
</event>
<event>
12    1  0.1593360E-001  0.3088472E+03  0.7818608E-02  0.1080917E+00
         21   -1    0    0  503  502  0.00000000000E+00  0.00000000000E+00  0.44359299121E+03  0.44359299121E+03  0.00000000000E+00 0. -1.
         21   -1    0    0  501  503 -0.00000000000E+00 -0.00000000000E+00 -0.26791464564E+03  0.26791464564E+03  0.00000000000E+00 0.  1.
          6    2    1    2  501    0  0.24968720599E+03  0.59632562849E+02 -0.70347738696E+02  0.31675764433E+03  0.17171737686E+03 0.  0.
         24    2    3    3    0    0  0.22631885492E+03  0.98274039382E+02 -0.77134170268E+02  0.27085133546E+03  0.80825458813E+02 0.  0.
         -6    2    1    2    0  502 -0.24968720599E+03 -0.59632562849E+02  0.24602608426E+03  0.39474999252E+03  0.17146130487E+03 0.  0.
        -24    2    5    5    0    0 -0.56976967965E+02 -0.64020391810E+02  0.86417214234E+02  0.14444304041E+03  0.77787348333E+02 0.  0.
          5    1    3    3  501    0  0.23368351071E+02 -0.38641476533E+02  0.67864315727E+01  0.45906308868E+02  0.47000000000E+01 0. -1.
        -13    1    4    4    0    0  0.11991933874E+03  0.94144106915E+02 -0.35617863743E+02  0.15656434105E+03  0.00000000000E+00 0.  1.
         14    1    4    4    0    0  0.10639951618E+03  0.41299324672E+01 -0.41516306525E+02  0.11428699441E+03  0.00000000000E+00 0. -1.
         -5    1    5    5    0  502 -0.19271023802E+03  0.43878289612E+01  0.15960887003E+03  0.25030695211E+03  0.47000000000E+01 0.  1.
         13    1    6    6    0    0 -0.19330821979E+02  0.15592203404E+02  0.33501944017E+02  0.41703449956E+02  0.00000000000E+00 0. -1.
        -14    1    6    6    0    0 -0.37646145987E+02 -0.79612595214E+02  0.52915270218E+02  0.10273959045E+03  0.00000000000E+00 0.  1.
</event>
<event>
12    1  0.1593360E-001  0.2382349E+03  0.7818608E-02  0.1121123E+00
         21   -1    0    0  501  502  0.00000000000E+00  0.00000000000E+00  0.55373281778E+02  0.55373281778E+02  0.00000000000E+00 0.  1.
         21   -1    0    0  502  503 -0.00000000000E+00 -0.00000000000E+00 -0.10422826318E+04  0.10422826318E+04  0.00000000000E+00 0.  1.
         -6    2    1    2    0  503 -0.13120741271E+03 -0.99927125698E+02 -0.57065081824E+03  0.61804455628E+03  0.17069241807E+03 0.  0.
        -24    2    3    3    0    0 -0.15690230710E+02 -0.74049681930E+02 -0.38744528325E+03  0.39986981098E+03  0.63659088044E+02 0.  0.
          6    2    1    2  501    0  0.13120741271E+03  0.99927125698E+02 -0.41625853177E+03  0.47961135729E+03  0.17191588980E+03 0.  0.
         24    2    5    5    0    0  0.12599097679E+03  0.13278332119E+03 -0.38493921803E+03  0.43367955785E+03  0.79966372317E+02 0.  0.
          5    1    5    5  501    0  0.52164359177E+01 -0.32856195495E+02 -0.31319313743E+02  0.45931799436E+02  0.47000000000E+01 0. -1.
        -11    1    6    6    0    0  0.87812861736E+02  0.10139244812E+03 -0.34492116874E+03  0.37008396327E+03  0.00000000000E+00 0.  1.
         12    1    6    6    0    0  0.38178115057E+02  0.31390873075E+02 -0.40018049286E+02  0.63595594583E+02  0.00000000000E+00 0. -1.
         -5    1    3    3    0  503 -0.11551718200E+03 -0.25877443767E+02 -0.18320553499E+03  0.21817474530E+03  0.47000000000E+01 0.  1.
         13    1    4    4    0    0 -0.12710227040E+02  0.43019662211E+01 -0.13152210355E+03  0.13220484298E+03  0.00000000000E+00 0. -1.
        -14    1    4    4    0    0 -0.29800036699E+01 -0.78351648152E+02 -0.25592317970E+03  0.26766496800E+03  0.00000000000E+00 0.  1.
</event>
<event>
12    1  0.1593360E-001  0.1837763E+03  0.7818608E-02  0.1166750E+00
         21   -1    0    0  501  502  0.00000000000E+00  0.00000000000E+00  0.36458850896E+03  0.36458850896E+03  0.00000000000E+00 0.  1.
         21   -1    0    0  502  503 -0.00000000000E+00 -0.00000000000E+00 -0.97826074669E+02  0.97826074669E+02  0.00000000000E+00 0.  1.
         -6    2    1    2    0  503 -0.13418348254E+00  0.38898635299E+02  0.54481419856E+02  0.18163538418E+03  0.16884923999E+03 0.  0.
        -24    2    3    3    0    0  0.47160076434E+02 -0.22988312118E+02  0.20803753261E+02  0.96647052576E+02  0.78455855859E+02 0.  0.
          6    2    1    2  501    0  0.13418348254E+00 -0.38898635299E+02  0.21228101443E+03  0.28077919945E+03  0.17961238242E+03 0.  0.
         24    2    5    5    0    0  0.62725898157E+02 -0.30067605287E+02  0.18253960508E+03  0.21076240669E+03  0.79129548620E+02 0.  0.
          5    1    5    5  501    0 -0.62591714675E+02 -0.88310300121E+01  0.29741409350E+02  0.70016792751E+02  0.47000000000E+01 0. -1.
        -11    1    6    6    0    0  0.31063238113E+01  0.73419641396E+00  0.11672539805E+03  0.11676903203E+03  0.00000000000E+00 0.  1.
         12    1    6    6    0    0  0.59619574346E+02 -0.30801801701E+02  0.65814207036E+02  0.93993374666E+02  0.00000000000E+00 0. -1.
         -5    1    3    3    0  503 -0.47294259917E+02  0.61886947417E+02  0.33677666595E+02  0.84988331605E+02  0.47000000000E+01 0.  1.
         11    1    4    4    0    0  0.48472334262E+02  0.35265703858E+01  0.40764250232E+02  0.63432862023E+02  0.00000000000E+00 0. -1.
        -12    1    4    4    0    0 -0.13122578276E+01 -0.26514882504E+02 -0.19960496971E+02  0.33214190553E+02  0.00000000000E+00 0.  1.
</event>
<event>
12    1  0.1593360E-001  0.2239026E+03  0.7818608E-02  0.1131476E+00
         21   -1    0    0  503  502  0.00000000000E+00  0.00000000000E+00  0.57877958243E+02  0.57877958243E+02  0.00000000000E+00 0. -1.
         21   -1    0    0  501  503 -0.00000000000E+00 -0.00000000000E+00 -0.87861062517E+03  0.87861062517E+03  0.00000000000E+00 0.  1.
          6    2    1    2  501    0  0.37815017876E+02 -0.13672537465E+03 -0.48268129715E+03  0.53101217599E+03  0.16990848355E+03 0.  0.
         24    2    3    3    0    0  0.73071167467E+02 -0.44741224811E+02 -0.31843243197E+03  0.33942966212E+03  0.80449419445E+02 0.  0.
         -6    2    1    2    0  502 -0.37815017876E+02  0.13672537465E+03 -0.33805136978E+03  0.40547640742E+03  0.17322986093E+03 0.  0.
        -24    2    5    5    0    0 -0.76818844376E+02  0.13050224703E+03 -0.20866601374E+03  0.27011509036E+03  0.80552376882E+02 0.  0.
          5    1    3    3  501    0 -0.35256149591E+02 -0.91984149837E+02 -0.16424886518E+03  0.19158251387E+03  0.47000000000E+01 0. -1.
        -11    1    4    4    0    0  0.64295750362E+01 -0.49626644140E+02 -0.11873029080E+03  0.12884496574E+03  0.00000000000E+00 0.  1.
         12    1    4    4    0    0  0.66641592430E+02  0.48854193287E+01 -0.19970214117E+03  0.21058469638E+03  0.00000000000E+00 0. -1.
         -5    1    5    5    0  502  0.39003826501E+02  0.62231276209E+01 -0.12938535603E+03  0.13536131706E+03  0.47000000000E+01 0.  1.
         13    1    6    6    0    0 -0.62142642520E+02  0.75095652227E+02 -0.18294330378E+03  0.20729041801E+03  0.00000000000E+00 0. -1.
        -14    1    6    6    0    0 -0.14676201856E+02  0.55406594800E+02 -0.25722709964E+02  0.62824672352E+02  0.00000000000E+00 0.  1.
</event>
<event>
12    1  0.1593360E-001  0.2002097E+03  0.7818608E-02  0.1149882E+00
         21   -1    0    0  503  502  0.00000000000E+00  0.00000000000E+00  0.38414227052E+02  0.38414227052E+02  0.00000000000E+00 0.  1.
         21   -1    0    0  501  503 -0.00000000000E+00 -0.00000000000E+00 -0.10633503166E+04  0.10633503166E+04  0.00000000000E+00 0. -1.
          6    2    1    2  501    0  0.53385358731E+02  0.87258553032E+02 -0.42159517614E+03  0.46607264000E+03  0.17034424442E+03 0.  0.
         24    2    3    3    0    0  0.86469230797E+01  0.62919299711E+01 -0.88225447154E+02  0.12007468064E+03  0.80745536993E+02 0.  0.
         -6    2    1    2    0  502 -0.53385358731E+02 -0.87258553032E+02 -0.60334091346E+03  0.63569190370E+03  0.17210429099E+03 0.  0.
        -24    2    5    5    0    0 -0.35913156526E+02 -0.45270646664E+02 -0.15106785680E+03  0.18111378071E+03  0.81495508722E+02 0.  0.
          5    1    3    3  501    0  0.44738435651E+02  0.80966623061E+02 -0.33336972898E+03  0.34599795935E+03  0.47000000000E+01 0. -1.
        -11    1    4    4    0    0 -0.18898937251E+00 -0.36360655144E+02 -0.28746722344E+02  0.46351990303E+02  0.00000000000E+00 0.  1.
         12    1    4    4    0    0  0.88359124522E+01  0.42652585115E+02 -0.59478724810E+02  0.73722690340E+02  0.00000000000E+00 0. -1.
         -5    1    5    5    0  502 -0.17472202204E+02 -0.41987906368E+02 -0.45227305665E+03  0.45457812300E+03  0.47000000000E+01 0.  1.
         11    1    6    6    0    0 -0.86891026132E+01 -0.58011514868E+02 -0.13463187755E+03  0.14685563937E+03  0.00000000000E+00 0. -1.
        -12    1    6    6    0    0 -0.27224053913E+02  0.12740868204E+02 -0.16435979255E+02  0.34258141341E+02  0.00000000000E+00 0.  1.
</event>
<event>
12    1  0.1593360E-001  0.2169600E+03  0.7818608E-02  0.1137048E+00
         21   -1    0    0  501  502  0.00000000000E+00  0.00000000000E+00  0.15134201409E+04  0.15134201409E+04  0.00000000000E+00 0.  1.
         21   -1    0    0  502  503 -0.00000000000E+00 -0.00000000000E+00 -0.30548369762E+02  0.30548369762E+02  0.00000000000E+00 0.  1.
         -6    2    1    2    0  503  0.12974806706E+03 -0.39936381222E+01  0.70562854881E+03  0.73822984045E+03  0.17384228018E+03 0.  0.
        -24    2    3    3    0    0  0.14029771215E+02  0.47156110867E+01  0.15909103055E+03  0.17948846567E+03  0.81774579428E+02 0.  0.
          6    2    1    2  501    0 -0.12974806706E+03  0.39936381222E+01  0.77724322228E+03  0.80573867017E+03  0.16809898267E+03 0.  0.
         24    2    5    5    0    0 -0.32334138156E+02 -0.14214435351E+02  0.17798632684E+03  0.19832454108E+03  0.80037143815E+02 0.  0.
          5    1    5    5  501    0 -0.97413928905E+02  0.18208073474E+02  0.59925689544E+03  0.60741412909E+03  0.47000000000E+01 0. -1.
        -13    1    6    6    0    0 -0.16964236333E+02  0.33358117154E+02  0.72390505557E+02  0.81491929595E+02  0.00000000000E+00 0.  1.
         14    1    6    6    0    0 -0.15369901823E+02 -0.47572552505E+02  0.10559582129E+03  0.11683261149E+03  0.00000000000E+00 0. -1.
         -5    1    3    3    0  503  0.11571829585E+03 -0.87092492088E+01  0.54653751826E+03  0.55874137478E+03  0.47000000000E+01 0.  1.
         13    1    4    4    0    0  0.31286887632E+01  0.40772190107E+01  0.16631569047E+03  0.16639507596E+03  0.00000000000E+00 0. -1.
        -14    1    4    4    0    0  0.10901082452E+02  0.63839207596E+00 -0.72246599231E+01  0.13093389709E+02  0.00000000000E+00 0.  1.
</event>
<event>
12    1  0.1593360E-001  0.2305491E+03  0.7818608E-02  0.1126483E+00
         21   -1    0    0  503  502  0.00000000000E+00  0.00000000000E+00  0.31328997380E+03  0.31328997380E+03  0.00000000000E+00 0.  1.
         21   -1    0    0  501  503 -0.00000000000E+00 -0.00000000000E+00 -0.23166357478E+03  0.23166357478E+03  0.00000000000E+00 0. -1.
          6    2    1    2  501    0 -0.11499571529E+03  0.98390631947E+02 -0.10115028541E+03  0.25176230564E+03  0.17391994512E+03 0.  0.
         24    2    3    3    0    0 -0.13260013759E+03  0.28661347932E+02 -0.54122029829E+02  0.16570514116E+03  0.78260656400E+02 0.  0.
         -6    2    1    2    0  502  0.11499571529E+03 -0.98390631947E+02  0.18277668444E+03  0.29319124294E+03  0.17218901700E+03 0.  0.
        -24    2    5    5    0    0  0.14838182119E+03 -0.61038873649E+02  0.14485463642E+03  0.23018364308E+03  0.79112166530E+02 0.  0.
          5    1    3    3  501    0  0.17604422306E+02  0.69729284015E+02 -0.47028255584E+02  0.86057164474E+02  0.47000000000E+01 0. -1.
        -13    1    4    4    0    0 -0.13957211963E+02  0.33420682811E+02 -0.23182574708E+02  0.43002064781E+02  0.00000000000E+00 0.  1.
         14    1    4    4    0    0 -0.11864292563E+03 -0.47593348792E+01 -0.30939455122E+02  0.12270307638E+03  0.00000000000E+00 0. -1.
         -5    1    5    5    0  502 -0.33386105899E+02 -0.37351758298E+02  0.37922048010E+02  0.63007599862E+02  0.47000000000E+01 0.  1.
         11    1    6    6    0    0  0.73869384287E+02 -0.20514085909E+02  0.19978506503E+02  0.79225339240E+02  0.00000000000E+00 0. -1.
        -12    1    6    6    0    0  0.74512436899E+02 -0.40524787739E+02  0.12487612992E+03  0.15095830384E+03  0.00000000000E+00 0.  1.
</event>
<event>
12    1  0.1593360E-001  0.2699935E+03  0.7818608E-02  0.1101427E+00
         21   -1    0    0  501  502  0.00000000000E+00  0.00000000000E+00  0.29429036966E+03  0.29429036966E+03  0.00000000000E+00 0. -1.
         21   -1    0    0  502  503 -0.00000000000E+00 -0.00000000000E+00 -0.28368946173E+03  0.28368946173E+03  0.00000000000E+00 0.  1.
         -6    2    1    2    0  503  0.15604512374E+03  0.13738484913E+03  0.10954454756E+03  0.29137003092E+03  0.17225507134E+03 0.  0.
        -24    2    3    3    0    0  0.90935079182E+02  0.82830830629E+01  0.93516513631E+01  0.11539477598E+03  0.69933560243E+02 0.  0.
          6    2    1    2  501    0 -0.15604512374E+03 -0.13738484913E+03 -0.98943639628E+02  0.28660980048E+03  0.17067705321E+03 0.  0.
         24    2    5    5    0    0 -0.35622148171E+02 -0.74944430805E+01 -0.55976246299E+02  0.10428729085E+03  0.80108643509E+02 0.  0.
          5    1    5    5  501    0 -0.12042297557E+03 -0.12989040605E+03 -0.42967393329E+02  0.18232250963E+03  0.47000000000E+01 0. -1.
        -13    1    6    6    0    0 -0.14561920665E+02  0.13123486141E+02  0.16770027856E+02  0.25797466082E+02  0.00000000000E+00 0.  1.
         14    1    6    6    0    0 -0.21060227506E+02 -0.20617929221E+02 -0.72746274156E+02  0.78489824764E+02  0.00000000000E+00 0. -1.
         -5    1    3    3    0  503  0.65110044562E+02  0.12910176606E+03  0.10019289620E+03  0.17597525494E+03  0.47000000000E+01 0.  1.
         11    1    4    4    0    0  0.29962286191E+02 -0.21779915769E+02 -0.19127727600E+02  0.41689006798E+02  0.00000000000E+00 0. -1.
        -12    1    4    4    0    0  0.60972792992E+02  0.30062998831E+02  0.28479378963E+02  0.73705769178E+02  0.00000000000E+00 0.  1.
</event>
<event>
12    1  0.1593360E-001  0.2039957E+03  0.7818608E-02  0.1146427E+00
         21   -1    0    0  501  502  0.00000000000E+00  0.00000000000E+00  0.12275140898E+04  0.12275140898E+04  0.00000000000E+00 0. -1.
         21   -1    0    0  502  503 -0.00000000000E+00 -0.00000000000E+00 -0.60859121191E+02  0.60859121191E+02  0.00000000000E+00 0. -1.
         -6    2    1    2    0  503 -0.10771995803E+03 -0.23698177697E+02  0.15454793825E+03  0.25592835864E+03  0.17160730332E+03 0.  0.
        -24    2    3    3    0    0 -0.11210175653E+03  0.36478563158E+02  0.11650769871E+03  0.18444696160E+03  0.80926808891E+02 0.  0.
          6    2    1    2  501    0  0.10771995803E+03  0.23698177697E+02  0.10121070303E+04  0.10324448523E+04  0.17151250470E+03 0.  0.
         24    2    5    5    0    0  0.14721340078E+02 -0.34737465643E+02  0.31838970273E+03  0.33007081525E+03  0.78430420749E+02 0.  0.
          5    1    5    5  501    0  0.92998617954E+02  0.58435643340E+02  0.69371732760E+03  0.70237403709E+03  0.47000000000E+01 0. -1.
        -13    1    6    6    0    0  0.68521996457E+01  0.15762225338E+02  0.16297265077E+02  0.23685464668E+02  0.00000000000E+00 0.  1.
         14    1    6    6    0    0  0.78691404325E+01 -0.50499690981E+02  0.30209243766E+03  0.30638535058E+03  0.00000000000E+00 0. -1.
         -5    1    3    3    0  503  0.43817985014E+01 -0.60176740856E+02  0.38040239547E+02  0.71481397041E+02  0.47000000000E+01 0.  1.
         13    1    4    4    0    0 -0.54057333419E+02 -0.74066182058E+01  0.10025267231E+02  0.55475753917E+02  0.00000000000E+00 0. -1.
        -14    1    4    4    0    0 -0.58044423114E+02  0.43885181364E+02  0.10648243148E+03  0.12897120768E+03  0.00000000000E+00 0.  1.
</event>
<event>
12    1  0.1593360E-001  0.1838742E+03  0.7818608E-02  0.1164439E+00
         21   -1    0    0  503  502  0.00000000000E+00  0.00000000000E+00  0.32919546053E+03  0.32919546053E+03  0.00000000000E+00 0.  1.
         21   -1    0    0  501  503 -0.00000000000E+00 -0.00000000000E+00 -0.10941943579E+03  0.10941943579E+03  0.00000000000E+00 0.  1.
          6    2    1    2  501    0 -0.41657802774E+02 -0.44820499313E+02  0.52072720689E+02  0.18974922549E+03  0.17189808214E+03 0.  0.
         24    2    3    3    0    0  0.31508985270E+02 -0.53245388863E+02  0.64883033795E+01  0.10300600248E+03  0.82099030918E+02 0.  0.
         -6    2    1    2    0  502  0.41657802774E+02  0.44820499313E+02  0.16770330405E+03  0.24886567083E+03  0.17339398559E+03 0.  0.
        -24    2    5    5    0    0  0.93843916749E+02  0.13778838375E+02  0.10342895926E+03  0.16032044734E+03  0.77514896135E+02 0.  0.
          5    1    3    3  501    0 -0.73166788044E+02  0.84248895498E+01  0.45584417309E+02  0.86743223009E+02  0.47000000000E+01 0. -1.
        -11    1    4    4    0    0  0.59393243958E+02 -0.36137466528E+02  0.94304044094E+01  0.70159863471E+02  0.00000000000E+00 0.  1.
         12    1    4    4    0    0 -0.27884258687E+02 -0.17107922335E+02 -0.29421010300E+01  0.32846139006E+02  0.00000000000E+00 0. -1.
         -5    1    5    5    0  502 -0.52186113975E+02  0.31041660938E+02  0.64274344783E+02  0.88545223490E+02  0.47000000000E+01 0.  1.
         11    1    6    6    0    0  0.37854103022E+02 -0.24361911496E+02  0.12110939037E+02  0.46616635353E+02  0.00000000000E+00 0. -1.
        -12    1    6    6    0    0  0.55989813727E+02  0.38140749871E+02  0.91318020228E+02  0.11370381199E+03  0.00000000000E+00 0.  1.
</event>
<event>
12    1  0.1593360E-001  0.2250256E+03  0.7818608E-02  0.1131371E+00
         21   -1    0    0  503  502  0.00000000000E+00  0.00000000000E+00  0.15035643613E+03  0.15035643613E+03  0.00000000000E+00 0. -1.
         21   -1    0    0  501  503 -0.00000000000E+00 -0.00000000000E+00 -0.33412586218E+03  0.33412586218E+03  0.00000000000E+00 0. -1.
          6    2    1    2  501    0 -0.98720409855E+02 -0.90916102841E+02 -0.12536785337E+03  0.25200157801E+03  0.17255793110E+03 0.  0.
         24    2    3    3    0    0 -0.53179339154E+02  0.16748079486E+02 -0.82909439857E+02  0.12754125440E+03  0.79273299897E+02 0.  0.
         -6    2    1    2    0  502  0.98720409855E+02  0.90916102841E+02 -0.58401572686E+02  0.23248072029E+03  0.18062415269E+03 0.  0.
        -24    2    5    5    0    0  0.11794645633E+03  0.40313467087E+02  0.60921514741E+01  0.14814924298E+03  0.79840727065E+02 0.  0.
          5    1    3    3  501    0 -0.45541070701E+02 -0.10766418233E+03 -0.42458413508E+02  0.12446032362E+03  0.47000000000E+01 0. -1.
        -13    1    4    4    0    0 -0.99067667270E+01  0.36486839577E+02 -0.77452845553E+01  0.38593042405E+02  0.00000000000E+00 0.  1.
         14    1    4    4    0    0 -0.43272572427E+02 -0.19738760091E+02 -0.75164155302E+02  0.88948211992E+02  0.00000000000E+00 0. -1.
         -5    1    5    5    0  502 -0.19226046474E+02  0.50602635754E+02 -0.64493724160E+02  0.84331477304E+02  0.47000000000E+01 0.  1.
         11    1    6    6    0    0 -0.95725268092E+01  0.15232978843E+02 -0.75641786238E+00  0.18006917613E+02  0.00000000000E+00 0. -1.
        -12    1    6    6    0    0  0.12751898314E+03  0.25080488244E+02  0.68485693364E+01  0.13014232537E+03  0.00000000000E+00 0.  1.
</event>
<event>
12    1  0.1593360E-001  0.2335476E+03  0.7818608E-02  0.1124425E+00
         21   -1    0    0  501  502  0.00000000000E+00  0.00000000000E+00  0.99185812424E+03  0.99185812424E+03  0.00000000000E+00 0. -1.
         21   -1    0    0  502  503 -0.00000000000E+00 -0.00000000000E+00 -0.60289550891E+02  0.60289550891E+02  0.00000000000E+00 0. -1.
         -6    2    1    2    0  503  0.73723720528E+02  0.13967831885E+03  0.30342346525E+03  0.38199040521E+03  0.17001661885E+03 0.  0.
        -24    2    3    3    0    0  0.10714153608E+03  0.95276598348E+02  0.16186674402E+03  0.22984357315E+03  0.77912042426E+02 0.  0.
          6    2    1    2  501    0 -0.73723720528E+02 -0.13967831885E+03  0.62814510810E+03  0.67015726992E+03  0.17204438341E+03 0.  0.
         24    2    5    5    0    0 -0.24926181562E+02 -0.66623637854E+02  0.52282078877E+03  0.53292211236E+03  0.74862387304E+02 0.  0.
          5    1    5    5  501    0 -0.48797538966E+02 -0.73054680998E+02  0.10532431933E+03  0.13723515755E+03  0.47000000000E+01 0. -1.
        -13    1    6    6    0    0  0.20583935504E+02  0.13736466541E+01  0.80788809695E+02  0.83381155413E+02  0.00000000000E+00 0.  1.
         14    1    6    6    0    0 -0.45510117066E+02 -0.67997284508E+02  0.44203197907E+03  0.44954095695E+03  0.00000000000E+00 0. -1.
         -5    1    3    3    0  503 -0.33417815554E+02  0.44401720504E+02  0.14155672123E+03  0.15214683206E+03  0.47000000000E+01 0.  1.
         13    1    4    4    0    0  0.88253389273E+01  0.24745122122E+02 -0.17685130929E+01  0.26331261166E+02  0.00000000000E+00 0. -1.
        -14    1    4    4    0    0  0.98316197155E+02  0.70531476226E+02  0.16363525711E+03  0.20351231199E+03  0.00000000000E+00 0.  1.
</event>
<event>
12    1  0.1593360E-001  0.1781871E+03  0.7818608E-02  0.1169782E+00
         21   -1    0    0  501  502  0.00000000000E+00  0.00000000000E+00  0.28592838048E+03  0.28592838048E+03  0.00000000000E+00 0.  1.
         21   -1    0    0  502  503 -0.00000000000E+00 -0.00000000000E+00 -0.17573910096E+03  0.17573910096E+03  0.00000000000E+00 0.  1.
         -6    2    1    2    0  503  0.14249883707E+02 -0.43817124383E+02 -0.85458644832E+02  0.19762039514E+03  0.17212681670E+03 0.  0.
        -24    2    3    3    0    0  0.88440874830E+01 -0.66885292166E+02  0.41993236980E+01  0.10476564665E+03  0.80039653960E+02 0.  0.
          6    2    1    2  501    0 -0.14249883707E+02  0.43817124383E+02  0.19564792435E+03  0.26404708629E+03  0.17123011972E+03 0.  0.
         24    2    5    5    0    0  0.86464603977E+01  0.10124125490E+02  0.20602442566E+03  0.22174788385E+03  0.80924661440E+02 0.  0.
          5    1    5    5  501    0 -0.22896344105E+02  0.33692998892E+02 -0.10376501307E+02  0.42299202440E+02  0.47000000000E+01 0. -1.
        -11    1    6    6    0    0 -0.18697961150E+02 -0.18503194181E+02  0.24469266599E+02  0.35926688603E+02  0.00000000000E+00 0.  1.
         12    1    6    6    0    0  0.27344421548E+02  0.28627319672E+02  0.18155515906E+03  0.18582119525E+03  0.00000000000E+00 0. -1.
         -5    1    3    3    0  503  0.54057962243E+01  0.23068167784E+02 -0.89657968530E+02  0.92854748498E+02  0.47000000000E+01 0.  1.
         11    1    4    4    0    0 -0.80541691794E+01 -0.71096707465E+01  0.34152832001E+02  0.35802695331E+02  0.00000000000E+00 0. -1.
        -12    1    4    4    0    0  0.16898256662E+02 -0.59775621420E+02 -0.29953508303E+02  0.68962951315E+02  0.00000000000E+00 0.  1.
</event>
<event>
12    1  0.1593360E-001  0.1846853E+03  0.7818608E-02  0.1164199E+00
         21   -1    0    0  501  502  0.00000000000E+00  0.00000000000E+00  0.78307044665E+02  0.78307044665E+02  0.00000000000E+00 0. -1.
         21   -1    0    0  502  503 -0.00000000000E+00 -0.00000000000E+00 -0.44244917086E+03  0.44244917086E+03  0.00000000000E+00 0. -1.
         -6    2    1    2    0  503  0.20645181364E+02  0.52147798960E+02 -0.13529504493E+03  0.22893972887E+03  0.17596316041E+03 0.  0.
        -24    2    3    3    0    0  0.21144505094E+02  0.79471412092E+02 -0.29248889337E+02  0.11932811327E+03  0.81368947720E+02 0.  0.
          6    2    1    2  501    0 -0.20645181364E+02 -0.52147798960E+02 -0.22884708126E+03  0.29181648665E+03  0.17216346544E+03 0.  0.
         24    2    5    5    0    0  0.44097369299E+02 -0.73304760689E+01 -0.75079672254E+02  0.11899664876E+03  0.80777047304E+02 0.  0.
          5    1    5    5  501    0 -0.64742550663E+02 -0.44817322891E+02 -0.15376740901E+03  0.17281983790E+03  0.47000000000E+01 0. -1.
        -11    1    6    6    0    0  0.16436026839E+01  0.18742204038E+02  0.93149412603E+01  0.20993803197E+02  0.00000000000E+00 0.  1.
         12    1    6    6    0    0  0.42453766615E+02 -0.26072680107E+02 -0.84394613514E+02  0.98002845560E+02  0.00000000000E+00 0. -1.
         -5    1    3    3    0  503 -0.49932373037E+00 -0.27323613132E+02 -0.10604615559E+03  0.10961161560E+03  0.47000000000E+01 0.  1.
         13    1    4    4    0    0  0.23489869235E+02  0.43159608483E+02 -0.55749195392E+02  0.74313515244E+02  0.00000000000E+00 0. -1.
        -14    1    4    4    0    0 -0.23453641405E+01  0.36311803608E+02  0.26500306055E+02  0.45014598024E+02  0.00000000000E+00 0.  1.
</event>
<event>
12    1  0.1593360E-001  0.2695984E+03  0.7818608E-02  0.1101619E+00
         21   -1    0    0  503  502  0.00000000000E+00  0.00000000000E+00  0.70446522988E+03  0.70446522988E+03  0.00000000000E+00 0.  1.
         21   -1    0    0  501  503 -0.00000000000E+00 -0.00000000000E+00 -0.11894550282E+03  0.11894550282E+03  0.00000000000E+00 0. -1.
          6    2    1    2  501    0  0.19546401420E+03  0.68364183052E+02  0.14182633645E+03  0.30462766268E+03  0.17263678862E+03 0.  0.
         24    2    3    3    0    0  0.20475989058E+03  0.76568961722E+02  0.15909376801E+03  0.28285644537E+03  0.83111509299E+02 0.  0.
         -6    2    1    2    0  502 -0.19546401420E+03 -0.68364183052E+02  0.44369339061E+03  0.51878307003E+03  0.17144155419E+03 0.  0.
        -24    2    5    5    0    0 -0.69881542350E+02 -0.88988687520E+02  0.19771804436E+03  0.24179518512E+03  0.81055968411E+02 0.  0.
          5    1    3    3  501    0 -0.92958763727E+01 -0.82047786698E+01 -0.17267431558E+02  0.21771217310E+02  0.47000000000E+01 0. -1.
        -13    1    4    4    0    0  0.18885486628E+02 -0.12406505199E+02  0.36930268232E+02  0.43294661197E+02  0.00000000000E+00 0.  1.
         14    1    4    4    0    0  0.18587440395E+03  0.88975466920E+02  0.12216349978E+03  0.23956178417E+03  0.00000000000E+00 0. -1.
         -5    1    5    5    0  502 -0.12558247185E+03  0.20624504468E+02  0.24597534625E+03  0.27698788491E+03  0.47000000000E+01 0.  1.
         13    1    6    6    0    0 -0.52676480872E+02 -0.45836611619E+01  0.69479902971E+02  0.87311388167E+02  0.00000000000E+00 0. -1.
        -14    1    6    6    0    0 -0.17205061478E+02 -0.84405026358E+02  0.12823814139E+03  0.15448379696E+03  0.00000000000E+00 0.  1.
</event>
<event>
12    1  0.1593360E-001  0.2100205E+03  0.7818608E-02  0.1141605E+00
         21   -1    0    0  501  502  0.00000000000E+00  0.00000000000E+00  0.43071146392E+02  0.43071146392E+02  0.00000000000E+00 0.  1.
         21   -1    0    0  502  503 -0.00000000000E+00 -0.00000000000E+00 -0.10915514343E+04  0.10915514343E+04  0.00000000000E+00 0.  1.
         -6    2    1    2    0  503  0.45527097397E+02 -0.11116081872E+03 -0.66702560937E+03  0.69930808238E+03  0.17227648220E+03 0.  0.
        -24    2    3    3    0    0  0.24014990925E+02 -0.13800343159E+03 -0.42383802098E+03  0.45365468889E+03  0.80884125769E+02 0.  0.
          6    2    1    2  501    0 -0.45527097397E+02  0.11116081872E+03 -0.38145467853E+03  0.43531449830E+03  0.17193486104E+03 0.  0.
         24    2    5    5    0    0 -0.44711844172E+02  0.13797699956E+03 -0.24107241703E+03  0.29231435306E+03  0.79340842826E+02 0.  0.
          5    1    5    5  501    0 -0.81525322592E+00 -0.26816180839E+02 -0.14038226151E+03  0.14300014524E+03  0.47000000000E+01 0. -1.
        -13    1    6    6    0    0 -0.21465052401E+01  0.53041771042E+02 -0.15600931734E+03  0.16479364083E+03  0.00000000000E+00 0.  1.
         14    1    6    6    0    0 -0.42565338931E+02  0.84935228513E+02 -0.85063099684E+02  0.12752071223E+03  0.00000000000E+00 0. -1.
         -5    1    3    3    0  503  0.21512106472E+02  0.26842612870E+02 -0.24318758839E+03  0.24565339350E+03  0.47000000000E+01 0.  1.
         13    1    4    4    0    0 -0.19957616514E+02 -0.10364740168E+03 -0.26179200481E+03  0.28226963016E+03  0.00000000000E+00 0. -1.
        -14    1    4    4    0    0  0.43972607439E+02 -0.34356029910E+02 -0.16204601617E+03  0.17138505872E+03  0.00000000000E+00 0.  1.
</event>
<event>
12    1  0.1593360E-001  0.1765528E+03  0.7818608E-02  0.1171499E+00
         21   -1    0    0  503  502  0.00000000000E+00  0.00000000000E+00  0.12687134428E+04  0.12687134428E+04  0.00000000000E+00 0. -1.
         21   -1    0    0  501  503 -0.00000000000E+00 -0.00000000000E+00 -0.13096129531E+03  0.13096129531E+03  0.00000000000E+00 0. -1.
          6    2    1    2  501    0 -0.31356276631E+02 -0.83181175260E+01 -0.62815139056E+02  0.18619515774E+03  0.17225123485E+03 0.  0.
         24    2    3    3    0    0 -0.48285288312E+01  0.41434734285E+02  0.13079131565E+02  0.91532081623E+02  0.80417077713E+02 0.  0.
         -6    2    1    2    0  502  0.31356276631E+02  0.83181175260E+01  0.12005672866E+04  0.12134795804E+04  0.17354675244E+03 0.  0.
        -24    2    5    5    0    0  0.16600012389E+00  0.65198379685E+02  0.90061985144E+03  0.90656142939E+03  0.80539755301E+02 0.  0.
          5    1    3    3  501    0 -0.26527747800E+02 -0.49752851811E+02 -0.75894270621E+02  0.94663076116E+02  0.47000000000E+01 0. -1.
        -11    1    4    4    0    0 -0.25302508558E+02 -0.12350233011E+02 -0.94940801977E+01  0.29713343023E+02  0.00000000000E+00 0.  1.
         12    1    4    4    0    0  0.20473979727E+02  0.53784967296E+02  0.22573211763E+02  0.61818738601E+02  0.00000000000E+00 0. -1.
         -5    1    5    5    0  502  0.31190276507E+02 -0.56880262159E+02  0.29994743511E+03  0.30691815098E+03  0.47000000000E+01 0.  1.
         13    1    6    6    0    0 -0.24690883334E+02 -0.18331751724E+01  0.41152745407E+03  0.41227156791E+03  0.00000000000E+00 0. -1.
        -14    1    6    6    0    0  0.24856883458E+02  0.67031554858E+02  0.48909239736E+03  0.49428986148E+03  0.00000000000E+00 0.  1.
</event>
<event>
12    1  0.1593360E-001  0.2296915E+03  0.7818608E-02  0.1127632E+00
         21   -1    0    0  501  502  0.00000000000E+00  0.00000000000E+00  0.45635671137E+03  0.45635671137E+03  0.00000000000E+00 0. -1.
         21   -1    0    0  502  503 -0.00000000000E+00 -0.00000000000E+00 -0.12731062236E+03  0.12731062236E+03  0.00000000000E+00 0.  1.
         -6    2    1    2    0  503 -0.14718267224E+03  0.39825695647E+02  0.66754018835E+02  0.23501946636E+03  0.16591933430E+03 0.  0.
        -24    2    3    3    0    0 -0.69610152592E+02 -0.24462320066E+02  0.73271263391E+02  0.13395013745E+03  0.84439225708E+02 0.  0.
          6    2    1    2  501    0  0.14718267224E+03 -0.39825695647E+02  0.26229207017E+03  0.34864786737E+03  0.17178294533E+03 0.  0.
         24    2    5    5    0    0  0.10755205859E+03 -0.76809309290E+02  0.12063340539E+03  0.19689925774E+03  0.82157068488E+02 0.  0.
          5    1    5    5  501    0  0.39630613644E+02  0.36983613642E+02  0.14165866478E+03  0.15174860963E+03  0.47000000000E+01 0. -1.
        -13    1    6    6    0    0 -0.49488903269E+01  0.37742167819E+01 -0.64873425754E+01  0.89900968557E+01  0.00000000000E+00 0.  1.
         14    1    6    6    0    0  0.11250094892E+03 -0.80583526071E+02  0.12712074796E+03  0.18790916089E+03  0.00000000000E+00 0. -1.
         -5    1    3    3    0  503 -0.77572519645E+02  0.64288015713E+02 -0.65172445564E+01  0.10106932890E+03  0.47000000000E+01 0.  1.
         11    1    4    4    0    0 -0.26461226834E+02 -0.44612245300E+02  0.69952454612E+01  0.52339109807E+02  0.00000000000E+00 0. -1.
        -12    1    4    4    0    0 -0.43148925757E+02  0.20149925235E+02  0.66276017930E+02  0.81611027647E+02  0.00000000000E+00 0.  1.
</event>
<event>
12    1  0.1593360E-001  0.1930742E+03  0.7818608E-02  0.1156078E+00
         21   -1    0    0  503  502  0.00000000000E+00  0.00000000000E+00  0.44587082126E+02  0.44587082126E+02  0.00000000000E+00 0.  1.
         21   -1    0    0  501  503 -0.00000000000E+00 -0.00000000000E+00 -0.97034495156E+03  0.97034495156E+03  0.00000000000E+00 0. -1.
          6    2    1    2  501    0 -0.35755644896E+02 -0.75415797202E+02 -0.26756068316E+03  0.32900113251E+03  0.17229920896E+03 0.  0.
         24    2    3    3    0    0 -0.71254944852E+02 -0.75655248650E+02 -0.12218645496E+03  0.17928134805E+03  0.80070519960E+02 0.  0.
         -6    2    1    2    0  502  0.35755644896E+02  0.75415797202E+02 -0.65819718627E+03  0.68593090118E+03  0.17410243125E+03 0.  0.
        -24    2    5    5    0    0  0.89808639615E+02  0.68812581772E+02 -0.46777581148E+03  0.48782053126E+03  0.79711340180E+02 0.  0.
          5    1    3    3  501    0  0.35499299955E+02  0.23945144869E+00 -0.14537422820E+03  0.14971978446E+03  0.47000000000E+01 0. -1.
        -11    1    4    4    0    0 -0.45289693989E+02 -0.85193582237E+02 -0.11609980808E+03  0.15095783608E+03  0.00000000000E+00 0.  1.
         12    1    4    4    0    0 -0.25965250863E+02  0.95383335867E+01 -0.60866468775E+01  0.28323511968E+02  0.00000000000E+00 0. -1.
         -5    1    5    5    0  502 -0.54052994718E+02  0.66032154292E+01 -0.19042137479E+03  0.19811036992E+03  0.47000000000E+01 0.  1.
         13    1    6    6    0    0  0.71453458307E+02  0.45895948007E+01 -0.24411519655E+03  0.25439907679E+03  0.00000000000E+00 0. -1.
        -14    1    6    6    0    0  0.18355181307E+02  0.64222986972E+02 -0.22366061493E+03  0.23342145447E+03  0.00000000000E+00 0.  1.
</event>
<event>
12    1  0.1593360E-001  0.2340444E+03  0.7818608E-02  0.1124238E+00
         21   -1    0    0  503  502  0.00000000000E+00  0.00000000000E+00  0.39844170765E+03  0.39844170765E+03  0.00000000000E+00 0.  1.
         21   -1    0    0  501  503 -0.00000000000E+00 -0.00000000000E+00 -0.17504233837E+03  0.17504233837E+03  0.00000000000E+00 0.  1.
          6    2    1    2  501    0  0.13629209837E+03  0.77202988834E+02  0.24742760712E+03  0.34058359343E+03  0.17389918283E+03 0.  0.
         24    2    3    3    0    0  0.12652369516E+03  0.82854990424E+02  0.26855510242E+03  0.31617400760E+03  0.70505071939E+02 0.  0.
         -6    2    1    2    0  502 -0.13629209837E+03 -0.77202988834E+02 -0.24028237837E+02  0.23290045258E+03  0.17067345147E+03 0.  0.
        -24    2    5    5    0    0 -0.73369984258E+02 -0.11028020188E+03  0.84050811022E+01  0.15462335092E+03  0.79327534599E+02 0.  0.
          5    1    3    3  501    0  0.97684032065E+01 -0.56520015905E+01 -0.21127495297E+02  0.24409585836E+02  0.47000000000E+01 0. -1.
        -11    1    4    4    0    0  0.25031824895E+02  0.30818937705E+02  0.13413083307E+03  0.13988380735E+03  0.00000000000E+00 0.  1.
         12    1    4    4    0    0  0.10149187027E+03  0.52036052720E+02  0.13442426935E+03  0.17629020024E+03  0.00000000000E+00 0. -1.
         -5    1    5    5    0  502 -0.62922114109E+02  0.33077213047E+02 -0.32433318939E+02  0.78277101660E+02  0.47000000000E+01 0.  1.
         11    1    6    6    0    0 -0.73468893328E+02 -0.10749416484E+03  0.29370028459E+02  0.13347386386E+03  0.00000000000E+00 0. -1.
        -12    1    6    6    0    0  0.98909070191E-01 -0.27860370391E+01 -0.20964947357E+02  0.21149487064E+02  0.00000000000E+00 0.  1.
</event>
<event>
12    1  0.1593360E-001  0.2055471E+03  0.7818608E-02  0.1145262E+00
         21   -1    0    0  501  502  0.00000000000E+00  0.00000000000E+00  0.56852780765E+03  0.56852780765E+03  0.00000000000E+00 0.  1.
         21   -1    0    0  502  503 -0.00000000000E+00 -0.00000000000E+00 -0.78396177074E+02  0.78396177074E+02  0.00000000000E+00 0. -1.
         -6    2    1    2    0  503  0.91078556126E+02  0.68868017644E+02  0.16900880594E+03  0.26565046503E+03  0.17020013469E+03 0.  0.
        -24    2    3    3    0    0  0.16787628242E+02 -0.23681037905E+02  0.79296199340E+02  0.11680520501E+03  0.80702866548E+02 0.  0.
          6    2    1    2  501    0 -0.91078556126E+02 -0.68868017644E+02  0.32112282464E+03  0.38127351970E+03  0.17091378258E+03 0.  0.
         24    2    5    5    0    0 -0.12461184519E+03 -0.81497619549E+02  0.24784918577E+03  0.29957220714E+03  0.78385677593E+02 0.  0.
          5    1    5    5  501    0  0.33533289060E+02  0.12629601906E+02  0.73273638876E+02  0.81701312557E+02  0.47000000000E+01 0. -1.
        -11    1    6    6    0    0 -0.11587352720E+03 -0.53642497644E+02  0.23546987083E+03  0.26786237497E+03  0.00000000000E+00 0.  1.
         12    1    6    6    0    0 -0.87383179866E+01 -0.27855121905E+02  0.12379314940E+02  0.31709832166E+02  0.00000000000E+00 0. -1.
         -5    1    3    3    0  503  0.74290927884E+02  0.92549055548E+02  0.89712606596E+02  0.14884526002E+03  0.47000000000E+01 0.  1.
         11    1    4    4    0    0 -0.24858214088E+02  0.93081204899E+01  0.48784775943E+02  0.55538511670E+02  0.00000000000E+00 0. -1.
        -12    1    4    4    0    0  0.41645842330E+02 -0.32989158395E+02  0.30511423396E+02  0.61266693339E+02  0.00000000000E+00 0.  1.
</event>
<event>
12    1  0.1593360E-001  0.3564519E+03  0.7818608E-02  0.1060257E+00
         21   -1    0    0  503  502  0.00000000000E+00  0.00000000000E+00  0.15898335730E+03  0.15898335730E+03  0.00000000000E+00 0. -1.
         21   -1    0    0  501  503 -0.00000000000E+00 -0.00000000000E+00 -0.80715040569E+03  0.80715040569E+03  0.00000000000E+00 0.  1.
          6    2    1    2  501    0 -0.22374392768E+03 -0.21323033578E+03 -0.38591235305E+03  0.52360071234E+03  0.17233931778E+03 0.  0.
         24    2    3    3    0    0 -0.96345855697E+02 -0.61145965382E+02 -0.78065421288E+02  0.15733339485E+03  0.75088175775E+02 0.  0.
         -6    2    1    2    0  502  0.22374392768E+03  0.21323033578E+03 -0.26225469534E+03  0.44253305065E+03  0.17756535253E+03 0.  0.
        -24    2    5    5    0    0  0.19753805538E+03  0.23286138603E+03 -0.26060578019E+03  0.40941304464E+03  0.80361433731E+02 0.  0.
          5    1    3    3  501    0 -0.12739807199E+03 -0.15208437040E+03 -0.30784693176E+03  0.36626731749E+03  0.47000000000E+01 0. -1.
        -11    1    4    4    0    0 -0.87683244939E+02 -0.71731277596E+02 -0.85347478760E+02  0.14183765283E+03  0.00000000000E+00 0.  1.
         12    1    4    4    0    0 -0.86626107576E+01  0.10585312214E+02  0.72820574719E+01  0.15495742022E+02  0.00000000000E+00 0. -1.
         -5    1    5    5    0  502  0.26205872298E+02 -0.19631050246E+02 -0.16489151510E+01  0.33120006006E+02  0.47000000000E+01 0.  1.
         11    1    6    6    0    0  0.12427960092E+03  0.11671444880E+03 -0.18902919298E+03  0.25455788647E+03  0.00000000000E+00 0. -1.
        -12    1    6    6    0    0  0.73258454467E+02  0.11614693723E+03 -0.71576587203E+02  0.15485515818E+03  0.00000000000E+00 0.  1.
</event>
<event>
12    1  0.1593360E-001  0.2266912E+03  0.7818608E-02  0.1129110E+00
         21   -1    0    0  503  502  0.00000000000E+00  0.00000000000E+00  0.15316909237E+03  0.15316909237E+03  0.00000000000E+00 0. -1.
         21   -1    0    0  501  503 -0.00000000000E+00 -0.00000000000E+00 -0.16949248095E+04  0.16949248095E+04  0.00000000000E+00 0.  1.
          6    2    1    2  501    0 -0.59711724330E+02  0.13512707289E+03 -0.15989548537E+04  0.16149444304E+04  0.17194206340E+03 0.  0.
         24    2    3    3    0    0 -0.37679544966E+02  0.79937576904E+02 -0.14463628744E+04  0.14511222721E+04  0.77333820670E+02 0.  0.
         -6    2    1    2    0  502  0.59711724330E+02 -0.13512707289E+03  0.57199136557E+02  0.23314947151E+03  0.17106174029E+03 0.  0.
        -24    2    5    5    0    0  0.12529569106E+02  0.18520861276E+01  0.28529685536E+02  0.85387929834E+02  0.79477891766E+02 0.  0.
          5    1    3    3  501    0 -0.22032179364E+02  0.55189495983E+02 -0.15259197925E+03  0.16382215823E+03  0.47000000000E+01 0. -1.
        -13    1    4    4    0    0 -0.28454118212E+02  0.81143669706E+02 -0.14275214539E+04  0.14301088886E+04  0.00000000000E+00 0.  1.
         14    1    4    4    0    0 -0.92254267548E+01 -0.12060928017E+01 -0.18841420543E+02  0.21013383514E+02  0.00000000000E+00 0. -1.
         -5    1    5    5    0  502  0.47182155224E+02 -0.13697915901E+03  0.28669451021E+02  0.14776154167E+03  0.47000000000E+01 0.  1.
         11    1    6    6    0    0 -0.60788853341E+01 -0.32903601081E+02  0.31364887577E+02  0.45862359116E+02  0.00000000000E+00 0. -1.
        -12    1    6    6    0    0  0.18608454440E+02  0.34755687208E+02 -0.28352020408E+01  0.39525570718E+02  0.00000000000E+00 0.  1.
</event>
<event>
12    1  0.1593360E-001  0.2141442E+03  0.7818608E-02  0.1139237E+00
         21   -1    0    0  501  502  0.00000000000E+00  0.00000000000E+00  0.52625617269E+03  0.52625617269E+03  0.00000000000E+00 0.  1.
         21   -1    0    0  502  503 -0.00000000000E+00 -0.00000000000E+00 -0.13628535837E+03  0.13628535837E+03  0.00000000000E+00 0.  1.
         -6    2    1    2    0  503  0.55229577555E+02 -0.10844662800E+03 -0.63805519305E+01  0.21423928132E+03  0.17620096724E+03 0.  0.
        -24    2    3    3    0    0 -0.61720028638E+01 -0.87725579587E+02  0.48937656860E+02  0.12890634425E+03  0.80548621317E+02 0.  0.
          6    2    1    2  501    0 -0.55229577555E+02  0.10844662800E+03  0.39635136624E+03  0.44830224974E+03  0.17049787165E+03 0.  0.
         24    2    5    5    0    0 -0.16214048771E+02  0.13334847840E+03  0.24966290128E+03  0.29441297333E+03  0.79389687751E+02 0.  0.
          5    1    5    5  501    0 -0.39015528785E+02 -0.24901850404E+02  0.14668846497E+03  0.15388927641E+03  0.47000000000E+01 0. -1.
        -11    1    6    6    0    0 -0.21192888140E+01  0.60021345071E+02  0.18867126393E+03  0.19799974515E+03  0.00000000000E+00 0.  1.
         12    1    6    6    0    0 -0.14094759957E+02  0.73327133332E+02  0.60991637354E+02  0.96413228180E+02  0.00000000000E+00 0. -1.
         -5    1    3    3    0  503  0.61401580419E+02 -0.20721048412E+02 -0.55318208790E+02  0.85332937070E+02  0.47000000000E+01 0.  1.
         11    1    4    4    0    0  0.18972947431E+02 -0.11681490677E+02 -0.14628343413E+02  0.26653674975E+02  0.00000000000E+00 0. -1.
        -12    1    4    4    0    0 -0.25144950295E+02 -0.76044088910E+02  0.63566000273E+02  0.10225266928E+03  0.00000000000E+00 0.  1.
</event>
<event>
12    1  0.1593360E-001  0.2242217E+03  0.7818608E-02  0.1130848E+00
         21   -1    0    0  503  502  0.00000000000E+00  0.00000000000E+00  0.56662941353E+02  0.56662941353E+02  0.00000000000E+00 0. -1.
         21   -1    0    0  501  503 -0.00000000000E+00 -0.00000000000E+00 -0.13133655943E+04  0.13133655943E+04  0.00000000000E+00 0. -1.
          6    2    1    2  501    0  0.21399744280E+02  0.14206543855E+03 -0.10188746636E+04  0.10431684112E+04  0.17162230641E+03 0.  0.
         24    2    3    3    0    0 -0.50574634724E+02  0.11108425004E+03 -0.66030945628E+03  0.67611086368E+03  0.78865820496E+02 0.  0.
         -6    2    1    2    0  502 -0.21399744280E+02 -0.14206543855E+03 -0.23782798931E+03  0.32686012444E+03  0.17214775794E+03 0.  0.
        -24    2    5    5    0    0 -0.32510108540E+02 -0.82798644452E+02 -0.23804179972E+03  0.26637765763E+03  0.79878879502E+02 0.  0.
          5    1    3    3  501    0  0.71974379005E+02  0.30981188508E+02 -0.35856520731E+03  0.36705754749E+03  0.47000000000E+01 0. -1.
        -13    1    4    4    0    0 -0.54596710503E+02  0.29340636334E+02 -0.23759420749E+03  0.24554568041E+03  0.00000000000E+00 0.  1.
         14    1    4    4    0    0  0.40220757794E+01  0.81743613707E+02 -0.42271524879E+03  0.43056518326E+03  0.00000000000E+00 0. -1.
         -5    1    5    5    0  502  0.11110364260E+02 -0.59266794097E+02  0.21381041088E+00  0.60482466810E+02  0.47000000000E+01 0.  1.
         11    1    6    6    0    0 -0.92535620332E+01 -0.87959779671E+02 -0.14091321037E+03  0.16637032220E+03  0.00000000000E+00 0. -1.
        -12    1    6    6    0    0 -0.23256546507E+02  0.51611352190E+01 -0.97128589346E+02  0.10000733543E+03  0.00000000000E+00 0.  1.
</event>
<event>
12    1  0.1593360E-001  0.1820992E+03  0.7818608E-02  0.1166878E+00
         21   -1    0    0  501  502  0.00000000000E+00  0.00000000000E+00  0.22025669904E+03  0.22025669904E+03  0.00000000000E+00 0. -1.
         21   -1    0    0  502  503 -0.00000000000E+00 -0.00000000000E+00 -0.15696857167E+03  0.15696857167E+03  0.00000000000E+00 0. -1.
         -6    2    1    2    0  503  0.23352310855E+02  0.41694914243E+02 -0.15887635453E+02  0.18279094309E+03  0.17571657753E+03 0.  0.
        -24    2    3    3    0    0  0.49652524461E+02  0.53358454029E+02 -0.63873393153E+02  0.12664415032E+03  0.81525656430E+02 0.  0.
          6    2    1    2  501    0 -0.23352310855E+02 -0.41694914243E+02  0.79175762825E+02  0.19443432762E+03  0.17103248242E+03 0.  0.
         24    2    5    5    0    0  0.40459591028E+01 -0.38308800018E+02 -0.16383434443E+02  0.94856312236E+02  0.85119733923E+02 0.  0.
          5    1    5    5  501    0 -0.27398269957E+02 -0.33861142255E+01  0.95559197268E+02  0.99578015388E+02  0.47000000000E+01 0. -1.
        -11    1    6    6    0    0  0.18253179720E+02  0.22970956053E+02 -0.12314760441E+02  0.31819753559E+02  0.00000000000E+00 0.  1.
         12    1    6    6    0    0 -0.14207220617E+02 -0.61279756070E+02 -0.40686740012E+01  0.63036558677E+02  0.00000000000E+00 0. -1.
         -5    1    3    3    0  503 -0.26300213606E+02 -0.11663539786E+02  0.47985757699E+02  0.56146792767E+02  0.47000000000E+01 0.  1.
         11    1    4    4    0    0  0.52851197665E+02  0.50947008686E+02 -0.11721557182E+02  0.74338695788E+02  0.00000000000E+00 0. -1.
        -12    1    4    4    0    0 -0.31986732043E+01  0.24114453425E+01 -0.52151835971E+02  0.52305454534E+02  0.00000000000E+00 0.  1.
</event>
<event>
12    1  0.1593360E-001  0.2085768E+03  0.7818608E-02  0.1142776E+00
         21   -1    0    0  501  502  0.00000000000E+00  0.00000000000E+00  0.16372543571E+03  0.16372543571E+03  0.00000000000E+00 0.  1.
         21   -1    0    0  502  503 -0.00000000000E+00 -0.00000000000E+00 -0.26589219813E+03  0.26589219813E+03  0.00000000000E+00 0.  1.
         -6    2    1    2    0  503 -0.73085688100E+02  0.90795025611E+02 -0.40335048071E+02  0.21244104000E+03  0.17297116781E+03 0.  0.
        -24    2    3    3    0    0  0.29061669511E+02  0.45202667013E+02 -0.23763090817E+02  0.99262130319E+02  0.80002651771E+02 0.  0.
          6    2    1    2  501    0  0.73085688100E+02 -0.90795025611E+02 -0.61831714354E+02  0.21717659384E+03  0.17250292035E+03 0.  0.
         24    2    5    5    0    0 -0.41582212326E+01 -0.14738909282E+02 -0.71632621646E+02  0.10823026694E+03  0.79674537638E+02 0.  0.
          5    1    5    5  501    0  0.77243909333E+02 -0.76056116329E+02  0.98009072919E+01  0.10894632689E+03  0.47000000000E+01 0. -1.
        -13    1    6    6    0    0  0.13995052812E+02  0.23128309956E+02 -0.58148060213E+02  0.64124699852E+02  0.00000000000E+00 0.  1.
         14    1    6    6    0    0 -0.18153274044E+02 -0.37867219237E+02 -0.13484561433E+02  0.44105567090E+02  0.00000000000E+00 0. -1.
         -5    1    3    3    0  503 -0.10214735761E+03  0.45592358598E+02 -0.16571957254E+02  0.11317890968E+03  0.47000000000E+01 0.  1.
         11    1    4    4    0    0  0.22919541962E+02  0.28894961732E+02 -0.53390175959E+02  0.64890177270E+02  0.00000000000E+00 0. -1.
        -12    1    4    4    0    0  0.61421275489E+01  0.16307705281E+02  0.29627085142E+02  0.34371953048E+02  0.00000000000E+00 0.  1.
</event>
<event>
12    1  0.1593360E-001  0.2112451E+03  0.7818608E-02  0.1141321E+00
         21   -1    0    0  503  502  0.00000000000E+00  0.00000000000E+00  0.14851981244E+03  0.14851981244E+03  0.00000000000E+00 0.  1.
         21   -1    0    0  501  503 -0.00000000000E+00 -0.00000000000E+00 -0.30133675623E+03  0.30133675623E+03  0.00000000000E+00 0.  1.
          6    2    1    2  501    0  0.21744706386E+01 -0.11686619709E+03 -0.10918012161E+03  0.23779151466E+03  0.17596041926E+03 0.  0.
         24    2    3    3    0    0 -0.44186614186E+02 -0.35727091901E+02 -0.10576421424E+03  0.14416105487E+03  0.79796358055E+02 0.  0.
         -6    2    1    2    0  502 -0.21744706386E+01  0.11686619709E+03 -0.43636822179E+02  0.21206505400E+03  0.17147879908E+03 0.  0.
        -24    2    5    5    0    0 -0.98064780966E+01  0.74749763899E+02 -0.94620801554E+02  0.14533052295E+03  0.80524347853E+02 0.  0.
          5    1    3    3  501    0  0.46361084825E+02 -0.81139105189E+02 -0.34159073677E+01  0.93630459788E+02  0.47000000000E+01 0. -1.
        -11    1    4    4    0    0  0.23085475927E+02 -0.13901641174E+02 -0.34269014109E+02  0.43595414370E+02  0.00000000000E+00 0.  1.
         12    1    4    4    0    0 -0.67272090113E+02 -0.21825450727E+02 -0.71495200136E+02  0.10056564050E+03  0.00000000000E+00 0. -1.
         -5    1    5    5    0  502  0.76320074580E+01  0.42116433191E+02  0.50983979375E+02  0.66734531058E+02  0.47000000000E+01 0.  1.
         11    1    6    6    0    0  0.22399588691E+02  0.49715658113E+02 -0.16115923161E+02  0.56860453872E+02  0.00000000000E+00 0. -1.
        -12    1    6    6    0    0 -0.32206066788E+02  0.25034105786E+02 -0.78504878393E+02  0.88470069073E+02  0.00000000000E+00 0.  1.
</event>
<event>
12    1  0.1593360E-001  0.2831405E+03  0.7818608E-02  0.1095306E+00
         21   -1    0    0  503  502  0.00000000000E+00  0.00000000000E+00  0.30668101003E+03  0.30668101003E+03  0.00000000000E+00 0.  1.
         21   -1    0    0  501  503 -0.00000000000E+00 -0.00000000000E+00 -0.25297892796E+03  0.25297892796E+03  0.00000000000E+00 0. -1.
          6    2    1    2  501    0  0.20654912164E+03 -0.52218676686E+02  0.16438926290E+02  0.28361732969E+03  0.18649188067E+03 0.  0.
         24    2    3    3    0    0  0.19094844174E+02 -0.28203332243E+02  0.34227247767E+02  0.93737480067E+02  0.80344070447E+02 0.  0.
         -6    2    1    2    0  502 -0.20654912164E+03  0.52218676686E+02  0.37263155780E+02  0.27604260830E+03  0.17152740007E+03 0.  0.
        -24    2    5    5    0    0 -0.31194248501E+02  0.41888703550E+02 -0.69410113643E+01  0.94846200303E+02  0.78866212337E+02 0.  0.
          5    1    3    3  501    0  0.18745427747E+03 -0.24015344443E+02 -0.17788321477E+02  0.18987984962E+03  0.47000000000E+01 0. -1.
        -13    1    4    4    0    0 -0.28014460122E+02  0.73868178264E+00 -0.12371353745E+01  0.28051490703E+02  0.00000000000E+00 0.  1.
         14    1    4    4    0    0  0.47109304296E+02 -0.28942014025E+02  0.35464383142E+02  0.65685989364E+02  0.00000000000E+00 0. -1.
         -5    1    5    5    0  502 -0.17535487314E+03  0.10329973136E+02  0.44204167145E+02  0.18119640800E+03  0.47000000000E+01 0.  1.
         13    1    6    6    0    0 -0.17569210995E+02  0.20905463009E+02  0.35977768550E+02  0.45167636516E+02  0.00000000000E+00 0. -1.
        -14    1    6    6    0    0 -0.13625037505E+02  0.20983240541E+02 -0.42918779914E+02  0.49678563787E+02  0.00000000000E+00 0.  1.
</event>
<event>
12    1  0.1593360E-001  0.1897801E+03  0.7818608E-02  0.1159830E+00
         21   -1    0    0  503  502  0.00000000000E+00  0.00000000000E+00  0.62616069861E+02  0.62616069861E+02  0.00000000000E+00 0.  1.
         21   -1    0    0  501  503 -0.00000000000E+00 -0.00000000000E+00 -0.57070500070E+03  0.57070500070E+03  0.00000000000E+00 0.  1.
          6    2    1    2  501    0 -0.56532507417E+02  0.12625287785E+02 -0.29437473503E+03  0.34750600225E+03  0.17535282914E+03 0.  0.
         24    2    3    3    0    0 -0.20516395613E+02  0.62949291723E+02 -0.25247773686E+03  0.27262533627E+03  0.78714868663E+02 0.  0.
         -6    2    1    2    0  502  0.56532507417E+02 -0.12625287785E+02 -0.21371419581E+03  0.28581506831E+03  0.18072402579E+03 0.  0.
        -24    2    5    5    0    0 -0.48852987770E+01  0.53770297956E+02 -0.13313009674E+03  0.16458632690E+03  0.80311426681E+02 0.  0.
          5    1    3    3  501    0 -0.36016111803E+02 -0.50324003938E+02 -0.41896998171E+02  0.74880665980E+02  0.47000000000E+01 0. -1.
        -11    1    4    4    0    0 -0.34977234959E+02  0.62749827215E+02 -0.12377455379E+03  0.14311215164E+03  0.00000000000E+00 0.  1.
         12    1    4    4    0    0  0.14460839345E+02  0.19946450856E+00 -0.12870318307E+03  0.12951318463E+03  0.00000000000E+00 0. -1.
         -5    1    5    5    0  502  0.61417806194E+02 -0.66395585741E+02 -0.80584099064E+02  0.12122874142E+03  0.47000000000E+01 0.  1.
         11    1    6    6    0    0 -0.63878396229E+01  0.50259672481E+02 -0.25193596549E+02  0.56582298292E+02  0.00000000000E+00 0. -1.
        -12    1    6    6    0    0  0.15025408459E+01  0.35106254751E+01 -0.10793650020E+03  0.10800402860E+03  0.00000000000E+00 0.  1.
</event>
<event>
12    1  0.1593360E-001  0.1772759E+03  0.7818608E-02  0.1171039E+00
         21   -1    0    0  503  502  0.00000000000E+00  0.00000000000E+00  0.68676693532E+03  0.68676693532E+03  0.00000000000E+00 0. -1.
         21   -1    0    0  501  503 -0.00000000000E+00 -0.00000000000E+00 -0.45778131835E+02  0.45778131835E+02  0.00000000000E+00 0. -1.
          6    2    1    2  501    0  0.13273056591E+02  0.20841640503E+02  0.28026237725E+03  0.33162291648E+03  0.17554546598E+03 0.  0.
         24    2    3    3    0    0 -0.56909748289E+02  0.30419037693E+02  0.11421201191E+03  0.15103452686E+03  0.74853238635E+02 0.  0.
         -6    2    1    2    0  502 -0.13273056591E+02 -0.20841640503E+02  0.36072642624E+03  0.40092215067E+03  0.17321797916E+03 0.  0.
        -24    2    5    5    0    0  0.22118022498E+01  0.51508717120E+02  0.24818855194E+03  0.26615858641E+03  0.81146754694E+02 0.  0.
          5    1    3    3  501    0  0.70182804881E+02 -0.95773971902E+01  0.16605036534E+03  0.18058838962E+03  0.47000000000E+01 0. -1.
        -13    1    4    4    0    0 -0.60849553175E+02 -0.32435780997E+00  0.46558537198E+02  0.76618997093E+02  0.00000000000E+00 0.  1.
         14    1    4    4    0    0  0.39398048852E+01  0.30743395503E+02  0.67653474709E+02  0.74415529762E+02  0.00000000000E+00 0. -1.
         -5    1    5    5    0  502 -0.15484858841E+02 -0.72350357623E+02  0.11253787430E+03  0.13476356427E+03  0.47000000000E+01 0.  1.
         13    1    6    6    0    0 -0.28430818920E+02 -0.77135140746E+01  0.76582193502E+02  0.82052678965E+02  0.00000000000E+00 0. -1.
        -14    1    6    6    0    0  0.30642621169E+02  0.59222231195E+02  0.17160635844E+03  0.18410590744E+03  0.00000000000E+00 0.  1.
</event>
<event>
12    1  0.1593360E-001  0.2192142E+03  0.7818608E-02  0.1134815E+00
         21   -1    0    0  501  502  0.00000000000E+00  0.00000000000E+00  0.10633658216E+04  0.10633658216E+04  0.00000000000E+00 0. -1.
         21   -1    0    0  502  503 -0.00000000000E+00 -0.00000000000E+00 -0.51899986733E+02  0.51899986733E+02  0.00000000000E+00 0. -1.
         -6    2    1    2    0  503  0.12870494589E+03 -0.35116586877E+02  0.70994188194E+03  0.74247689946E+03  0.17162847294E+03 0.  0.
        -24    2    3    3    0    0  0.13048923519E+03  0.26594321294E+02  0.52533989445E+03  0.54776838998E+03  0.79583327028E+02 0.  0.
          6    2    1    2  501    0 -0.12870494589E+03  0.35116586877E+02  0.30152395297E+03  0.37278890892E+03  0.17394464242E+03 0.  0.
         24    2    5    5    0    0 -0.49644692093E+02 -0.26341041391E+02  0.77637276293E+02  0.12748318580E+03  0.84059324740E+02 0.  0.
          5    1    5    5  501    0 -0.79060253800E+02  0.61457628268E+02  0.22388667668E+03  0.24530572312E+03  0.47000000000E+01 0. -1.
        -11    1    6    6    0    0 -0.27833026015E+02  0.29644244102E+02  0.26050673559E+02  0.48291781272E+02  0.00000000000E+00 0.  1.
         12    1    6    6    0    0 -0.21811666078E+02 -0.55985285493E+02  0.51586602734E+02  0.79191404524E+02  0.00000000000E+00 0. -1.
         -5    1    3    3    0  503 -0.17842892991E+01 -0.61710908171E+02  0.18460198749E+03  0.19470850947E+03  0.47000000000E+01 0.  1.
         11    1    4    4    0    0  0.75877105865E+02 -0.20448835212E+02  0.33861402997E+03  0.34761322090E+03  0.00000000000E+00 0. -1.
        -12    1    4    4    0    0  0.54612129327E+02  0.47043156506E+02  0.18672586448E+03  0.20015516908E+03  0.00000000000E+00 0.  1.
</event>
<event>
12    1  0.1593360E-001  0.1840194E+03  0.7818608E-02  0.1164065E+00
         21   -1    0    0  501  502  0.00000000000E+00  0.00000000000E+00  0.76463033482E+03  0.76463033482E+03  0.00000000000E+00 0. -1.
         21   -1    0    0  502  503 -0.00000000000E+00 -0.00000000000E+00 -0.47424841694E+02  0.47424841694E+02  0.00000000000E+00 0. -1.
         -6    2    1    2    0  503 -0.51570546413E+02 -0.36675119171E+02  0.25290619467E+03  0.31276934791E+03  0.17279622700E+03 0.  0.
        -24    2    3    3    0    0 -0.10117115097E+03 -0.22890274731E+02  0.18933933257E+03  0.23083597335E+03  0.81708611962E+02 0.  0.
          6    2    1    2  501    0  0.51570546413E+02  0.36675119171E+02  0.46429929845E+03  0.49928582860E+03  0.17235984008E+03 0.  0.
         24    2    5    5    0    0 -0.30073095391E+02  0.46411428181E+02  0.25813479508E+03  0.27728048540E+03  0.84808510293E+02 0.  0.
          5    1    5    5  501    0  0.81643641805E+02 -0.97363090099E+01  0.20616450337E+03  0.22200534321E+03  0.47000000000E+01 0. -1.
        -13    1    6    6    0    0  0.12850197777E+02 -0.22134423895E+00  0.15048743416E+01  0.12939908151E+02  0.00000000000E+00 0.  1.
         14    1    6    6    0    0 -0.42923293168E+02  0.46632772420E+02  0.25662992074E+03  0.26434057725E+03  0.00000000000E+00 0. -1.
         -5    1    3    3    0  503  0.49600604562E+02 -0.13784844440E+02  0.63566862102E+02  0.81933374559E+02  0.47000000000E+01 0.  1.
         11    1    4    4    0    0 -0.73345466328E+02  0.24256717163E+02  0.11382147673E+03  0.13756189270E+03  0.00000000000E+00 0. -1.
        -12    1    4    4    0    0 -0.27825684647E+02 -0.47146991894E+02  0.75517855835E+02  0.93274080648E+02  0.00000000000E+00 0.  1.
</event>
<event>
12    1  0.1593360E-001  0.1804259E+03  0.7818608E-02  0.1167395E+00
         21   -1    0    0  503  502  0.00000000000E+00  0.00000000000E+00  0.12053901094E+03  0.12053901094E+03  0.00000000000E+00 0. -1.
         21   -1    0    0  501  503 -0.00000000000E+00 -0.00000000000E+00 -0.14029741967E+04  0.14029741967E+04  0.00000000000E+00 0. -1.
          6    2    1    2  501    0 -0.50930205877E+02 -0.12836885388E+02 -0.13257434339E+04  0.13379623342E+04  0.17259456483E+03 0.  0.
         24    2    3    3    0    0 -0.21916732414E+02 -0.49921836047E+02 -0.44045028665E+03  0.45140544279E+03  0.82449292864E+02 0.  0.
         -6    2    1    2    0  502  0.50930205877E+02  0.12836885388E+02  0.43308248141E+02  0.18555087341E+03  0.17261185002E+03 0.  0.
        -24    2    5    5    0    0  0.59776770281E+02 -0.46688955741E+02  0.56935220917E+02  0.12366895480E+03  0.79367941550E+02 0.  0.
          5    1    3    3  501    0 -0.29013473463E+02  0.37084950660E+02 -0.88529314724E+03  0.88655689144E+03  0.47000000000E+01 0. -1.
        -13    1    4    4    0    0 -0.88832302859E+01  0.19346056998E+02 -0.19118845575E+03  0.19236997508E+03  0.00000000000E+00 0.  1.
         14    1    4    4    0    0 -0.13033502128E+02 -0.69267893046E+02 -0.24926183090E+03  0.25903546771E+03  0.00000000000E+00 0. -1.
         -5    1    5    5    0  502 -0.88465644043E+01  0.59525841129E+02 -0.13626972775E+02  0.61881918610E+02  0.47000000000E+01 0.  1.
         11    1    6    6    0    0  0.59932585530E+02 -0.33050338975E+01  0.53057110762E+02  0.80111766051E+02  0.00000000000E+00 0. -1.
        -12    1    6    6    0    0 -0.15581524873E+00 -0.43383921844E+02  0.38781101547E+01  0.43557188744E+02  0.00000000000E+00 0.  1.
</event>
<event>
12    1  0.1593360E-001  0.2706224E+03  0.7818608E-02  0.1101263E+00
         21   -1    0    0  503  502  0.00000000000E+00  0.00000000000E+00  0.32961893719E+03  0.32961893719E+03  0.00000000000E+00 0. -1.
         21   -1    0    0  501  503 -0.00000000000E+00 -0.00000000000E+00 -0.76979477080E+03  0.76979477080E+03  0.00000000000E+00 0. -1.
          6    2    1    2  501    0  0.14806319116E+03 -0.13849044646E+03 -0.68482116850E+03  0.73635353047E+03  0.17926008106E+03 0.  0.
         24    2    3    3    0    0  0.14175441350E+03 -0.34314651240E+02 -0.40750915748E+03  0.44001514543E+03  0.79232605322E+02 0.  0.
         -6    2    1    2    0  502 -0.14806319116E+03  0.13849044646E+03  0.24464533489E+03  0.36306017753E+03  0.17566741384E+03 0.  0.
        -24    2    5    5    0    0 -0.75494685093E+02  0.10488704922E+03  0.23839577703E+03  0.28270768315E+03  0.79939646201E+02 0.  0.
          5    1    3    3  501    0  0.63087776649E+01 -0.10417579522E+03 -0.27731201103E+03  0.29633838503E+03  0.47000000000E+01 0. -1.
        -11    1    4    4    0    0  0.88081257942E+02 -0.28252747828E+02 -0.14489939727E+03  0.17190800182E+03  0.00000000000E+00 0.  1.
         12    1    4    4    0    0  0.53673155557E+02 -0.60619034122E+01 -0.26260976020E+03  0.26810714361E+03  0.00000000000E+00 0. -1.
         -5    1    5    5    0  502 -0.72568506070E+02  0.33603397241E+02  0.62495578570E+01  0.80352494378E+02  0.47000000000E+01 0.  1.
         13    1    6    6    0    0 -0.64517368848E+02  0.21785320868E+02  0.10373199177E+03  0.12408632965E+03  0.00000000000E+00 0. -1.
        -14    1    6    6    0    0 -0.10977316245E+02  0.83101728348E+02  0.13466378526E+03  0.15862135350E+03  0.00000000000E+00 0.  1.
</event>
<event>
12    1  0.1593360E-001  0.1843144E+03  0.7818608E-02  0.1163728E+00
         21   -1    0    0  501  502  0.00000000000E+00  0.00000000000E+00  0.12118379799E+03  0.12118379799E+03  0.00000000000E+00 0. -1.
         21   -1    0    0  502  503 -0.00000000000E+00 -0.00000000000E+00 -0.31821748202E+03  0.31821748202E+03  0.00000000000E+00 0. -1.
         -6    2    1    2    0  503  0.58021493878E+02 -0.29914134016E+02 -0.17452338397E+03  0.25371738686E+03  0.17219974355E+03 0.  0.
        -24    2    3    3    0    0 -0.24000708033E+02  0.11853189141E+02 -0.11156638478E+03  0.14210276131E+03  0.83842736601E+02 0.  0.
          6    2    1    2  501    0 -0.58021493878E+02  0.29914134016E+02 -0.22510300061E+02  0.18568389315E+03  0.17236718191E+03 0.  0.
         24    2    5    5    0    0  0.35814807453E+02  0.21075702785E+02 -0.20121872256E+01  0.89114581542E+02  0.78806561054E+02 0.  0.
          5    1    5    5  501    0 -0.93836301331E+02  0.88384312309E+01 -0.20498112836E+02  0.96569311606E+02  0.47000000000E+01 0. -1.
        -13    1    6    6    0    0  0.21746908876E+02  0.26839645119E+02 -0.37210602482E+02  0.50773256079E+02  0.00000000000E+00 0.  1.
         14    1    6    6    0    0  0.14067898578E+02 -0.57639423348E+01  0.35198415257E+02  0.38341325463E+02  0.00000000000E+00 0. -1.
         -5    1    3    3    0  503  0.82022201910E+02 -0.41767323156E+02 -0.62956999193E+02  0.11161462555E+03  0.47000000000E+01 0.  1.
         11    1    4    4    0    0  0.64618010838E+01  0.38739551017E+02 -0.25221184437E+02  0.46675644941E+02  0.00000000000E+00 0. -1.
        -12    1    4    4    0    0 -0.30462509116E+02 -0.26886361876E+02 -0.86345200343E+02  0.95427116371E+02  0.00000000000E+00 0.  1.
</event>
<event>
12    1  0.1593360E-001  0.2008274E+03  0.7818608E-02  0.1149493E+00
         21   -1    0    0  501  502  0.00000000000E+00  0.00000000000E+00  0.27413201281E+03  0.27413201281E+03  0.00000000000E+00 0. -1.
         21   -1    0    0  502  503 -0.00000000000E+00 -0.00000000000E+00 -0.34223408022E+03  0.34223408022E+03  0.00000000000E+00 0. -1.
         -6    2    1    2    0  503 -0.89974209496E+02  0.52059158330E+02 -0.26774874340E+03  0.33469543791E+03  0.17183169738E+03 0.  0.
        -24    2    3    3    0    0 -0.11451317794E+03  0.80215678057E+02 -0.23227461769E+03  0.28297064530E+03  0.81074442032E+02 0.  0.
          6    2    1    2  501    0  0.89974209496E+02 -0.52059158330E+02  0.19964667599E+03  0.28167065512E+03  0.16933413236E+03 0.  0.
         24    2    5    5    0    0  0.12380600945E+03 -0.24501417130E+02  0.12453730125E+03  0.19467911553E+03  0.80387630895E+02 0.  0.
          5    1    5    5  501    0 -0.33831799954E+02 -0.27557741200E+02  0.75109374734E+02  0.86991539595E+02  0.47000000000E+01 0. -1.
        -13    1    6    6    0    0  0.12076525720E+02 -0.28167979990E+02  0.50673370081E+01  0.31063732463E+02  0.00000000000E+00 0.  1.
         14    1    6    6    0    0  0.11172948373E+03  0.36665628599E+01  0.11946996425E+03  0.16361538306E+03  0.00000000000E+00 0. -1.
         -5    1    3    3    0  503  0.24538968443E+02 -0.28156519728E+02 -0.35474125713E+02  0.51724792610E+02  0.47000000000E+01 0.  1.
         11    1    4    4    0    0 -0.98536666076E+02  0.22660828342E+02 -0.15914502091E+03  0.18854740885E+03  0.00000000000E+00 0. -1.
        -12    1    4    4    0    0 -0.15976511863E+02  0.57554849716E+02 -0.73129596774E+02  0.94423236449E+02  0.00000000000E+00 0.  1.
</event>
<event>
12    1  0.1593360E-001  0.2060400E+03  0.7818608E-02  0.1145382E+00
         21   -1    0    0  503  502  0.00000000000E+00  0.00000000000E+00  0.16190709001E+03  0.16190709001E+03  0.00000000000E+00 0.  1.
         21   -1    0    0  501  503 -0.00000000000E+00 -0.00000000000E+00 -0.43165303532E+03  0.43165303532E+03  0.00000000000E+00 0.  1.
          6    2    1    2  501    0  0.10621876431E+03  0.24661830614E+02 -0.32236511022E+03  0.38090720668E+03  0.17111517768E+03 0.  0.
         24    2    3    3    0    0  0.10041886490E+03 -0.42222402836E+02 -0.20417583715E+03  0.24490009736E+03  0.80134920473E+02 0.  0.
         -6    2    1    2    0  502 -0.10621876431E+03 -0.24661830614E+02  0.52619164913E+02  0.21265291865E+03  0.17481949409E+03 0.  0.
        -24    2    5    5    0    0  0.99236024944E+00  0.25326461366E+02  0.13935398831E+02  0.88107431689E+02  0.83224454062E+02 0.  0.
          5    1    3    3  501    0  0.57998994054E+01  0.66884233450E+02 -0.11818927307E+03  0.13600710933E+03  0.47000000000E+01 0. -1.
        -13    1    4    4    0    0  0.55232125120E+02  0.13170092828E+02 -0.13012820414E+03  0.14197671817E+03  0.00000000000E+00 0.  1.
         14    1    4    4    0    0  0.45186739783E+02 -0.55392495665E+02 -0.74047633014E+02  0.10292337919E+03  0.00000000000E+00 0. -1.
         -5    1    5    5    0  502 -0.10721112456E+03 -0.49988291980E+02  0.38683766081E+02  0.12454548696E+03  0.47000000000E+01 0.  1.
         13    1    6    6    0    0  0.92635337925E+01  0.23526125561E+02 -0.32347568116E+02  0.41056751032E+02  0.00000000000E+00 0. -1.
        -14    1    6    6    0    0 -0.82711735431E+01  0.18003358056E+01  0.46282966948E+02  0.47050680657E+02  0.00000000000E+00 0.  1.
</event>
<event>
12    1  0.1593360E-001  0.1977302E+03  0.7818608E-02  0.1151959E+00
         21   -1    0    0  503  502  0.00000000000E+00  0.00000000000E+00  0.19896332843E+03  0.19896332843E+03  0.00000000000E+00 0.  1.
         21   -1    0    0  501  503 -0.00000000000E+00 -0.00000000000E+00 -0.21188113359E+03  0.21188113359E+03  0.00000000000E+00 0. -1.
          6    2    1    2  501    0  0.36459118401E+02 -0.87137209537E+02 -0.64143263891E+02  0.20658660088E+03  0.17216708384E+03 0.  0.
         24    2    3    3    0    0 -0.28428880328E+02 -0.29781306577E+02 -0.78169483772E+02  0.11872889303E+03  0.79315536875E+02 0.  0.
         -6    2    1    2    0  502 -0.36459118401E+02  0.87137209537E+02  0.51225458731E+02  0.20425786115E+03  0.17370971653E+03 0.  0.
        -24    2    5    5    0    0 -0.21502689698E+02  0.64640676631E+02 -0.37152036043E+02  0.11172429786E+03  0.80381976901E+02 0.  0.
          5    1    3    3  501    0  0.64887998728E+02 -0.57355902960E+02  0.14026219881E+02  0.87857707843E+02  0.47000000000E+01 0. -1.
        -11    1    4    4    0    0 -0.18842001365E+02  0.24602502087E+02 -0.13813958993E+02  0.33928300686E+02  0.00000000000E+00 0.  1.
         12    1    4    4    0    0 -0.95868789626E+01 -0.54383808664E+02 -0.64355524779E+02  0.84800592348E+02  0.00000000000E+00 0. -1.
         -5    1    5    5    0  502 -0.14956428703E+02  0.22496532906E+02  0.88377494774E+02  0.92533563289E+02  0.47000000000E+01 0.  1.
         13    1    6    6    0    0  0.22760872515E+02  0.53932402568E+02 -0.29478452715E+02  0.65541899110E+02  0.00000000000E+00 0. -1.
        -14    1    6    6    0    0 -0.44263562213E+02  0.10708274063E+02 -0.76735833276E+01  0.46182398750E+02  0.00000000000E+00 0.  1.
</event>
<event>
12    1  0.1593360E-001  0.2095248E+03  0.7818608E-02  0.1142141E+00
         21   -1    0    0  501  502  0.00000000000E+00  0.00000000000E+00  0.42590124538E+03  0.42590124538E+03  0.00000000000E+00 0.  1.
         21   -1    0    0  502  503 -0.00000000000E+00 -0.00000000000E+00 -0.14311225468E+03  0.14311225468E+03  0.00000000000E+00 0. -1.
         -6    2    1    2    0  503 -0.11925448479E+03 -0.10933773436E+02 -0.10239259412E+02  0.20878273304E+03  0.17071674680E+03 0.  0.
        -24    2    3    3    0    0 -0.14055363721E+03 -0.17620134340E+01  0.27354985012E+02  0.16436210394E+03  0.80673269324E+02 0.  0.
          6    2    1    2  501    0  0.11925448479E+03  0.10933773436E+02  0.29302825011E+03  0.36023076701E+03  0.17192867880E+03 0.  0.
         24    2    5    5    0    0  0.10119145671E+03  0.32044351248E+02  0.30332513307E+03  0.33023001239E+03  0.76020874624E+02 0.  0.
          5    1    5    5  501    0  0.18063028087E+02 -0.21110577812E+02 -0.10296882952E+02  0.30000754620E+02  0.47000000000E+01 0. -1.
        -11    1    6    6    0    0  0.69461496427E+02 -0.16567389511E+02  0.18831289939E+03  0.20139792938E+03  0.00000000000E+00 0.  1.
         12    1    6    6    0    0  0.31729960279E+02  0.48611740759E+02  0.11501223368E+03  0.12883208302E+03  0.00000000000E+00 0. -1.
         -5    1    3    3    0  503  0.21299152418E+02 -0.91717600020E+01 -0.37594244424E+02  0.44420629094E+02  0.47000000000E+01 0.  1.
         13    1    4    4    0    0 -0.70838977555E+02  0.23019901580E+01 -0.27024265091E+02  0.75853614307E+02  0.00000000000E+00 0. -1.
        -14    1    4    4    0    0 -0.69714659656E+02 -0.40640035920E+01  0.54379250103E+02  0.88508489637E+02  0.00000000000E+00 0.  1.
</event>
<event>
12    1  0.1593360E-001  0.2726629E+03  0.7818608E-02  0.1099845E+00
         21   -1    0    0  501  502  0.00000000000E+00  0.00000000000E+00  0.37235047625E+03  0.37235047625E+03  0.00000000000E+00 0. -1.
         21   -1    0    0  502  503 -0.00000000000E+00 -0.00000000000E+00 -0.53666652610E+03  0.53666652610E+03  0.00000000000E+00 0. -1.
         -6    2    1    2    0  503 -0.11116863034E+03  0.17918694365E+03 -0.44258017497E+03  0.51982907633E+03  0.17285436697E+03 0.  0.
        -24    2    3    3    0    0  0.12268623718E+02  0.62730869466E+02 -0.18949222238E+03  0.21507610318E+03  0.79150152894E+02 0.  0.
          6    2    1    2  501    0  0.11116863034E+03 -0.17918694365E+03  0.27826412512E+03  0.38918792601E+03  0.17195898720E+03 0.  0.
         24    2    5    5    0    0  0.13078723212E+03 -0.19317598235E+03  0.24371208366E+03  0.34680259473E+03  0.80338034222E+02 0.  0.
          5    1    5    5  501    0 -0.19618601783E+02  0.13989038698E+02  0.34552041456E+02  0.42385331288E+02  0.47000000000E+01 0. -1.
        -11    1    6    6    0    0  0.10769647869E+02 -0.23589139703E+01 -0.41350170791E+01  0.11774895183E+02  0.00000000000E+00 0.  1.
         12    1    6    6    0    0  0.12001758425E+03 -0.19081706838E+03  0.24784710074E+03  0.33502769954E+03  0.00000000000E+00 0. -1.
         -5    1    3    3    0  503 -0.12343725406E+03  0.11645607418E+03 -0.25308795258E+03  0.30475297315E+03  0.47000000000E+01 0.  1.
         11    1    4    4    0    0  0.42809167851E+01  0.89609155608E+01 -0.14357631489E+03  0.14391936094E+03  0.00000000000E+00 0. -1.
        -12    1    4    4    0    0  0.79877069326E+01  0.53769953905E+02 -0.45915907492E+02  0.71156742237E+02  0.00000000000E+00 0.  1.
</event>
<event>
12    1  0.1593360E-001  0.1846117E+03  0.7818608E-02  0.1163506E+00
         21   -1    0    0  501  502  0.00000000000E+00  0.00000000000E+00  0.47207579231E+03  0.47207579231E+03  0.00000000000E+00 0.  1.
         21   -1    0    0  502  503 -0.00000000000E+00 -0.00000000000E+00 -0.94215992323E+02  0.94215992323E+02  0.00000000000E+00 0.  1.
         -6    2    1    2    0  503 -0.35793171903E+02 -0.55096770805E+02  0.51406816189E+02  0.19125443623E+03  0.17210111364E+03 0.  0.
        -24    2    3    3    0    0 -0.30725258063E+02 -0.14024295371E+02 -0.37416637829E+02  0.93150776903E+02  0.78334794999E+02 0.  0.
          6    2    1    2  501    0  0.35793171903E+02  0.55096770805E+02  0.32645298380E+03  0.37503734841E+03  0.17252436570E+03 0.  0.
         24    2    5    5    0    0  0.38599288842E+02  0.26187492666E+02  0.33246112767E+03  0.34500722274E+03  0.79522905255E+02 0.  0.
          5    1    5    5  501    0 -0.28061169388E+01  0.28909278139E+02 -0.60081438713E+01  0.30030125667E+02  0.47000000000E+01 0. -1.
        -13    1    6    6    0    0  0.40945073974E+02  0.45416115328E+02  0.15712437897E+03  0.16860365678E+03  0.00000000000E+00 0.  1.
         14    1    6    6    0    0 -0.23457851320E+01 -0.19228622662E+02  0.17533674871E+03  0.17640356596E+03  0.00000000000E+00 0. -1.
         -5    1    3    3    0  503 -0.50679138408E+01 -0.41072475434E+02  0.88823454019E+02  0.98103659324E+02  0.47000000000E+01 0.  1.
         11    1    4    4    0    0  0.34060217059E+01 -0.11308227012E+01  0.22616818013E+02  0.22899786045E+02  0.00000000000E+00 0. -1.
        -12    1    4    4    0    0 -0.34131279768E+02 -0.12893472670E+02 -0.60033455843E+02  0.70250990858E+02  0.00000000000E+00 0.  1.
</event>
<event>
12    1  0.1593360E-001  0.2016041E+03  0.7818608E-02  0.1148462E+00
         21   -1    0    0  501  502  0.00000000000E+00  0.00000000000E+00  0.13666300090E+03  0.13666300090E+03  0.00000000000E+00 0.  1.
         21   -1    0    0  502  503 -0.00000000000E+00 -0.00000000000E+00 -0.67262116814E+03  0.67262116814E+03  0.00000000000E+00 0. -1.
         -6    2    1    2    0  503 -0.81568018877E+02 -0.65155792594E+02  0.34342821699E+02  0.20450832261E+03  0.17246914391E+03 0.  0.
        -24    2    3    3    0    0 -0.72671021239E+02  0.17665546196E+02 -0.16908631088E+02  0.10659339965E+03  0.74047972237E+02 0.  0.
          6    2    1    2  501    0  0.81568018877E+02  0.65155792594E+02 -0.57030098894E+03  0.60477584643E+03  0.17208133957E+03 0.  0.
         24    2    5    5    0    0  0.12254547989E+03  0.63291623666E+02 -0.47292102486E+03  0.49900451364E+03  0.79548630454E+02 0.  0.
          5    1    5    5  501    0 -0.40977461014E+02  0.18641689285E+01 -0.97379964078E+02  0.10577133279E+03  0.47000000000E+01 0. -1.
        -13    1    6    6    0    0 -0.50572596750E+01 -0.96041091477E+01 -0.53314870077E+02  0.54408548587E+02  0.00000000000E+00 0.  1.
         14    1    6    6    0    0  0.12760273957E+03  0.72895732814E+02 -0.41960615478E+03  0.44459596505E+03  0.00000000000E+00 0. -1.
         -5    1    3    3    0  503 -0.88969976375E+01 -0.82821338790E+02  0.51251452787E+02  0.97914922963E+02  0.47000000000E+01 0.  1.
         13    1    4    4    0    0 -0.64384698683E+02 -0.16116835071E+02 -0.24926261745E+02  0.70897533961E+02  0.00000000000E+00 0. -1.
        -14    1    4    4    0    0 -0.82863225565E+01  0.33782381267E+02  0.80176306572E+01  0.35695865684E+02  0.00000000000E+00 0.  1.
</event>
<event>
12    1  0.1593360E-001  0.2159587E+03  0.7818608E-02  0.1137467E+00
         21   -1    0    0  501  502  0.00000000000E+00  0.00000000000E+00  0.12087373080E+04  0.12087373080E+04  0.00000000000E+00 0. -1.
         21   -1    0    0  502  503 -0.00000000000E+00 -0.00000000000E+00 -0.75860106198E+02  0.75860106198E+02  0.00000000000E+00 0. -1.
         -6    2    1    2    0  503  0.12022146883E+03 -0.38652603977E+02  0.11506453359E+03  0.24469981446E+03  0.17518826144E+03 0.  0.
        -24    2    3    3    0    0 -0.63925274259E+00 -0.39156207959E+02  0.25443145793E+02  0.94161942856E+02  0.81764910254E+02 0.  0.
          6    2    1    2  501    0 -0.12022146883E+03  0.38652603977E+02  0.10178126682E+04  0.10398975998E+04  0.17174738720E+03 0.  0.
         24    2    5    5    0    0 -0.81245898284E+02  0.63145982557E+02  0.41142620662E+03  0.43174823363E+03  0.80911696621E+02 0.  0.
          5    1    5    5  501    0 -0.38975570550E+02 -0.24493378580E+02  0.60638646161E+03  0.60814936612E+03  0.47000000000E+01 0. -1.
        -13    1    6    6    0    0 -0.13991909907E+02  0.62065291098E+02  0.19670498195E+03  0.20673829791E+03  0.00000000000E+00 0.  1.
         14    1    6    6    0    0 -0.67253988377E+02  0.10806914586E+01  0.21472122467E+03  0.22500993572E+03  0.00000000000E+00 0. -1.
         -5    1    3    3    0  503  0.12086072158E+03  0.50360398170E+00  0.89621387801E+02  0.15053787161E+03  0.47000000000E+01 0.  1.
         13    1    4    4    0    0  0.37551009479E+02 -0.36325516137E+02  0.17054842645E+02  0.54958976457E+02  0.00000000000E+00 0. -1.
        -14    1    4    4    0    0 -0.38190262222E+02 -0.28306918217E+01  0.83883031478E+01  0.39202966399E+02  0.00000000000E+00 0.  1.
</event>
<event>
12    1  0.1593360E-001  0.3118329E+03  0.7818608E-02  0.1079521E+00
         21   -1    0    0  501  502  0.00000000000E+00  0.00000000000E+00  0.42509060274E+03  0.42509060274E+03  0.00000000000E+00 0.  1.
         21   -1    0    0  502  503 -0.00000000000E+00 -0.00000000000E+00 -0.24023372876E+03  0.24023372876E+03  0.00000000000E+00 0.  1.
         -6    2    1    2    0  503 -0.91151601394E+00  0.26006119190E+03  0.18665443287E+02  0.31196990530E+03  0.17130139709E+03 0.  0.
        -24    2    3    3    0    0 -0.28754273676E+02  0.42301527099E+02  0.20397783244E+02  0.92380329566E+02  0.74174310108E+02 0.  0.
          6    2    1    2  501    0  0.91151601394E+00 -0.26006119190E+03  0.16619143069E+03  0.35335442620E+03  0.17206715109E+03 0.  0.
         24    2    5    5    0    0  0.54672780883E+02 -0.17951387007E+03  0.14054387623E+03  0.25306468742E+03  0.95261809535E+02 0.  0.
          5    1    5    5  501    0 -0.53761264869E+02 -0.80547321826E+02  0.25647554465E+02  0.10028973878E+03  0.47000000000E+01 0. -1.
        -11    1    6    6    0    0 -0.86010691692E+01 -0.12940032031E+03  0.83970032207E+02  0.15449720902E+03  0.00000000000E+00 0.  1.
         12    1    6    6    0    0  0.63273850052E+02 -0.50113549764E+02  0.56573844020E+02  0.98567478397E+02  0.00000000000E+00 0. -1.
         -5    1    3    3    0  503  0.27842757662E+02  0.21775966480E+03 -0.17323399571E+01  0.21958957573E+03  0.47000000000E+01 0.  1.
         13    1    4    4    0    0  0.17116912417E+02  0.40746788388E+02  0.10569200796E+02  0.45442243123E+02  0.00000000000E+00 0. -1.
        -14    1    4    4    0    0 -0.45871186093E+02  0.15547387114E+01  0.98285824481E+01  0.46938086443E+02  0.00000000000E+00 0.  1.
</event>
<event>
12    1  0.1593360E-001  0.2049470E+03  0.7818608E-02  0.1145968E+00
         21   -1    0    0  503  502  0.00000000000E+00  0.00000000000E+00  0.67371849842E+02  0.67371849842E+02  0.00000000000E+00 0.  1.
         21   -1    0    0  501  503 -0.00000000000E+00 -0.00000000000E+00 -0.79723234624E+03  0.79723234624E+03  0.00000000000E+00 0.  1.
          6    2    1    2  501    0  0.30248855837E+02  0.10623537023E+03 -0.56849774321E+03  0.60375705685E+03  0.17068084979E+03 0.  0.
         24    2    3    3    0    0 -0.32131662306E+02  0.93868560455E+02 -0.26807320428E+03  0.29663939109E+03  0.79296501360E+02 0.  0.
         -6    2    1    2    0  502 -0.30248855837E+02 -0.10623537023E+03 -0.16136275318E+03  0.26084713923E+03  0.17263355631E+03 0.  0.
        -24    2    5    5    0    0  0.40585793784E+02 -0.46153600129E+02 -0.12418146797E+03  0.16068774299E+03  0.81376607803E+02 0.  0.
          5    1    3    3  501    0  0.62380518143E+02  0.12366809777E+02 -0.30042453893E+03  0.30711766576E+03  0.47000000000E+01 0. -1.
        -11    1    4    4    0    0  0.92099868127E+01  0.12589826914E+02 -0.13149542379E+03  0.13241742361E+03  0.00000000000E+00 0.  1.
         12    1    4    4    0    0 -0.41341649119E+02  0.81278733541E+02 -0.13657778049E+03  0.16422196748E+03  0.00000000000E+00 0. -1.
         -5    1    5    5    0  502 -0.70834649621E+02 -0.60081770103E+02 -0.37181285209E+02  0.10015939624E+03  0.47000000000E+01 0.  1.
         13    1    6    6    0    0  0.36889145920E+02 -0.66825009443E+02 -0.11438723149E+03  0.13751665245E+03  0.00000000000E+00 0. -1.
        -14    1    6    6    0    0  0.36966478633E+01  0.20671409314E+02 -0.97942364826E+01  0.23171090538E+02  0.00000000000E+00 0.  1.
</event>
<event>
12    1  0.1593360E-001  0.2262967E+03  0.7818608E-02  0.1129421E+00
         21   -1    0    0  501  502  0.00000000000E+00  0.00000000000E+00  0.51192442327E+03  0.51192442327E+03  0.00000000000E+00 0. -1.
         21   -1    0    0  502  503 -0.00000000000E+00 -0.00000000000E+00 -0.18161333004E+03  0.18161333004E+03  0.00000000000E+00 0. -1.
         -6    2    1    2    0  503 -0.14666530788E+03  0.16599482098E+02 -0.67603397143E+02  0.23617875384E+03  0.17153404652E+03 0.  0.
        -24    2    3    3    0    0 -0.41030258371E+02 -0.38674365365E+02 -0.63527927979E+02  0.11679424334E+03  0.80161767724E+02 0.  0.
          6    2    1    2  501    0  0.14666530788E+03 -0.16599482098E+02  0.39791449037E+03  0.45735899947E+03  0.17045544112E+03 0.  0.
         24    2    5    5    0    0  0.21680551809E+02  0.30162035756E+01  0.88788447013E+02  0.12331264781E+03  0.82725310371E+02 0.  0.
          5    1    5    5  501    0  0.12498475608E+03 -0.19615685674E+02  0.30912604336E+03  0.33404635166E+03  0.47000000000E+01 0. -1.
        -13    1    6    6    0    0  0.24850316281E+02  0.40488929436E+02  0.43168095083E+02  0.64190155469E+02  0.00000000000E+00 0.  1.
         14    1    6    6    0    0 -0.31697644725E+01 -0.37472725860E+02  0.45620351931E+02  0.59122492340E+02  0.00000000000E+00 0. -1.
         -5    1    3    3    0  503 -0.10563504951E+03  0.55273847463E+02 -0.40754691638E+01  0.11938451050E+03  0.47000000000E+01 0.  1.
         11    1    4    4    0    0 -0.44391167542E+02 -0.81951474333E+01 -0.72000575854E+02  0.84981286884E+02  0.00000000000E+00 0. -1.
        -12    1    4    4    0    0  0.33609091702E+01 -0.30479217932E+02  0.84726478751E+01  0.31812956452E+02  0.00000000000E+00 0.  1.
</event>
<event>
12    1  0.1593360E-001  0.2417828E+03  0.7818608E-02  0.1118755E+00
         21   -1    0    0  503  502  0.00000000000E+00  0.00000000000E+00  0.76395241708E+02  0.76395241708E+02  0.00000000000E+00 0. -1.
         21   -1    0    0  501  503 -0.00000000000E+00 -0.00000000000E+00 -0.86898009320E+03  0.86898009320E+03  0.00000000000E+00 0. -1.
          6    2    1    2  501    0 -0.16856780363E+03 -0.14422699267E+02 -0.23142666781E+03  0.33468971917E+03  0.17273038780E+03 0.  0.
         24    2    3    3    0    0 -0.46690432593E+02  0.45339651084E+02 -0.12659301817E+03  0.16311519837E+03  0.79656106074E+02 0.  0.
         -6    2    1    2    0  502  0.16856780363E+03  0.14422699267E+02 -0.56115818368E+03  0.61068561573E+03  0.17150887871E+03 0.  0.
        -24    2    5    5    0    0  0.15641565485E+02  0.18243324097E+02 -0.26109600085E+03  0.27384672984E+03  0.79015393037E+02 0.  0.
          5    1    3    3  501    0 -0.12187737104E+03 -0.59762350351E+02 -0.10483364964E+03  0.17157452080E+03  0.47000000000E+01 0. -1.
        -13    1    4    4    0    0  0.14335169823E+02 -0.95957877646E+01 -0.83661319976E+01  0.19172073474E+02  0.00000000000E+00 0.  1.
         14    1    4    4    0    0 -0.61025602417E+02  0.54935438848E+02 -0.11822688617E+03  0.14394312490E+03  0.00000000000E+00 0. -1.
         -5    1    5    5    0  502  0.15292623815E+03 -0.38206248299E+01 -0.30006218283E+03  0.33683888589E+03  0.47000000000E+01 0.  1.
         11    1    6    6    0    0  0.46553202292E+02  0.18579620036E+02 -0.18603404151E+03  0.19266828365E+03  0.00000000000E+00 0. -1.
        -12    1    6    6    0    0 -0.30911636807E+02 -0.33629593909E+00 -0.75061959341E+02  0.81178446186E+02  0.00000000000E+00 0.  1.
</event>
<event>
12    1  0.1593360E-001  0.1761772E+03  0.7818608E-02  0.1172022E+00
         21   -1    0    0  503  502  0.00000000000E+00  0.00000000000E+00  0.16077553493E+03  0.16077553493E+03  0.00000000000E+00 0. -1.
         21   -1    0    0  501  503 -0.00000000000E+00 -0.00000000000E+00 -0.57203241732E+03  0.57203241732E+03  0.00000000000E+00 0. -1.
          6    2    1    2  501    0 -0.30368393220E+02 -0.55432747462E+01 -0.50502721780E+03  0.53487465219E+03  0.17345153685E+03 0.  0.
         24    2    3    3    0    0 -0.72523233445E+02 -0.29681423196E+02 -0.23218484373E+03  0.25770190487E+03  0.79748754515E+02 0.  0.
         -6    2    1    2    0  502  0.30368393220E+02  0.55432747462E+01  0.93770335405E+02  0.19793330006E+03  0.17155683684E+03 0.  0.
        -24    2    5    5    0    0  0.43394925804E+02  0.64181583276E+02  0.41857401455E+02  0.11840227158E+03  0.79149609238E+02 0.  0.
          5    1    3    3  501    0  0.42154840225E+02  0.24138148449E+02 -0.27284237407E+03  0.27717274732E+03  0.47000000000E+01 0. -1.
        -13    1    4    4    0    0  0.14420507899E+02  0.14459914607E+01 -0.11590210911E+02  0.18557341629E+02  0.00000000000E+00 0.  1.
         14    1    4    4    0    0 -0.86943741345E+02 -0.31127414656E+02 -0.22059463282E+03  0.23914456324E+03  0.00000000000E+00 0. -1.
         -5    1    5    5    0  502 -0.13026532584E+02 -0.58638308530E+02  0.51912933950E+02  0.79531028471E+02  0.47000000000E+01 0.  1.
         11    1    6    6    0    0  0.38758304069E+02  0.10128862790E+02  0.49430238608E+02  0.63625061765E+02  0.00000000000E+00 0. -1.
        -12    1    6    6    0    0  0.46366217348E+01  0.54052720486E+02 -0.75728371532E+01  0.54777209819E+02  0.00000000000E+00 0.  1.
</event>
<event>
12    1  0.1593360E-001  0.1885472E+03  0.7818608E-02  0.1160227E+00
         21   -1    0    0  501  502  0.00000000000E+00  0.00000000000E+00  0.15545841950E+04  0.15545841950E+04  0.00000000000E+00 0.  1.
         21   -1    0    0  502  503 -0.00000000000E+00 -0.00000000000E+00 -0.38134003818E+02  0.38134003818E+02  0.00000000000E+00 0.  1.
         -6    2    1    2    0  503 -0.43397429266E+02 -0.66212587407E+02  0.25281531135E+03  0.31538174617E+03  0.17112165430E+03 0.  0.
        -24    2    3    3    0    0 -0.97098166437E+01 -0.10248312154E+03  0.19179916978E+03  0.23667046095E+03  0.92891952376E+02 0.  0.
          6    2    1    2  501    0  0.43397429266E+02  0.66212587407E+02  0.12636348799E+04  0.12773364527E+04  0.16896112016E+03 0.  0.
         24    2    5    5    0    0  0.92514533032E+02  0.61068876305E+02  0.89353059557E+03  0.90392218019E+03  0.79937701590E+02 0.  0.
          5    1    5    5  501    0 -0.49117103766E+02  0.51437111029E+01  0.37010428430E+03  0.37341427250E+03  0.47000000000E+01 0. -1.
        -11    1    6    6    0    0  0.86236441284E+02  0.77614430053E+02  0.82613110532E+03  0.83423817147E+03  0.00000000000E+00 0.  1.
         12    1    6    6    0    0  0.62780917482E+01 -0.16545553749E+02  0.67399490251E+02  0.69684008717E+02  0.00000000000E+00 0. -1.
         -5    1    3    3    0  503 -0.33687612622E+02  0.36270534132E+02  0.61016141563E+02  0.78711285224E+02  0.47000000000E+01 0.  1.
         13    1    4    4    0    0  0.26917641516E+02 -0.43619364424E+02  0.27111441270E+02  0.57984813747E+02  0.00000000000E+00 0. -1.
        -14    1    4    4    0    0 -0.36627458159E+02 -0.58863757115E+02  0.16468772851E+03  0.17868564720E+03  0.00000000000E+00 0.  1.
</event>
<event>
12    1  0.1593360E-001  0.1850031E+03  0.7818608E-02  0.1164135E+00
         21   -1    0    0  501  502  0.00000000000E+00  0.00000000000E+00  0.72438054254E+03  0.72438054254E+03  0.00000000000E+00 0. -1.
         21   -1    0    0  502  503 -0.00000000000E+00 -0.00000000000E+00 -0.58278724139E+02  0.58278724139E+02  0.00000000000E+00 0. -1.
         -6    2    1    2    0  503 -0.16922312553E+02 -0.54080965234E+02  0.15735337716E+03  0.24287081010E+03  0.17611084473E+03 0.  0.
        -24    2    3    3    0    0  0.44418277074E+02 -0.65509902478E+02  0.13497277000E+03  0.17641578682E+03  0.81488346017E+02 0.  0.
          6    2    1    2  501    0  0.16922312553E+02  0.54080965234E+02  0.50874844124E+03  0.53978845658E+03  0.17127605183E+03 0.  0.
         24    2    5    5    0    0 -0.25415981058E+02 -0.17700232273E+02  0.16664458583E+03  0.18764898236E+03  0.80513677578E+02 0.  0.
          5    1    5    5  501    0  0.42338293611E+02  0.71781197508E+02  0.34210385541E+03  0.35213947422E+03  0.47000000000E+01 0. -1.
        -11    1    6    6    0    0  0.53392308682E+01 -0.44882662038E+02  0.89369639481E+02  0.10014935446E+03  0.00000000000E+00 0.  1.
         12    1    6    6    0    0 -0.30755211926E+02  0.27182429765E+02  0.77274946352E+02  0.87499627898E+02  0.00000000000E+00 0. -1.
         -5    1    3    3    0  503 -0.61340589626E+02  0.11428937244E+02  0.22380607164E+02  0.66455023281E+02  0.47000000000E+01 0.  1.
         11    1    4    4    0    0  0.51752575328E+02 -0.74963393659E+01  0.44362269296E+02  0.68575032586E+02  0.00000000000E+00 0. -1.
        -12    1    4    4    0    0 -0.73342982544E+01 -0.58013563112E+02  0.90610500704E+02  0.10784075423E+03  0.00000000000E+00 0.  1.
</event>
<event>
12    1  0.1593360E-001  0.2069201E+03  0.7818608E-02  0.1144110E+00
         21   -1    0    0  503  502  0.00000000000E+00  0.00000000000E+00  0.30215748836E+03  0.30215748836E+03  0.00000000000E+00 0. -1.
         21   -1    0    0  501  503 -0.00000000000E+00 -0.00000000000E+00 -0.17524516119E+03  0.17524516119E+03  0.00000000000E+00 0. -1.
          6    2    1    2  501    0  0.40564485260E+02  0.10815128947E+03  0.16837234612E+03  0.26676803847E+03  0.17167923734E+03 0.  0.
         24    2    3    3    0    0 -0.86091380194E+01  0.11549556832E+03  0.70197198791E+02  0.15662071344E+03  0.78670563746E+02 0.  0.
         -6    2    1    2    0  502 -0.40564485260E+02 -0.10815128947E+03 -0.41460018961E+02  0.21063461108E+03  0.17118944866E+03 0.  0.
        -24    2    5    5    0    0 -0.20076129521E+02  0.14394650216E+01 -0.54201832047E+02  0.98320987720E+02  0.79523927172E+02 0.  0.
          5    1    3    3  501    0  0.49173623280E+02 -0.73442788524E+01  0.98175147330E+02  0.11014732503E+03  0.47000000000E+01 0. -1.
        -11    1    4    4    0    0  0.73994878202E+01  0.11294523691E+03  0.79136749000E+02  0.13810866737E+03  0.00000000000E+00 0.  1.
         12    1    4    4    0    0 -0.16008625840E+02  0.25503314108E+01 -0.89395502091E+01  0.18512046065E+02  0.00000000000E+00 0. -1.
         -5    1    5    5    0  502 -0.20488355740E+02 -0.10959075449E+03  0.12741813086E+02  0.11231362336E+03  0.47000000000E+01 0.  1.
         11    1    6    6    0    0 -0.17942898182E+02 -0.27190258759E+02  0.45854475578E+01  0.32898086508E+02  0.00000000000E+00 0. -1.
        -12    1    6    6    0    0 -0.21332313387E+01  0.28629723781E+02 -0.58787279604E+02  0.65422901212E+02  0.00000000000E+00 0.  1.
</event>
<event>
12    1  0.1593360E-001  0.1800741E+03  0.7818608E-02  0.1167888E+00
         21   -1    0    0  503  502  0.00000000000E+00  0.00000000000E+00  0.20997088304E+03  0.20997088304E+03  0.00000000000E+00 0. -1.
         21   -1    0    0  501  503 -0.00000000000E+00 -0.00000000000E+00 -0.37078709938E+03  0.37078709938E+03  0.00000000000E+00 0. -1.
          6    2    1    2  501    0  0.46060450433E+02 -0.25454718122E+02 -0.30244340862E+03  0.35166202749E+03  0.17153617225E+03 0.  0.
         24    2    3    3    0    0  0.88043045392E+02  0.10682652341E+02 -0.17661493102E+03  0.21409988299E+03  0.82342146771E+02 0.  0.
         -6    2    1    2    0  502 -0.46060450433E+02  0.25454718122E+02  0.14162719228E+03  0.22909595493E+03  0.17221262208E+03 0.  0.
        -24    2    5    5    0    0 -0.22075927869E+02  0.64822792733E+00  0.64931151247E+00  0.83880693530E+02  0.80918368440E+02 0.  0.
          5    1    3    3  501    0 -0.41982594959E+02 -0.36137370462E+02 -0.12582847760E+03  0.13756214450E+03  0.47000000000E+01 0. -1.
        -11    1    4    4    0    0  0.30675568915E+02  0.40086715839E+02 -0.45336524367E+02  0.67847886900E+02  0.00000000000E+00 0.  1.
         12    1    4    4    0    0  0.57367476477E+02 -0.29404063499E+02 -0.13127840665E+03  0.14625199609E+03  0.00000000000E+00 0. -1.
         -5    1    5    5    0  502 -0.23984522564E+02  0.24806490194E+02  0.14097788077E+03  0.14521526140E+03  0.47000000000E+01 0.  1.
         13    1    6    6    0    0 -0.51639115875E+02 -0.30763526969E+01  0.99234928964E+01  0.52673882955E+02  0.00000000000E+00 0. -1.
        -14    1    6    6    0    0  0.29563188007E+02  0.37245806242E+01 -0.92741813840E+01  0.31206810575E+02  0.00000000000E+00 0.  1.
</event>
<event>
12    1  0.1593360E-001  0.1779767E+03  0.7818608E-02  0.1171668E+00
         21   -1    0    0  503  502  0.00000000000E+00  0.00000000000E+00  0.10308096700E+04  0.10308096700E+04  0.00000000000E+00 0. -1.
         21   -1    0    0  501  503 -0.00000000000E+00 -0.00000000000E+00 -0.19357067628E+03  0.19357067628E+03  0.00000000000E+00 0. -1.
          6    2    1    2  501    0  0.26666133809E+01 -0.50676876946E+02 -0.14644960023E+03  0.22472092971E+03  0.16271679126E+03 0.  0.
         24    2    3    3    0    0 -0.15442479190E+02 -0.79411830457E+02 -0.15392015933E+03  0.18962768193E+03  0.75647427753E+02 0.  0.
         -6    2    1    2    0  502 -0.26666133809E+01  0.50676876946E+02  0.98368859397E+03  0.99965941660E+03  0.17058851835E+03 0.  0.
        -24    2    5    5    0    0  0.44151151743E+02  0.79585131284E+02  0.74381088886E+03  0.75350703755E+03  0.78962648939E+02 0.  0.
          5    1    3    3  501    0  0.18109092571E+02  0.28734953511E+02  0.74705590942E+01  0.35093247786E+02  0.47000000000E+01 0. -1.
        -13    1    4    4    0    0  0.13657000311E+02 -0.78262841491E+02 -0.94523166249E+02  0.12347556428E+03  0.00000000000E+00 0.  1.
         14    1    4    4    0    0 -0.29099479501E+02 -0.11489889658E+01 -0.59396993077E+02  0.66152117650E+02  0.00000000000E+00 0. -1.
         -5    1    5    5    0  502 -0.46817765124E+02 -0.28908254338E+02  0.23987770511E+03  0.24615237905E+03  0.47000000000E+01 0.  1.
         13    1    6    6    0    0 -0.76784269195E+01  0.32888049961E+02  0.46036418888E+03  0.46160130900E+03  0.00000000000E+00 0. -1.
        -14    1    6    6    0    0  0.51829578663E+02  0.46697081323E+02  0.28344669998E+03  0.29190572855E+03  0.00000000000E+00 0.  1.
</event>
<event>
12    1  0.1593360E-001  0.1741520E+03  0.7818608E-02  0.1173660E+00
         21   -1    0    0  501  502  0.00000000000E+00  0.00000000000E+00  0.35141620593E+03  0.35141620593E+03  0.00000000000E+00 0. -1.
         21   -1    0    0  502  503 -0.00000000000E+00 -0.00000000000E+00 -0.15521854389E+03  0.15521854389E+03  0.00000000000E+00 0. -1.
         -6    2    1    2    0  503  0.20902494421E+00 -0.25595684721E+02 -0.70913612128E+02  0.18776588317E+03  0.17196541434E+03 0.  0.
        -24    2    3    3    0    0  0.52818630086E+02  0.17620679634E+02 -0.14800613885E+02  0.99413275550E+02  0.81016326436E+02 0.  0.
          6    2    1    2  501    0 -0.20902494421E+00  0.25595684721E+02  0.26711127416E+03  0.31886886665E+03  0.17226067040E+03 0.  0.
         24    2    5    5    0    0 -0.12765290875E+02 -0.34461372140E+02  0.69900560917E+02  0.11228071280E+03  0.79814354782E+02 0.  0.
          5    1    5    5  501    0  0.12556265931E+02  0.60057056860E+02  0.19721071325E+03  0.20658815385E+03  0.47000000000E+01 0. -1.
        -13    1    6    6    0    0 -0.33354958658E+02  0.56360797020E+01  0.55435734278E+02  0.64941814699E+02  0.00000000000E+00 0.  1.
         14    1    6    6    0    0  0.20589667783E+02 -0.40097451842E+02  0.14464826639E+02  0.47338898100E+02  0.00000000000E+00 0. -1.
         -5    1    3    3    0  503 -0.52609605142E+02 -0.43216364355E+02 -0.56112998242E+02  0.88352607619E+02  0.47000000000E+01 0.  1.
         11    1    4    4    0    0  0.26527612920E+02 -0.31260585664E+02  0.30440375804E+01  0.41112098317E+02  0.00000000000E+00 0. -1.
        -12    1    4    4    0    0  0.26291017167E+02  0.48881265298E+02 -0.17844651466E+02  0.58301177232E+02  0.00000000000E+00 0.  1.
</event>
<event>
12    1  0.1593360E-001  0.1887623E+03  0.7818608E-02  0.1159733E+00
         21   -1    0    0  503  502  0.00000000000E+00  0.00000000000E+00  0.20757621567E+03  0.20757621567E+03  0.00000000000E+00 0. -1.
         21   -1    0    0  501  503 -0.00000000000E+00 -0.00000000000E+00 -0.20653282366E+03  0.20653282366E+03  0.00000000000E+00 0. -1.
          6    2    1    2  501    0 -0.22038826121E+02  0.70308674051E+02  0.86336697624E+02  0.20697107681E+03  0.17307218661E+03 0.  0.
         24    2    3    3    0    0 -0.65464294749E+01 -0.14445455785E+02  0.86207893299E+02  0.12068444130E+03  0.82954243851E+02 0.  0.
         -6    2    1    2    0  502  0.22038826121E+02 -0.70308674051E+02 -0.85293305611E+02  0.20713796251E+03  0.17378770966E+03 0.  0.
        -24    2    5    5    0    0 -0.37171989492E+01 -0.61465600281E+02  0.93521556617E+00  0.11658951888E+03  0.98996988325E+02 0.  0.
          5    1    3    3  501    0 -0.15492396646E+02  0.84754129836E+02  0.12880432532E+00  0.86286635516E+02  0.47000000000E+01 0. -1.
        -11    1    4    4    0    0  0.37275282112E+02 -0.12402723310E+01  0.49709352912E+02  0.62145029559E+02  0.00000000000E+00 0.  1.
         12    1    4    4    0    0 -0.43821711587E+02 -0.13205183454E+02  0.36498540387E+02  0.58539411740E+02  0.00000000000E+00 0. -1.
         -5    1    5    5    0  502  0.25756025070E+02 -0.88430737693E+01 -0.86228521177E+02  0.90548443639E+02  0.47000000000E+01 0.  1.
         11    1    6    6    0    0  0.34992381118E+02 -0.64171894667E+02  0.16242572866E+02  0.74875362936E+02  0.00000000000E+00 0. -1.
        -12    1    6    6    0    0 -0.38709580067E+02  0.27062943855E+01 -0.15307357300E+02  0.41714155940E+02  0.00000000000E+00 0.  1.
</event>
<event>
12    1  0.1593360E-001  0.1844656E+03  0.7818608E-02  0.1163772E+00
         21   -1    0    0  501  502  0.00000000000E+00  0.00000000000E+00  0.29934491048E+03  0.29934491048E+03  0.00000000000E+00 0. -1.
         21   -1    0    0  502  503 -0.00000000000E+00 -0.00000000000E+00 -0.17502460197E+03  0.17502460197E+03  0.00000000000E+00 0. -1.
         -6    2    1    2    0  503 -0.64111108908E+02  0.99277888802E+01 -0.79032999314E+02  0.19981512438E+03  0.17167141192E+03 0.  0.
        -24    2    3    3    0    0  0.97579294360E+01  0.57662226477E+02 -0.48438342011E+02  0.10657707198E+03  0.74781346249E+02 0.  0.
          6    2    1    2  501    0  0.64111108908E+02 -0.99277888802E+01  0.20335330782E+03  0.27455438807E+03  0.17268106129E+03 0.  0.
         24    2    5    5    0    0 -0.25248441263E+02  0.78844518577E+01  0.60244303728E+02  0.10483496614E+03  0.81617067009E+02 0.  0.
          5    1    5    5  501    0  0.89359550171E+02 -0.17812240738E+02  0.14310900409E+03  0.16971942193E+03  0.47000000000E+01 0. -1.
        -13    1    6    6    0    0 -0.26473829129E+02 -0.13898630953E+02 -0.98047078731E+01  0.31466932923E+02  0.00000000000E+00 0.  1.
         14    1    6    6    0    0  0.12253878665E+01  0.21783082810E+02  0.70049011602E+02  0.73368033220E+02  0.00000000000E+00 0. -1.
         -5    1    3    3    0  503 -0.73869038344E+02 -0.47734437597E+02 -0.30594657304E+02  0.93238052393E+02  0.47000000000E+01 0.  1.
         13    1    4    4    0    0  0.34627042754E+01  0.61004216594E+02 -0.64596454285E+02  0.88916852561E+02  0.00000000000E+00 0. -1.
        -14    1    4    4    0    0  0.62952251606E+01 -0.33419901175E+01  0.16158112275E+02  0.17660219423E+02  0.00000000000E+00 0.  1.
</event>
<event>
12    1  0.1593360E-001  0.1789859E+03  0.7818608E-02  0.1169292E+00
         21   -1    0    0  501  502  0.00000000000E+00  0.00000000000E+00  0.90285650020E+03  0.90285650020E+03  0.00000000000E+00 0.  1.
         21   -1    0    0  502  503 -0.00000000000E+00 -0.00000000000E+00 -0.55914946678E+02  0.55914946678E+02  0.00000000000E+00 0. -1.
         -6    2    1    2    0  503 -0.42495789320E+02  0.15303939110E+02  0.13235606300E+03  0.22260745544E+03  0.17319309784E+03 0.  0.
        -24    2    3    3    0    0  0.68313407076E+01 -0.47157175907E+02  0.10018759447E+03  0.13663387220E+03  0.79754589165E+02 0.  0.
          6    2    1    2  501    0  0.42495789320E+02 -0.15303939110E+02  0.71458549052E+03  0.73616399144E+03  0.17106985816E+03 0.  0.
         24    2    5    5    0    0  0.70455114352E+02  0.61904423729E+01  0.67288028040E+03  0.68134477180E+03  0.80377743091E+02 0.  0.
          5    1    5    5  501    0 -0.27959325032E+02 -0.21494381483E+02  0.41705210116E+02  0.54819219644E+02  0.47000000000E+01 0. -1.
        -11    1    6    6    0    0  0.41002752485E+02 -0.32968322852E+02  0.45449529237E+03  0.45753044359E+03  0.00000000000E+00 0.  1.
         12    1    6    6    0    0  0.29452361867E+02  0.39158765225E+02  0.21838498803E+03  0.22381432821E+03  0.00000000000E+00 0. -1.
         -5    1    3    3    0  503 -0.49327130028E+02  0.62461115017E+02  0.32168468535E+02  0.85973583232E+02  0.47000000000E+01 0.  1.
         13    1    4    4    0    0 -0.25663343880E+02 -0.16694811799E+02  0.43127740670E+01  0.30918020316E+02  0.00000000000E+00 0. -1.
        -14    1    4    4    0    0  0.32494684587E+02 -0.30462364108E+02  0.95874820402E+02  0.10571585189E+03  0.00000000000E+00 0.  1.
</event>
<event>
12    1  0.1593360E-001  0.2728927E+03  0.7818608E-02  0.1099693E+00
         21   -1    0    0  503  502  0.00000000000E+00  0.00000000000E+00  0.45043605386E+03  0.45043605386E+03  0.00000000000E+00 0. -1.
         21   -1    0    0  501  503 -0.00000000000E+00 -0.00000000000E+00 -0.29037201604E+03  0.29037201604E+03  0.00000000000E+00 0.  1.
          6    2    1    2  501    0  0.18408143578E+02 -0.21041195487E+03 -0.16324007403E+03  0.31799019282E+03  0.17279580567E+03 0.  0.
         24    2    3    3    0    0  0.44431290431E+02 -0.21783749687E+03 -0.11599756318E+03  0.26334325624E+03  0.80417170629E+02 0.  0.
         -6    2    1    2    0  502 -0.18408143578E+02  0.21041195487E+03  0.32330411185E+03  0.42281787708E+03  0.17215504039E+03 0.  0.
        -24    2    5    5    0    0 -0.52774602885E+02  0.21592617175E+03  0.29513359275E+03  0.37779423596E+03  0.78837661043E+02 0.  0.
          5    1    3    3  501    0 -0.26023146853E+02  0.74255419958E+01 -0.47242510854E+02  0.54646936583E+02  0.47000000000E+01 0. -1.
        -11    1    4    4    0    0 -0.18499343859E+02 -0.39783205196E+02 -0.46665894747E+01  0.44121493585E+02  0.00000000000E+00 0.  1.
         12    1    4    4    0    0  0.62930634290E+02 -0.17805429167E+03 -0.11133097370E+03  0.21922176265E+03  0.00000000000E+00 0. -1.
         -5    1    5    5    0  502  0.34366459307E+02 -0.55142168736E+01  0.28170519099E+02  0.45023641116E+02  0.47000000000E+01 0.  1.
         11    1    6    6    0    0 -0.25822244631E+02  0.12923338194E+03  0.23330590085E+03  0.26795465791E+03  0.00000000000E+00 0. -1.
        -12    1    6    6    0    0 -0.26952358254E+02  0.86692789807E+02  0.61827691906E+02  0.10983957805E+03  0.00000000000E+00 0.  1.
</event>
<event>
12    1  0.1593360E-001  0.3344060E+03  0.7818608E-02  0.1069598E+00
         21   -1    0    0  501  502  0.00000000000E+00  0.00000000000E+00  0.39114521913E+03  0.39114521913E+03  0.00000000000E+00 0. -1.
         21   -1    0    0  502  503 -0.00000000000E+00 -0.00000000000E+00 -0.29780191000E+03  0.29780191000E+03  0.00000000000E+00 0.  1.
         -6    2    1    2    0  503 -0.68069767751E+02  0.27860450981E+03 -0.30809610767E+02  0.33223808130E+03  0.16486037843E+03 0.  0.
        -24    2    3    3    0    0 -0.77490146681E+02  0.25682646030E+03 -0.67725171863E+02  0.28810333726E+03  0.80326088509E+02 0.  0.
          6    2    1    2  501    0  0.68069767751E+02 -0.27860450981E+03  0.12415291990E+03  0.35670904784E+03  0.17196927377E+03 0.  0.
         24    2    5    5    0    0  0.25330580220E+02 -0.44341976543E+02  0.21685947698E+02  0.97427071919E+02  0.80086858080E+02 0.  0.
          5    1    5    5  501    0  0.42739187531E+02 -0.23426253327E+03  0.10246697220E+03  0.25928197592E+03  0.47000000000E+01 0. -1.
        -11    1    6    6    0    0  0.48318660027E+02 -0.29227479995E+02 -0.79064662268E+01  0.57021493332E+02  0.00000000000E+00 0.  1.
         12    1    6    6    0    0 -0.22988079806E+02 -0.15114496549E+02  0.29592413924E+02  0.40405578587E+02  0.00000000000E+00 0. -1.
         -5    1    3    3    0  503  0.94203789304E+01  0.21778049511E+02  0.36915561095E+02  0.44134744031E+02  0.47000000000E+01 0.  1.
         13    1    4    4    0    0 -0.79071570400E+02  0.13853821474E+03 -0.20918188746E+02  0.16088107660E+03  0.00000000000E+00 0. -1.
        -14    1    4    4    0    0  0.15814237185E+01  0.11828824556E+03 -0.46806983116E+02  0.12722226066E+03  0.00000000000E+00 0.  1.
</event>
<event>
12    1  0.1593360E-001  0.1838656E+03  0.7818608E-02  0.1164479E+00
         21   -1    0    0  501  502  0.00000000000E+00  0.00000000000E+00  0.59796777018E+03  0.59796777018E+03  0.00000000000E+00 0.  1.
         21   -1    0    0  502  503 -0.00000000000E+00 -0.00000000000E+00 -0.11387780154E+03  0.11387780154E+03  0.00000000000E+00 0.  1.
         -6    2    1    2    0  503 -0.27924296745E+02  0.54977883095E+02 -0.12066255870E+02  0.18271650169E+03  0.17157328312E+03 0.  0.
        -24    2    3    3    0    0 -0.35555804463E+02  0.63568386859E+02  0.40093039010E+02  0.12910009835E+03  0.98763498207E+02 0.  0.
          6    2    1    2  501    0  0.27924296745E+02 -0.54977883095E+02  0.49615622452E+03  0.52912907003E+03  0.17321731912E+03 0.  0.
         24    2    5    5    0    0  0.21862584358E+02  0.14545328272E+02  0.11644468651E+03  0.14302913041E+03  0.78793578166E+02 0.  0.
          5    1    5    5  501    0  0.60617123871E+01 -0.69523211367E+02  0.37971153801E+03  0.38609993962E+03  0.47000000000E+01 0. -1.
        -11    1    6    6    0    0  0.11519876025E+02 -0.24089447272E+02  0.92804825860E+02  0.96569895498E+02  0.00000000000E+00 0.  1.
         12    1    6    6    0    0  0.10342708334E+02  0.38634775545E+02  0.23639860648E+02  0.46459234911E+02  0.00000000000E+00 0. -1.
         -5    1    3    3    0  503  0.76315077174E+01 -0.85905037636E+01 -0.52159294880E+02  0.53616403342E+02  0.47000000000E+01 0.  1.
         13    1    4    4    0    0  0.29412727658E+02  0.35936494044E+02  0.35309322437E+02  0.58337709960E+02  0.00000000000E+00 0. -1.
        -14    1    4    4    0    0 -0.64968532121E+02  0.27631892815E+02  0.47837165735E+01  0.70762388390E+02  0.00000000000E+00 0.  1.
</event>
<event>
12    1  0.1593360E-001  0.1919677E+03  0.7818608E-02  0.1156806E+00
         21   -1    0    0  501  502  0.00000000000E+00  0.00000000000E+00  0.39199095109E+02  0.39199095109E+02  0.00000000000E+00 0.  1.
         21   -1    0    0  502  503 -0.00000000000E+00 -0.00000000000E+00 -0.14234913816E+04  0.14234913816E+04  0.00000000000E+00 0. -1.
         -6    2    1    2    0  503  0.35484201369E+02  0.79359878489E+02 -0.11187859246E+04  0.11350546908E+04  0.17061678453E+03 0.  0.
        -24    2    3    3    0    0  0.13850548647E+02  0.26325663224E+02 -0.99439458261E+03  0.99802936876E+03  0.79731780001E+02 0.  0.
          6    2    1    2  501    0 -0.35484201369E+02 -0.79359878489E+02 -0.26550636183E+03  0.32763578584E+03  0.17115624772E+03 0.  0.
         24    2    5    5    0    0 -0.68242629658E+02  0.10757424684E+01 -0.13222042318E+03  0.16848103353E+03  0.79027872485E+02 0.  0.
          5    1    5    5  501    0  0.32758428290E+02 -0.80435620957E+02 -0.13328593865E+03  0.15915475232E+03  0.47000000000E+01 0. -1.
        -13    1    6    6    0    0 -0.53126414528E+02 -0.24390232680E+02 -0.38016821359E+02  0.69732188242E+02  0.00000000000E+00 0.  1.
         14    1    6    6    0    0 -0.15116215130E+02  0.25465975148E+02 -0.94203601817E+02  0.98748845287E+02  0.00000000000E+00 0. -1.
         -5    1    3    3    0  503  0.21633652721E+02  0.53034215265E+02 -0.12439134203E+03  0.13702532208E+03  0.47000000000E+01 0.  1.
         13    1    4    4    0    0  0.40679122107E+02  0.35392028192E+01 -0.30294968161E+03  0.30568910108E+03  0.00000000000E+00 0. -1.
        -14    1    4    4    0    0 -0.26828573460E+02  0.22786460405E+02 -0.69144490099E+03  0.69234026767E+03  0.00000000000E+00 0.  1.
</event>
<event>
12    1  0.1593360E-001  0.2134384E+03  0.7818608E-02  0.1139060E+00
         21   -1    0    0  501  502  0.00000000000E+00  0.00000000000E+00  0.27822608430E+03  0.27822608430E+03  0.00000000000E+00 0.  1.
         21   -1    0    0  502  503 -0.00000000000E+00 -0.00000000000E+00 -0.16426190372E+03  0.16426190372E+03  0.00000000000E+00 0.  1.
         -6    2    1    2    0  503  0.11141407488E+02 -0.12635624138E+03  0.37671827513E+02  0.21673745601E+03  0.17165642298E+03 0.  0.
        -24    2    3    3    0    0  0.55259632327E+02 -0.13148367617E+03  0.94398880211E+01  0.16389958362E+03  0.80202106960E+02 0.  0.
          6    2    1    2  501    0 -0.11141407488E+02  0.12635624138E+03  0.76292353066E+02  0.22575053201E+03  0.17044866930E+03 0.  0.
         24    2    5    5    0    0 -0.53475106101E+02  0.10864780304E+03  0.97205040680E+02  0.17510311026E+03  0.80921858663E+02 0.  0.
          5    1    5    5  501    0  0.42333698613E+02  0.17708438340E+02 -0.20912687614E+02  0.50647421750E+02  0.47000000000E+01 0. -1.
        -13    1    6    6    0    0 -0.24676763168E+02  0.21602806725E+02 -0.97629810293E+01  0.34218996149E+02  0.00000000000E+00 0.  1.
         14    1    6    6    0    0 -0.28798342933E+02  0.87044996317E+02  0.10696802171E+03  0.14088411411E+03  0.00000000000E+00 0. -1.
         -5    1    3    3    0  503 -0.44118224839E+02  0.51274347919E+01  0.28231939492E+02  0.52837872383E+02  0.47000000000E+01 0.  1.
         11    1    4    4    0    0  0.21469314535E+02  0.49725048518E+01  0.75954751779E+01  0.23309837285E+02  0.00000000000E+00 0. -1.
        -12    1    4    4    0    0  0.33790317792E+02 -0.13645618102E+03  0.18444128432E+01  0.14058974634E+03  0.00000000000E+00 0.  1.
</event>
<event>
12    1  0.1593360E-001  0.1857134E+03  0.7818608E-02  0.1162815E+00
         21   -1    0    0  503  502  0.00000000000E+00  0.00000000000E+00  0.89043384166E+03  0.89043384166E+03  0.00000000000E+00 0. -1.
         21   -1    0    0  501  503 -0.00000000000E+00 -0.00000000000E+00 -0.43122095601E+02  0.43122095601E+02  0.00000000000E+00 0. -1.
          6    2    1    2  501    0 -0.16423609126E+02 -0.63286054024E+02  0.26650846064E+03  0.32378392249E+03  0.17185578053E+03 0.  0.
         24    2    3    3    0    0 -0.73330457963E+02 -0.42751271328E+02  0.21237650456E+03  0.24246710127E+03  0.80507690580E+02 0.  0.
         -6    2    1    2    0  502  0.16423609126E+02  0.63286054024E+02  0.58080328542E+03  0.60977201477E+03  0.17382345662E+03 0.  0.
        -24    2    5    5    0    0  0.67808198726E+02  0.70835053889E+02  0.39917122544E+03  0.42080202070E+03  0.90117238811E+02 0.  0.
          5    1    3    3  501    0  0.56906848836E+02 -0.20534782696E+02  0.54131956079E+02  0.81316821223E+02  0.47000000000E+01 0. -1.
        -11    1    4    4    0    0  0.19283546172E+01 -0.99255934209E+01 -0.41243992054E+01  0.10920010306E+02  0.00000000000E+00 0.  1.
         12    1    4    4    0    0 -0.75258812580E+02 -0.32825677907E+02  0.21650090377E+03  0.23154709096E+03  0.00000000000E+00 0. -1.
         -5    1    5    5    0  502 -0.51384589600E+02 -0.75489998643E+01  0.18163205998E+03  0.18896999407E+03  0.47000000000E+01 0.  1.
         13    1    6    6    0    0 -0.20895462782E+02  0.48026423734E+01  0.46604280778E+02  0.51299558726E+02  0.00000000000E+00 0. -1.
        -14    1    6    6    0    0  0.88703661508E+02  0.66032411515E+02  0.35256694466E+03  0.36950246197E+03  0.00000000000E+00 0.  1.
</event>
<event>
12    1  0.1593360E-001  0.1830059E+03  0.7818608E-02  0.1165203E+00
         21   -1    0    0  501  502  0.00000000000E+00  0.00000000000E+00  0.19667189800E+03  0.19667189800E+03  0.00000000000E+00 0. -1.
         21   -1    0    0  502  503 -0.00000000000E+00 -0.00000000000E+00 -0.21849495701E+03  0.21849495701E+03  0.00000000000E+00 0. -1.
         -6    2    1    2    0  503 -0.58697269271E+02 -0.11138916915E+02 -0.10948161861E+03  0.21225014423E+03  0.17173949465E+03 0.  0.
        -24    2    3    3    0    0 -0.77126503270E+02  0.40005019567E+02 -0.10483051282E+03  0.15748645471E+03  0.79143211345E+02 0.  0.
          6    2    1    2  501    0  0.58697269271E+02  0.11138916915E+02  0.87658559594E+02  0.20291671078E+03  0.17297896853E+03 0.  0.
         24    2    5    5    0    0 -0.25868076993E+02  0.21274283785E+02  0.11915942870E+02  0.88841921988E+02  0.81419560612E+02 0.  0.
          5    1    5    5  501    0  0.84565346264E+02 -0.10135366869E+02  0.75742616725E+02  0.11407478880E+03  0.47000000000E+01 0. -1.
        -13    1    6    6    0    0 -0.38526354753E+02  0.46446250207E+01  0.38743049848E+02  0.54834993058E+02  0.00000000000E+00 0.  1.
         14    1    6    6    0    0  0.12658277760E+02  0.16629658764E+02 -0.26827106978E+02  0.34006928930E+02  0.00000000000E+00 0. -1.
         -5    1    3    3    0  503  0.18429233999E+02 -0.51143936482E+02 -0.46511057887E+01  0.54763689519E+02  0.47000000000E+01 0.  1.
         11    1    4    4    0    0 -0.47147234699E+02 -0.17922267164E+02 -0.59778531827E+02  0.78214718995E+02  0.00000000000E+00 0. -1.
        -12    1    4    4    0    0 -0.29979268571E+02  0.57927286730E+02 -0.45051980992E+02  0.79271735715E+02  0.00000000000E+00 0.  1.
</event>
<event>
12    1  0.1593360E-001  0.2140971E+03  0.7818608E-02  0.1138469E+00
         21   -1    0    0  501  502  0.00000000000E+00  0.00000000000E+00  0.19814600666E+04  0.19814600666E+04  0.00000000000E+00 0.  1.
         21   -1    0    0  502  503 -0.00000000000E+00 -0.00000000000E+00 -0.24324475800E+02  0.24324475800E+02  0.00000000000E+00 0.  1.
         -6    2    1    2    0  503 -0.61537353020E+02 -0.11143453386E+03  0.75234015665E+03  0.78221050460E+03  0.17214256023E+03 0.  0.
        -24    2    3    3    0    0  0.29046793931E+02 -0.79361805456E+02  0.41298764443E+03  0.42948346405E+03  0.82190261194E+02 0.  0.
          6    2    1    2  501    0  0.61537353020E+02  0.11143453386E+03  0.12047954341E+04  0.12235740378E+04  0.17145520313E+03 0.  0.
         24    2    5    5    0    0  0.53736982761E+02 -0.31467278612E+01  0.48740661500E+03  0.49703531265E+03  0.81125387243E+02 0.  0.
          5    1    5    5  501    0  0.78003702586E+01  0.11458126172E+03  0.71738881914E+03  0.72653872515E+03  0.47000000000E+01 0. -1.
        -13    1    6    6    0    0  0.33600272663E+02  0.34576190245E+02  0.34483663160E+03  0.34819074334E+03  0.00000000000E+00 0.  1.
         14    1    6    6    0    0  0.20136710098E+02 -0.37722918106E+02  0.14256998340E+03  0.14884456931E+03  0.00000000000E+00 0. -1.
         -5    1    3    3    0  503 -0.90584146951E+02 -0.32072728406E+02  0.33935251222E+03  0.35272704055E+03  0.47000000000E+01 0.  1.
         13    1    4    4    0    0  0.11835782429E+02 -0.78964945336E+02  0.40007045435E+03  0.40796068044E+03  0.00000000000E+00 0. -1.
        -14    1    4    4    0    0  0.17211011502E+02 -0.39686011985E+00  0.12917190082E+02  0.21522783614E+02  0.00000000000E+00 0.  1.
</event>
<event>
12    1  0.1593360E-001  0.2227834E+03  0.7818608E-02  0.1132113E+00
         21   -1    0    0  503  502  0.00000000000E+00  0.00000000000E+00  0.21429928085E+03  0.21429928085E+03  0.00000000000E+00 0.  1.
         21   -1    0    0  501  503 -0.00000000000E+00 -0.00000000000E+00 -0.51793510962E+03  0.51793510962E+03  0.00000000000E+00 0.  1.
          6    2    1    2  501    0  0.11375922289E+03  0.84860145698E+02 -0.42456905467E+03  0.47874417021E+03  0.16968999148E+03 0.  0.
         24    2    3    3    0    0  0.24359368672E+02  0.10252793738E+03 -0.23950537093E+03  0.27240672369E+03  0.75744594672E+02 0.  0.
         -6    2    1    2    0  502 -0.11375922289E+03 -0.84860145698E+02  0.12093322589E+03  0.25349022027E+03  0.17172664768E+03 0.  0.
        -24    2    5    5    0    0 -0.91145808005E+01  0.86450364496E+01  0.29664291596E+02  0.86021331888E+02  0.79761438713E+02 0.  0.
          5    1    3    3  501    0  0.89399854219E+02 -0.17667791686E+02 -0.18506368374E+03  0.20633744652E+03  0.47000000000E+01 0. -1.
        -11    1    4    4    0    0  0.51778159638E+01  0.71830439012E+02 -0.21957803776E+03  0.23108642628E+03  0.00000000000E+00 0.  1.
         12    1    4    4    0    0  0.19181552708E+02  0.30697498372E+02 -0.19927333172E+02  0.41320297408E+02  0.00000000000E+00 0. -1.
         -5    1    5    5    0  502 -0.10464464209E+03 -0.93505182147E+02  0.91268934296E+02  0.16746888838E+03  0.47000000000E+01 0.  1.
         11    1    6    6    0    0 -0.20029134673E+02  0.79857455092E+00 -0.23671062264E+02  0.31018109965E+02  0.00000000000E+00 0. -1.
        -12    1    6    6    0    0  0.10914553872E+02  0.78464618987E+01  0.53335353860E+02  0.55003221923E+02  0.00000000000E+00 0.  1.
</event>
<event>
12    1  0.1593360E-001  0.2333377E+03  0.7818608E-02  0.1126120E+00
         21   -1    0    0  501  502  0.00000000000E+00  0.00000000000E+00  0.26854459433E+02  0.26854459433E+02  0.00000000000E+00 0. -1.
         21   -1    0    0  502  503 -0.00000000000E+00 -0.00000000000E+00 -0.19858284028E+04  0.19858284028E+04  0.00000000000E+00 0. -1.
         -6    2    1    2    0  503 -0.47988462233E+02 -0.13435975685E+03 -0.11114811655E+04  0.11336547242E+04  0.17154362600E+03 0.  0.
        -24    2    3    3    0    0 -0.16770477970E+01 -0.14662575254E+03 -0.72345074722E+03  0.74264974049E+03  0.81521344466E+02 0.  0.
          6    2    1    2  501    0  0.47988462233E+02  0.13435975685E+03 -0.84749277786E+03  0.87902813805E+03  0.18463754273E+03 0.  0.
         24    2    5    5    0    0 -0.31728816664E+02  0.89317914932E+02 -0.29092259499E+03  0.31495715799E+03  0.74683648550E+02 0.  0.
          5    1    5    5  501    0  0.79717278897E+02  0.45041841923E+02 -0.55657018288E+03  0.56407098006E+03  0.47000000000E+01 0. -1.
        -13    1    6    6    0    0 -0.27894118104E+02  0.59749988687E+02 -0.27145414839E+03  0.27934834464E+03  0.00000000000E+00 0.  1.
         14    1    6    6    0    0 -0.38346985602E+01  0.29567926245E+02 -0.19468446594E+02  0.35608813351E+02  0.00000000000E+00 0. -1.
         -5    1    3    3    0  503 -0.46311414436E+02  0.12265995684E+02 -0.38803041829E+03  0.39100498369E+03  0.47000000000E+01 0.  1.
         11    1    4    4    0    0 -0.32334354078E+02 -0.93876509420E+02 -0.33388374289E+03  0.34833412586E+03  0.00000000000E+00 0. -1.
        -12    1    4    4    0    0  0.30657306281E+02 -0.52749243118E+02 -0.38956700433E+03  0.39431561463E+03  0.00000000000E+00 0.  1.
</event>
<event>
12    1  0.1593360E-001  0.1968455E+03  0.7818608E-02  0.1152630E+00
         21   -1    0    0  501  502  0.00000000000E+00  0.00000000000E+00  0.85137054367E+02  0.85137054367E+02  0.00000000000E+00 0.  1.
         21   -1    0    0  502  503 -0.00000000000E+00 -0.00000000000E+00 -0.67909344330E+03  0.67909344330E+03  0.00000000000E+00 0.  1.
         -6    2    1    2    0  503  0.22939959606E+02  0.91912517041E+02 -0.76011567042E+02  0.21014114814E+03  0.17148583406E+03 0.  0.
        -24    2    3    3    0    0  0.76827275496E+02  0.33378490817E+02 -0.37092018105E+02  0.12144562216E+03  0.79728711428E+02 0.  0.
          6    2    1    2  501    0 -0.22939959606E+02 -0.91912517041E+02 -0.51794482189E+03  0.55408934952E+03  0.17255148853E+03 0.  0.
         24    2    5    5    0    0  0.17581381644E+01  0.12080520771E+01 -0.36746227949E+03  0.37534785464E+03  0.76504474985E+02 0.  0.
          5    1    5    5  501    0 -0.24698097771E+02 -0.93120569118E+02 -0.15048254240E+03  0.17874149488E+03  0.47000000000E+01 0. -1.
        -11    1    6    6    0    0  0.20810154137E+02 -0.14351721897E+02 -0.42455893176E+02  0.49411914575E+02  0.00000000000E+00 0.  1.
         12    1    6    6    0    0 -0.19052015973E+02  0.15559773974E+02 -0.32500638632E+03  0.32593594006E+03  0.00000000000E+00 0. -1.
         -5    1    3    3    0  503 -0.53887315890E+02  0.58534026223E+02 -0.38919548937E+02  0.88695525982E+02  0.47000000000E+01 0.  1.
         13    1    4    4    0    0  0.14114576249E+02 -0.19493177881E+02 -0.30927374089E+02  0.39188106800E+02  0.00000000000E+00 0. -1.
        -14    1    4    4    0    0  0.62712699247E+02  0.52871668698E+02 -0.61646440168E+01  0.82257515362E+02  0.00000000000E+00 0.  1.
</event>
<event>
12    1  0.1593360E-001  0.2362223E+03  0.7818608E-02  0.1122795E+00
         21   -1    0    0  503  502  0.00000000000E+00  0.00000000000E+00  0.92272710589E+02  0.92272710589E+02  0.00000000000E+00 0. -1.
         21   -1    0    0  501  503 -0.00000000000E+00 -0.00000000000E+00 -0.61145682538E+03  0.61145682538E+03  0.00000000000E+00 0.  1.
          6    2    1    2  501    0  0.13951808647E+03  0.65892879717E+02 -0.20572071772E+03  0.31122443272E+03  0.17530677618E+03 0.  0.
         24    2    3    3    0    0  0.46148031327E+01  0.14488901788E+02 -0.36852912205E+02  0.89009018000E+02  0.79581677944E+02 0.  0.
         -6    2    1    2    0  502 -0.13951808647E+03 -0.65892879717E+02 -0.31346339707E+03  0.39250510324E+03  0.17886807072E+03 0.  0.
        -24    2    5    5    0    0 -0.11595776389E+03 -0.70900522124E+02 -0.32800064462E+03  0.36398165940E+03  0.80156961417E+02 0.  0.
          5    1    3    3  501    0  0.13490328333E+03  0.51403977929E+02 -0.16886780551E+03  0.22221541472E+03  0.47000000000E+01 0. -1.
        -13    1    4    4    0    0  0.13281492428E+02  0.32492593957E+01 -0.60174364063E+02  0.61708263776E+02  0.00000000000E+00 0.  1.
         14    1    4    4    0    0 -0.86666892956E+01  0.11239642392E+02  0.23321451858E+02  0.27300754225E+02  0.00000000000E+00 0. -1.
         -5    1    5    5    0  502 -0.23560322574E+02  0.50076424075E+01  0.14537247552E+02  0.28523443843E+02  0.47000000000E+01 0.  1.
         13    1    6    6    0    0 -0.37618602695E+02 -0.27238921345E+02 -0.36721075152E+02  0.59207731464E+02  0.00000000000E+00 0. -1.
        -14    1    6    6    0    0 -0.78339161196E+02 -0.43661600779E+02 -0.29127956947E+03  0.30477392794E+03  0.00000000000E+00 0.  1.
</event>
<event>
12    1  0.1593360E-001  0.2037225E+03  0.7818608E-02  0.1146773E+00
         21   -1    0    0  503  502  0.00000000000E+00  0.00000000000E+00  0.48490544895E+02  0.48490544895E+02  0.00000000000E+00 0. -1.
         21   -1    0    0  501  503 -0.00000000000E+00 -0.00000000000E+00 -0.11366088025E+04  0.11366088025E+04  0.00000000000E+00 0.  1.
          6    2    1    2  501    0 -0.31620130575E+02 -0.10444565527E+03 -0.84066341155E+03  0.86499585779E+03  0.17202945942E+03 0.  0.
         24    2    3    3    0    0  0.59699601324E+01  0.14609608923E+02 -0.27073623753E+03  0.28153528111E+03  0.75597110395E+02 0.  0.
         -6    2    1    2    0  502  0.31620130575E+02  0.10444565527E+03 -0.24745484608E+03  0.32010348963E+03  0.17124139588E+03 0.  0.
        -24    2    5    5    0    0  0.52643073951E+02  0.83282290202E+01 -0.71226270726E+02  0.11821459804E+03  0.77851505541E+02 0.  0.
          5    1    3    3  501    0 -0.37590090708E+02 -0.11905526419E+03 -0.56992717402E+03  0.58346057668E+03  0.47000000000E+01 0. -1.
        -13    1    4    4    0    0 -0.27552650390E+02 -0.57397547028E+01 -0.50303521210E+02  0.57641457075E+02  0.00000000000E+00 0.  1.
         14    1    4    4    0    0  0.33522610523E+02  0.20349363626E+02 -0.22043271632E+03  0.22389382404E+03  0.00000000000E+00 0. -1.
         -5    1    5    5    0  502 -0.21022943375E+02  0.96117426248E+02 -0.17622857535E+03  0.20188889159E+03  0.47000000000E+01 0.  1.
         13    1    6    6    0    0  0.42372404317E+02  0.33621280636E+02 -0.15671865719E+02  0.56315349012E+02  0.00000000000E+00 0. -1.
        -14    1    6    6    0    0  0.10270669634E+02 -0.25293051616E+02 -0.55554405007E+02  0.61899249030E+02  0.00000000000E+00 0.  1.
</event>
<event>
12    1  0.1593360E-001  0.1964298E+03  0.7818608E-02  0.1157537E+00
         21   -1    0    0  503  502  0.00000000000E+00  0.00000000000E+00  0.33111934116E+03  0.33111934116E+03  0.00000000000E+00 0.  1.
         21   -1    0    0  501  503 -0.00000000000E+00 -0.00000000000E+00 -0.12257377784E+03  0.12257377784E+03  0.00000000000E+00 0.  1.
          6    2    1    2  501    0 -0.28922465559E+02 -0.20357938453E+02  0.22367160299E+02  0.19769915353E+03  0.19321933333E+03 0.  0.
         24    2    3    3    0    0  0.50819552249E+02 -0.45151498602E+02 -0.15487882485E+02  0.10589172304E+03  0.79698794141E+02 0.  0.
         -6    2    1    2    0  502  0.28922465559E+02  0.20357938453E+02  0.18617840302E+03  0.25599396548E+03  0.17210333506E+03 0.  0.
        -24    2    5    5    0    0  0.74437548696E+02  0.50924669242E+02  0.14166032399E+03  0.18521333829E+03  0.78115700695E+02 0.  0.
          5    1    3    3  501    0 -0.79742017808E+02  0.24793560149E+02  0.37855042783E+02  0.91807430489E+02  0.47000000000E+01 0. -1.
        -13    1    4    4    0    0  0.37401442748E+01 -0.55284443855E+02 -0.16195051999E+02  0.57729005888E+02  0.00000000000E+00 0.  1.
         14    1    4    4    0    0  0.47079407974E+02  0.10132945253E+02  0.70716951400E+00  0.48162717152E+02  0.00000000000E+00 0. -1.
         -5    1    5    5    0  502 -0.45515083137E+02 -0.30566730789E+02  0.44518079029E+02  0.70780627184E+02  0.47000000000E+01 0.  1.
         13    1    6    6    0    0  0.87074662477E+01 -0.57963846437E+01 -0.73297314794E+01  0.12772744691E+02  0.00000000000E+00 0. -1.
        -14    1    6    6    0    0  0.65730082448E+02  0.56721053886E+02  0.14899005547E+03  0.17244059360E+03  0.00000000000E+00 0.  1.
</event>
<event>
12    1  0.1593360E-001  0.1937943E+03  0.7818608E-02  0.1155102E+00
         21   -1    0    0  503  502  0.00000000000E+00  0.00000000000E+00  0.78270270230E+02  0.78270270230E+02  0.00000000000E+00 0. -1.
         21   -1    0    0  501  503 -0.00000000000E+00 -0.00000000000E+00 -0.12539474590E+04  0.12539474590E+04  0.00000000000E+00 0. -1.
          6    2    1    2  501    0  0.87874912178E+02  0.18337650715E+02 -0.11113313138E+04  0.11281017369E+04  0.17174973107E+03 0.  0.
         24    2    3    3    0    0  0.10615607866E+03 -0.32989122079E+02 -0.87177293527E+03  0.88238046110E+03  0.79055880536E+02 0.  0.
         -6    2    1    2    0  502 -0.87874912178E+02 -0.18337650715E+02 -0.64345874887E+02  0.20411599226E+03  0.17165278051E+03 0.  0.
        -24    2    5    5    0    0  0.68181302896E+01  0.25152403778E+02 -0.52279261716E+02  0.99111943358E+02  0.80068257095E+02 0.  0.
          5    1    3    3  501    0 -0.18281166483E+02  0.51326772795E+02 -0.23955837856E+03  0.24572127583E+03  0.47000000000E+01 0. -1.
        -13    1    4    4    0    0  0.35150037192E+01 -0.33257350976E+02 -0.24149210544E+03  0.24379672606E+03  0.00000000000E+00 0.  1.
         14    1    4    4    0    0  0.10264107494E+03  0.26822889616E+00 -0.63028082983E+03  0.63858373505E+03  0.00000000000E+00 0. -1.
         -5    1    5    5    0  502 -0.94693042467E+02 -0.43490054493E+02 -0.12066613171E+02  0.10500404890E+03  0.47000000000E+01 0.  1.
         13    1    6    6    0    0 -0.35977647232E+02  0.19598442169E+02 -0.23324227474E+02  0.47143500327E+02  0.00000000000E+00 0. -1.
        -14    1    6    6    0    0  0.42795777521E+02  0.55539616089E+01 -0.28955034242E+02  0.51968443032E+02  0.00000000000E+00 0.  1.
</event>
<event>
12    1  0.1593360E-001  0.5883038E+03  0.7818608E-02  0.9931272E-01
         21   -1    0    0  501  502  0.00000000000E+00  0.00000000000E+00  0.81720733301E+03  0.81720733301E+03  0.00000000000E+00 0.  1.
         21   -1    0    0  502  503 -0.00000000000E+00 -0.00000000000E+00 -0.62800887696E+03  0.62800887696E+03  0.00000000000E+00 0. -1.
         -6    2    1    2    0  503 -0.45934912154E+03  0.31959763614E+03 -0.31963774996E+03  0.66738870938E+03  0.17347949078E+03 0.  0.
        -24    2    3    3    0    0 -0.28016136468E+03  0.27707393881E+03 -0.19561819482E+03  0.44530886540E+03  0.69087984713E+02 0.  0.
          6    2    1    2  501    0  0.45934912154E+03 -0.31959763614E+03  0.50883620601E+03  0.77782750059E+03  0.18154082639E+03 0.  0.
         24    2    5    5    0    0  0.28485542139E+03 -0.26839823211E+03  0.29131164265E+03  0.49426365235E+03  0.79081368184E+02 0.  0.
          5    1    5    5  501    0  0.17449370016E+03 -0.51199404025E+02  0.21752456336E+03  0.28356384824E+03  0.47000000000E+01 0. -1.
        -11    1    6    6    0    0  0.21817539203E+03 -0.23788962845E+03  0.26022152040E+03  0.41461695176E+03  0.00000000000E+00 0.  1.
         12    1    6    6    0    0  0.66680029355E+02 -0.30508603666E+02  0.31090122252E+02  0.79646700585E+02  0.00000000000E+00 0. -1.
         -5    1    3    3    0  503 -0.17918775686E+03  0.42523697324E+02 -0.12401955514E+03  0.22207984398E+03  0.47000000000E+01 0.  1.
         11    1    4    4    0    0 -0.21713921689E+03  0.17005474238E+03 -0.13780422900E+03  0.30831487224E+03  0.00000000000E+00 0. -1.
        -12    1    4    4    0    0 -0.63022147794E+02  0.10701919643E+03 -0.57813965818E+02  0.13699399316E+03  0.00000000000E+00 0.  1.
</event>
<event>
12    1  0.1593360E-001  0.2650872E+03  0.7818608E-02  0.1104579E+00
         21   -1    0    0  501  502  0.00000000000E+00  0.00000000000E+00  0.15543603857E+03  0.15543603857E+03  0.00000000000E+00 0. -1.
         21   -1    0    0  502  503 -0.00000000000E+00 -0.00000000000E+00 -0.61520157910E+03  0.61520157910E+03  0.00000000000E+00 0.  1.
         -6    2    1    2    0  503 -0.68069171214E+02 -0.18843632586E+03 -0.43242314961E+03  0.50720905571E+03  0.17357875705E+03 0.  0.
        -24    2    3    3    0    0  0.30121189606E+01 -0.17480668800E+03 -0.32715352509E+03  0.37937282967E+03  0.79547871648E+02 0.  0.
          6    2    1    2  501    0  0.68069171214E+02  0.18843632586E+03 -0.27342390920E+02  0.26342856197E+03  0.16883524497E+03 0.  0.
         24    2    5    5    0    0  0.57949391430E+02  0.19168200475E+03  0.18459329019E+02  0.21617571101E+03  0.79316254898E+02 0.  0.
          5    1    5    5  501    0  0.10119779784E+02 -0.32456788853E+01 -0.45801719940E+02  0.47252850959E+02  0.47000000000E+01 0. -1.
        -11    1    6    6    0    0  0.23494316695E+02  0.38004446833E+02 -0.27061479599E+02  0.52236429569E+02  0.00000000000E+00 0.  1.
         12    1    6    6    0    0  0.34455074735E+02  0.15367755792E+03  0.45520808618E+02  0.16393928144E+03  0.00000000000E+00 0. -1.
         -5    1    3    3    0  503 -0.71081290174E+02 -0.13629637867E+02 -0.10526962452E+03  0.12783622604E+03  0.47000000000E+01 0.  1.
         11    1    4    4    0    0 -0.13705253596E+02 -0.74453231119E+02 -0.71136036272E+02  0.10388191978E+03  0.00000000000E+00 0. -1.
        -12    1    4    4    0    0  0.16717372557E+02 -0.10035345688E+03 -0.25601748882E+03  0.27549090989E+03  0.00000000000E+00 0.  1.
</event>
<event>
12    1  0.1593360E-001  0.2457795E+03  0.7818608E-02  0.1116089E+00
         21   -1    0    0  503  502  0.00000000000E+00  0.00000000000E+00  0.24986397455E+03  0.24986397455E+03  0.00000000000E+00 0. -1.
         21   -1    0    0  501  503 -0.00000000000E+00 -0.00000000000E+00 -0.28012606522E+03  0.28012606522E+03  0.00000000000E+00 0. -1.
          6    2    1    2  501    0  0.10467164773E+03  0.14104730277E+03 -0.11389107894E+03  0.27088508178E+03  0.17192165137E+03 0.  0.
         24    2    3    3    0    0  0.95918328777E+02  0.13660867693E+03 -0.30883704092E+02  0.18716748344E+03  0.78839122723E+02 0.  0.
         -6    2    1    2    0  502 -0.10467164773E+03 -0.14104730277E+03  0.83628988266E+02  0.25910495799E+03  0.17114635876E+03 0.  0.
        -24    2    5    5    0    0 -0.77695678784E+02 -0.16886520187E+03  0.85069181049E+02  0.22004471521E+03  0.81429946728E+02 0.  0.
          5    1    3    3  501    0  0.87533189533E+01  0.44386258415E+01 -0.83007374845E+02  0.83717598333E+02  0.47000000000E+01 0. -1.
        -11    1    4    4    0    0 -0.53371695248E+01  0.35872603720E+02  0.11727868188E+02  0.38116557668E+02  0.00000000000E+00 0.  1.
         12    1    4    4    0    0  0.10125549830E+03  0.10073607321E+03 -0.42611572280E+02  0.14905092578E+03  0.00000000000E+00 0. -1.
         -5    1    5    5    0  502 -0.26975968946E+02  0.27817899094E+02 -0.14401927835E+01  0.39060242778E+02  0.47000000000E+01 0.  1.
         11    1    6    6    0    0 -0.25197630943E+02 -0.32560711179E+02  0.58573843240E+02  0.71596198430E+02  0.00000000000E+00 0. -1.
        -12    1    6    6    0    0 -0.52498047841E+02 -0.13630449069E+03  0.26495337809E+02  0.14844851678E+03  0.00000000000E+00 0.  1.
</event>
<event>
12    1  0.1593360E-001  0.3019899E+03  0.7818608E-02  0.1084337E+00
         21   -1    0    0  501  502  0.00000000000E+00  0.00000000000E+00  0.16895430433E+04  0.16895430433E+04  0.00000000000E+00 0.  1.
         21   -1    0    0  502  503 -0.00000000000E+00 -0.00000000000E+00 -0.65386424720E+02  0.65386424720E+02  0.00000000000E+00 0. -1.
         -6    2    1    2    0  503  0.23807091989E+03  0.68102004044E+02  0.44278569318E+03  0.53557095153E+03  0.17164331675E+03 0.  0.
        -24    2    3    3    0    0  0.19379233848E+03  0.63713345744E+02  0.22741331907E+03  0.31560003840E+03  0.79194101233E+02 0.  0.
          6    2    1    2  501    0 -0.23807091989E+03 -0.68102004044E+02  0.11813709254E+04  0.12193585165E+04  0.17286492559E+03 0.  0.
         24    2    5    5    0    0 -0.15201985159E+03  0.15280555292E+02  0.53671584919E+03  0.56364539718E+03  0.79301326194E+02 0.  0.
          5    1    5    5  501    0 -0.86051068301E+02 -0.83382559336E+02  0.64465507622E+03  0.65571311932E+03  0.47000000000E+01 0. -1.
        -13    1    6    6    0    0 -0.46255984454E+02 -0.16685445561E+02  0.27813159134E+03  0.28244504296E+03  0.00000000000E+00 0.  1.
         14    1    6    6    0    0 -0.10576386714E+03  0.31966000853E+02  0.25858425785E+03  0.28120035422E+03  0.00000000000E+00 0. -1.
         -5    1    3    3    0  503  0.44278581418E+02  0.43886582998E+01  0.21537237411E+03  0.21997091313E+03  0.47000000000E+01 0.  1.
         13    1    4    4    0    0  0.30069154483E+02  0.44424191249E+02  0.48539602199E+02  0.72344701264E+02  0.00000000000E+00 0. -1.
        -14    1    4    4    0    0  0.16372318399E+03  0.19289154496E+02  0.17887371687E+03  0.24325533714E+03  0.00000000000E+00 0.  1.
</event>
<event>
12    1  0.1593360E-001  0.2382953E+03  0.7818608E-02  0.1121133E+00
         21   -1    0    0  503  502  0.00000000000E+00  0.00000000000E+00  0.11290352194E+04  0.11290352194E+04  0.00000000000E+00 0.  1.
         21   -1    0    0  501  503 -0.00000000000E+00 -0.00000000000E+00 -0.73374605979E+02  0.73374605979E+02  0.00000000000E+00 0.  1.
          6    2    1    2  501    0 -0.27898672083E+02 -0.16075315520E+03  0.18972878506E+03  0.30460084630E+03  0.17368002440E+03 0.  0.
         24    2    3    3    0    0  0.35173234982E+02 -0.14216003892E+03  0.16313428933E+03  0.23351549874E+03  0.80436674932E+02 0.  0.
         -6    2    1    2    0  502  0.27898672083E+02  0.16075315520E+03  0.86593182837E+03  0.89780897909E+03  0.17205556876E+03 0.  0.
        -24    2    5    5    0    0  0.55167380103E+02  0.90182441685E+02  0.31214507690E+03  0.33885847667E+03  0.78830232577E+02 0.  0.
          5    1    3    3  501    0 -0.63071907065E+02 -0.18593116279E+02  0.26594495733E+02  0.71085347556E+02  0.47000000000E+01 0. -1.
        -11    1    4    4    0    0  0.15431359594E+02 -0.10398114595E+02 -0.47344954159E+01  0.19200601368E+02  0.00000000000E+00 0.  1.
         12    1    4    4    0    0  0.19741875388E+02 -0.13176192432E+03  0.16786878475E+03  0.21431489738E+03  0.00000000000E+00 0. -1.
         -5    1    5    5    0  502 -0.27268708019E+02  0.70570713513E+02  0.55378675147E+03  0.55895050241E+03  0.47000000000E+01 0.  1.
         13    1    6    6    0    0  0.70224053419E+02  0.49994065245E+02  0.23877167706E+03  0.25385574251E+03  0.00000000000E+00 0. -1.
        -14    1    6    6    0    0 -0.15056673316E+02  0.40188376440E+02  0.73373399832E+02  0.85002734163E+02  0.00000000000E+00 0.  1.
</event>
<event>
12    1  0.1593360E-001  0.2257588E+03  0.7818608E-02  0.1130112E+00
         21   -1    0    0  501  502  0.00000000000E+00  0.00000000000E+00  0.58252600771E+03  0.58252600771E+03  0.00000000000E+00 0. -1.
         21   -1    0    0  502  503 -0.00000000000E+00 -0.00000000000E+00 -0.93102768583E+02  0.93102768583E+02  0.00000000000E+00 0.  1.
         -6    2    1    2    0  503  0.90640969564E+02 -0.11611583943E+03  0.33319512626E+03  0.40108508728E+03  0.16778433045E+03 0.  0.
        -24    2    3    3    0    0  0.12036452586E+03 -0.11165680477E+03  0.24563276468E+03  0.30838864747E+03  0.88392543040E+02 0.  0.
          6    2    1    2  501    0 -0.90640969564E+02  0.11611583943E+03  0.15622811288E+03  0.27454368902E+03  0.17107992400E+03 0.  0.
         24    2    5    5    0    0  0.95722530466E+01  0.21693877423E+02  0.68162158434E+02  0.11103252968E+03  0.84379443343E+02 0.  0.
          5    1    5    5  501    0 -0.10021322261E+03  0.94421962012E+02  0.88065954442E+02  0.16351115934E+03  0.47000000000E+01 0. -1.
        -13    1    6    6    0    0  0.32906542602E+02  0.28783986120E+02  0.58384950643E+01  0.44107215142E+02  0.00000000000E+00 0.  1.
         14    1    6    6    0    0 -0.23334289555E+02 -0.70901086964E+01  0.62323663369E+02  0.66925314539E+02  0.00000000000E+00 0. -1.
         -5    1    3    3    0  503 -0.29723556299E+02 -0.44590346691E+01  0.87562361572E+02  0.92696439809E+02  0.47000000000E+01 0.  1.
         11    1    4    4    0    0  0.81486856956E+02 -0.28045888901E+02  0.16388219513E+03  0.18515953559E+03  0.00000000000E+00 0. -1.
        -12    1    4    4    0    0  0.38877668907E+02 -0.83610915864E+02  0.81750569557E+02  0.12322911188E+03  0.00000000000E+00 0.  1.
</event>
<event>
12    1  0.1593360E-001  0.1909748E+03  0.7818608E-02  0.1158011E+00
         21   -1    0    0  503  502  0.00000000000E+00  0.00000000000E+00  0.92189802452E+02  0.92189802452E+02  0.00000000000E+00 0.  1.
         21   -1    0    0  501  503 -0.00000000000E+00 -0.00000000000E+00 -0.49638712691E+03  0.49638712691E+03  0.00000000000E+00 0.  1.
          6    2    1    2  501    0 -0.52165734275E+02  0.62650685176E+02 -0.33803834712E+03  0.38825419006E+03  0.17269921769E+03 0.  0.
         24    2    3    3    0    0 -0.89537233061E+02  0.82758605709E+02 -0.28452613356E+03  0.31979541129E+03  0.80299946978E+02 0.  0.
         -6    2    1    2    0  502  0.52165734275E+02 -0.62650685176E+02 -0.66158977341E+02  0.20032273931E+03  0.17060427139E+03 0.  0.
        -24    2    5    5    0    0  0.22354276355E+00 -0.31025051077E+01 -0.87949681183E+02  0.11821974434E+03  0.78937228368E+02 0.  0.
          5    1    3    3  501    0  0.37371498786E+02 -0.20107920533E+02 -0.53512213566E+02  0.68458778768E+02  0.47000000000E+01 0. -1.
        -13    1    4    4    0    0 -0.24179109634E+02  0.13032304690E+02 -0.10202558696E+02  0.29301237384E+02  0.00000000000E+00 0.  1.
         14    1    4    4    0    0 -0.65358123427E+02  0.69726301018E+02 -0.27432357486E+03  0.29049417391E+03  0.00000000000E+00 0. -1.
         -5    1    5    5    0  502  0.51942191511E+02 -0.59548180068E+02  0.21790703842E+02  0.82102994966E+02  0.47000000000E+01 0.  1.
         13    1    6    6    0    0  0.12823562815E+02  0.58570373498E+01 -0.98499051877E+02  0.99502823429E+02  0.00000000000E+00 0. -1.
        -14    1    6    6    0    0 -0.12600020052E+02 -0.89595424575E+01  0.10549370694E+02  0.18716920911E+02  0.00000000000E+00 0.  1.
</event>
<event>
12    1  0.1593360E-001  0.2335371E+03  0.7818608E-02  0.1124266E+00
         21   -1    0    0  501  502  0.00000000000E+00  0.00000000000E+00  0.11129182114E+04  0.11129182114E+04  0.00000000000E+00 0. -1.
         21   -1    0    0  502  503 -0.00000000000E+00 -0.00000000000E+00 -0.16091801010E+03  0.16091801010E+03  0.00000000000E+00 0. -1.
         -6    2    1    2    0  503  0.15767413245E+03 -0.73914854221E+01 -0.55252468453E+02  0.23998421663E+03  0.17211572520E+03 0.  0.
        -24    2    3    3    0    0  0.17634082925E+03  0.24355440900E+02 -0.54290341179E+02  0.20284490337E+03  0.80680469245E+02 0.  0.
          6    2    1    2  501    0 -0.15767413245E+03  0.73914854221E+01  0.10072526698E+04  0.10338520049E+04  0.17139504407E+03 0.  0.
         24    2    5    5    0    0 -0.16059521080E+03  0.40191464622E+02  0.66430307249E+03  0.68929302937E+03  0.80125730251E+02 0.  0.
          5    1    5    5  501    0  0.29210783503E+01 -0.32799979200E+02  0.34294959728E+03  0.34455897551E+03  0.47000000000E+01 0. -1.
        -13    1    6    6    0    0 -0.23996524925E+02  0.29686393245E+02  0.73593805773E+02  0.82904543908E+02  0.00000000000E+00 0.  1.
         14    1    6    6    0    0 -0.13659868587E+03  0.10505071377E+02  0.59070926672E+03  0.60638848546E+03  0.00000000000E+00 0. -1.
         -5    1    3    3    0  503 -0.18666696800E+02 -0.31746926322E+02 -0.96212727427E+00  0.37139313257E+02  0.47000000000E+01 0.  1.
         11    1    4    4    0    0  0.15225997731E+02  0.66354746493E+01 -0.36104399302E+02  0.39741517078E+02  0.00000000000E+00 0. -1.
        -12    1    4    4    0    0  0.16111483152E+03  0.17719966251E+02 -0.18185941877E+02  0.16310338630E+03  0.00000000000E+00 0.  1.
</event>
<event>
12    1  0.1593360E-001  0.1957953E+03  0.7818608E-02  0.1154474E+00
         21   -1    0    0  501  502  0.00000000000E+00  0.00000000000E+00  0.82146439150E+03  0.82146439150E+03  0.00000000000E+00 0. -1.
         21   -1    0    0  502  503 -0.00000000000E+00 -0.00000000000E+00 -0.66678321423E+02  0.66678321423E+02  0.00000000000E+00 0.  1.
         -6    2    1    2    0  503 -0.82941440410E+02 -0.13731698087E+02  0.12335314070E+03  0.22705016668E+03  0.17107875028E+03 0.  0.
        -24    2    3    3    0    0 -0.27105071259E+02 -0.63988445676E+01  0.14359047152E+03  0.16702425211E+03  0.80642713130E+02 0.  0.
          6    2    1    2  501    0  0.82941440410E+02  0.13731698087E+02  0.63143292937E+03  0.66109254624E+03  0.17682751012E+03 0.  0.
         24    2    5    5    0    0  0.11740704276E+03 -0.92835158532E+01  0.56457807651E+03  0.58229382056E+03  0.80293783292E+02 0.  0.
          5    1    5    5  501    0 -0.34465602345E+02  0.23015213940E+02  0.66854852861E+02  0.78798725680E+02  0.47000000000E+01 0. -1.
        -13    1    6    6    0    0  0.10834692367E+02  0.27413198949E+02  0.13440399241E+03  0.13759835468E+03  0.00000000000E+00 0.  1.
         14    1    6    6    0    0  0.10657235039E+03 -0.36696714803E+02  0.43017408410E+03  0.44469546588E+03  0.00000000000E+00 0. -1.
         -5    1    3    3    0  503 -0.55836369151E+02 -0.73328535192E+01 -0.20237330821E+02  0.60025914566E+02  0.47000000000E+01 0.  1.
         11    1    4    4    0    0  0.10120132137E+00  0.28062008519E+02  0.10461921175E+03  0.10831743179E+03  0.00000000000E+00 0. -1.
        -12    1    4    4    0    0 -0.27206272580E+02 -0.34460853087E+02  0.38971259778E+02  0.58706820318E+02  0.00000000000E+00 0.  1.
</event>
<event>
12    1  0.1593360E-001  0.2741188E+03  0.7818608E-02  0.1099056E+00
         21   -1    0    0  501  502  0.00000000000E+00  0.00000000000E+00  0.19046874814E+03  0.19046874814E+03  0.00000000000E+00 0. -1.
         21   -1    0    0  502  503 -0.00000000000E+00 -0.00000000000E+00 -0.44430561959E+03  0.44430561959E+03  0.00000000000E+00 0. -1.
         -6    2    1    2    0  503  0.20308618568E+03  0.67035675632E+02 -0.19617333744E+02  0.27481988461E+03  0.17147404636E+03 0.  0.
        -24    2    3    3    0    0  0.22472382888E+03  0.73215658715E+02 -0.85067044854E+01  0.24928724125E+03  0.78806298494E+02 0.  0.
          6    2    1    2  501    0 -0.20308618568E+03 -0.67035675632E+02 -0.23421953771E+03  0.35995448312E+03  0.17020768916E+03 0.  0.
         24    2    5    5    0    0 -0.22049886328E+03 -0.80580949800E+02 -0.22842383198E+03  0.33666594520E+03  0.77804071004E+02 0.  0.
          5    1    5    5  501    0  0.17412677598E+02  0.13545274168E+02 -0.57957057344E+01  0.23288537919E+02  0.47000000000E+01 0. -1.
        -13    1    6    6    0    0 -0.48993543588E+01 -0.10628937538E+02  0.36571632063E+01  0.12261844438E+02  0.00000000000E+00 0.  1.
         14    1    6    6    0    0 -0.21559950892E+03 -0.69952012262E+02 -0.23208099518E+03  0.32440410076E+03  0.00000000000E+00 0. -1.
         -5    1    3    3    0  503 -0.21637643204E+02 -0.61799830837E+01 -0.11110629259E+02  0.25532643358E+02  0.47000000000E+01 0.  1.
         13    1    4    4    0    0  0.11710137372E+03  0.74911552017E+02  0.12667611877E+02  0.13958846924E+03  0.00000000000E+00 0. -1.
        -14    1    4    4    0    0  0.10762245516E+03 -0.16958933019E+01 -0.21174316363E+02  0.10969877202E+03  0.00000000000E+00 0.  1.
</event>
<event>
12    1  0.1593360E-001  0.1863537E+03  0.7818608E-02  0.1162273E+00
         21   -1    0    0  501  502  0.00000000000E+00  0.00000000000E+00  0.80841254564E+03  0.80841254564E+03  0.00000000000E+00 0.  1.
         21   -1    0    0  502  503 -0.00000000000E+00 -0.00000000000E+00 -0.10626793806E+03  0.10626793806E+03  0.00000000000E+00 0. -1.
         -6    2    1    2    0  503  0.66600085049E+02  0.10874849644E+02 -0.24649916730E+01  0.18636996318E+03  0.17370622703E+03 0.  0.
        -24    2    3    3    0    0  0.42395369466E+02  0.51420930111E+02  0.48841624084E+02  0.11648211217E+03  0.82104194823E+02 0.  0.
          6    2    1    2  501    0 -0.66600085049E+02 -0.10874849644E+02  0.70460959926E+03  0.72831052052E+03  0.17148671452E+03 0.  0.
         24    2    5    5    0    0 -0.30271642739E+02 -0.69600144187E+02  0.48973987367E+03  0.50256840015E+03  0.83482336665E+02 0.  0.
          5    1    5    5  501    0 -0.36328442310E+02  0.58725294542E+02  0.21486972558E+03  0.22574212038E+03  0.47000000000E+01 0. -1.
        -11    1    6    6    0    0 -0.15005966137E+02 -0.17572357508E+02  0.37447618356E+03  0.37518845774E+03  0.00000000000E+00 0.  1.
         12    1    6    6    0    0 -0.15265676602E+02 -0.52027786679E+02  0.11526369012E+03  0.12737994241E+03  0.00000000000E+00 0. -1.
         -5    1    3    3    0  503  0.24204715583E+02 -0.40546080467E+02 -0.51306615757E+02  0.69887851005E+02  0.47000000000E+01 0.  1.
         11    1    4    4    0    0 -0.20501638076E+01  0.10361699657E+02 -0.21343945973E+02  0.23814533821E+02  0.00000000000E+00 0. -1.
        -12    1    4    4    0    0  0.44445533274E+02  0.41059230454E+02  0.70185570057E+02  0.92667578352E+02  0.00000000000E+00 0.  1.
</event>
<event>
12    1  0.1593360E-001  0.1956202E+03  0.7818608E-02  0.1153690E+00
         21   -1    0    0  501  502  0.00000000000E+00  0.00000000000E+00  0.27976503947E+03  0.27976503947E+03  0.00000000000E+00 0.  1.
         21   -1    0    0  502  503 -0.00000000000E+00 -0.00000000000E+00 -0.26266338481E+03  0.26266338481E+03  0.00000000000E+00 0.  1.
         -6    2    1    2    0  503 -0.41492183200E+02 -0.82954129498E+02 -0.17969693162E+03  0.26494516259E+03  0.17117816181E+03 0.  0.
        -24    2    3    3    0    0 -0.24223660856E+02 -0.12249967819E+03 -0.11748885527E+03  0.18909012289E+03  0.79740118900E+02 0.  0.
          6    2    1    2  501    0  0.41492183200E+02  0.82954129498E+02  0.19679858628E+03  0.27748326169E+03  0.17223323747E+03 0.  0.
         24    2    5    5    0    0  0.40884295324E+02 -0.15189772470E+02  0.60477443399E+02  0.10944118655E+03  0.80109908010E+02 0.  0.
          5    1    5    5  501    0  0.60788787594E+00  0.98143901969E+02  0.13632114288E+03  0.16804207514E+03  0.47000000000E+01 0. -1.
        -11    1    6    6    0    0  0.86795302005E+01  0.82107314568E+01  0.67902797774E+02  0.68945923020E+02  0.00000000000E+00 0.  1.
         12    1    6    6    0    0  0.32204765124E+02 -0.23400503927E+02 -0.74253543749E+01  0.40495263529E+02  0.00000000000E+00 0. -1.
         -5    1    3    3    0  503 -0.17268522345E+02  0.39545548688E+02 -0.62208076352E+02  0.75855039704E+02  0.47000000000E+01 0.  1.
         11    1    4    4    0    0 -0.45167750756E+02 -0.34729144401E+02 -0.35227568430E+02  0.66986720749E+02  0.00000000000E+00 0. -1.
        -12    1    4    4    0    0  0.20944089901E+02 -0.87770533785E+02 -0.82261286836E+02  0.12210340214E+03  0.00000000000E+00 0.  1.
</event>
<event>
12    1  0.1593360E-001  0.1766232E+03  0.7818608E-02  0.1171424E+00
         21   -1    0    0  501  502  0.00000000000E+00  0.00000000000E+00  0.36973341778E+03  0.36973341778E+03  0.00000000000E+00 0. -1.
         21   -1    0    0  502  503 -0.00000000000E+00 -0.00000000000E+00 -0.10308607918E+03  0.10308607918E+03  0.00000000000E+00 0. -1.
         -6    2    1    2    0  503  0.31799510022E+02 -0.41594891937E+01  0.30616611183E+02  0.17802084101E+03  0.17241094154E+03 0.  0.
        -24    2    3    3    0    0 -0.94987951487E+01  0.34726039682E+01 -0.44722034011E+02  0.91639128151E+02  0.79343452122E+02 0.  0.
          6    2    1    2  501    0 -0.31799510022E+02  0.41594891937E+01  0.23603072741E+03  0.29479865595E+03  0.17368717016E+03 0.  0.
         24    2    5    5    0    0 -0.37690402497E+02 -0.60916281814E+02  0.17593669555E+03  0.20590016748E+03  0.79434238829E+02 0.  0.
          5    1    5    5  501    0  0.58908924753E+01  0.65075771007E+02  0.60094031868E+02  0.88898488472E+02  0.47000000000E+01 0. -1.
        -13    1    6    6    0    0 -0.34150462638E+02 -0.36933131637E+02  0.31298758061E+02  0.59244599476E+02  0.00000000000E+00 0.  1.
         14    1    6    6    0    0 -0.35399398590E+01 -0.23983150176E+02  0.14463793749E+03  0.14665556800E+03  0.00000000000E+00 0. -1.
         -5    1    3    3    0  503  0.41298305170E+02 -0.76320931619E+01  0.75338645194E+02  0.86381712854E+02  0.47000000000E+01 0.  1.
         13    1    4    4    0    0 -0.42930321118E+02  0.26294402626E+01 -0.11548171413E+02  0.44534107046E+02  0.00000000000E+00 0. -1.
        -14    1    4    4    0    0  0.33431525969E+02  0.84316370562E+00 -0.33173862598E+02  0.47105021105E+02  0.00000000000E+00 0.  1.
</event>
<event>
12    1  0.1593360E-001  0.1871318E+03  0.7818608E-02  0.1161395E+00
         21   -1    0    0  501  502  0.00000000000E+00  0.00000000000E+00  0.10279415403E+04  0.10279415403E+04  0.00000000000E+00 0. -1.
         21   -1    0    0  502  503 -0.00000000000E+00 -0.00000000000E+00 -0.34351628629E+02  0.34351628629E+02  0.00000000000E+00 0.  1.
         -6    2    1    2    0  503  0.49327083657E+02  0.50740371190E+02  0.56142448478E+03  0.59135232526E+03  0.17173343890E+03 0.  0.
        -24    2    3    3    0    0  0.45931202764E+02  0.44533244188E+02  0.56998674829E+03  0.57929152972E+03  0.81245910367E+02 0.  0.
          6    2    1    2  501    0 -0.49327083657E+02 -0.50740371190E+02  0.43216542692E+03  0.47094084370E+03  0.17323560714E+03 0.  0.
         24    2    5    5    0    0 -0.51968130302E+02 -0.91537941708E+02  0.23881275017E+03  0.27325734794E+03  0.80982511809E+02 0.  0.
          5    1    5    5  501    0  0.26410466450E+01  0.40797570519E+02  0.19335267675E+03  0.19768349576E+03  0.47000000000E+01 0. -1.
        -13    1    6    6    0    0 -0.30395415624E+02 -0.38766197766E+02  0.32028910549E+02  0.58758407834E+02  0.00000000000E+00 0.  1.
         14    1    6    6    0    0 -0.21572714678E+02 -0.52771743942E+02  0.20678383962E+03  0.21449894010E+03  0.00000000000E+00 0. -1.
         -5    1    3    3    0  503  0.33958808933E+01  0.62071270015E+01 -0.85622635143E+01  0.12060795544E+02  0.47000000000E+01 0.  1.
         11    1    4    4    0    0 -0.14869294779E+02  0.37076063009E+02  0.28577710367E+03  0.28855551175E+03  0.00000000000E+00 0. -1.
        -12    1    4    4    0    0  0.60800497543E+02  0.74571811790E+01  0.28420964462E+03  0.29073601798E+03  0.00000000000E+00 0.  1.
</event>
<event>
12    1  0.1593360E-001  0.2006832E+03  0.7818608E-02  0.1149189E+00
         21   -1    0    0  501  502  0.00000000000E+00  0.00000000000E+00  0.49891739661E+03  0.49891739661E+03  0.00000000000E+00 0.  1.
         21   -1    0    0  502  503 -0.00000000000E+00 -0.00000000000E+00 -0.83476733181E+02  0.83476733181E+02  0.00000000000E+00 0. -1.
         -6    2    1    2    0  503 -0.96623915015E+02 -0.36778955509E+02  0.26113683260E+03  0.32934206445E+03  0.17200255101E+03 0.  0.
        -24    2    3    3    0    0 -0.10971612375E+03 -0.60444748689E+02  0.13659892653E+03  0.20181459390E+03  0.79866564521E+02 0.  0.
          6    2    1    2  501    0  0.96623915015E+02  0.36778955509E+02  0.15430383083E+03  0.25305206534E+03  0.17186274478E+03 0.  0.
         24    2    5    5    0    0 -0.14348863949E+02 -0.61848812488E+01  0.80943497215E+02  0.11317827406E+03  0.77545659611E+02 0.  0.
          5    1    5    5  501    0  0.11097277896E+03  0.42963836758E+02  0.73360333617E+02  0.13987379128E+03  0.47000000000E+01 0. -1.
        -11    1    6    6    0    0 -0.38122878250E+01  0.26320012987E+02  0.73559714274E+02  0.78219615099E+02  0.00000000000E+00 0.  1.
         12    1    6    6    0    0 -0.10536576124E+02 -0.32504894235E+02  0.73837829405E+01  0.34958658958E+02  0.00000000000E+00 0. -1.
         -5    1    3    3    0  503  0.13092208732E+02  0.23665793180E+02  0.12453790607E+03  0.12752747055E+03  0.47000000000E+01 0.  1.
         11    1    4    4    0    0 -0.19246047521E+02 -0.44055415538E+02  0.17073759402E+02  0.51017675795E+02  0.00000000000E+00 0. -1.
        -12    1    4    4    0    0 -0.90470076226E+02 -0.16389333151E+02  0.11952516713E+03  0.15079691811E+03  0.00000000000E+00 0.  1.
</event>
<event>
12    1  0.1593360E-001  0.2166993E+03  0.7818608E-02  0.1136834E+00
         21   -1    0    0  501  502  0.00000000000E+00  0.00000000000E+00  0.22782706229E+03  0.22782706229E+03  0.00000000000E+00 0.  1.
         21   -1    0    0  502  503 -0.00000000000E+00 -0.00000000000E+00 -0.20963774458E+03  0.20963774458E+03  0.00000000000E+00 0. -1.
         -6    2    1    2    0  503  0.11638228711E+03 -0.58886123451E+02 -0.27438772964E+02  0.21601384863E+03  0.16999024751E+03 0.  0.
        -24    2    3    3    0    0  0.28153587083E+02 -0.60072402805E+02  0.32991891068E+02  0.10896401947E+03  0.79896023792E+02 0.  0.
          6    2    1    2  501    0 -0.11638228711E+03  0.58886123451E+02  0.45628090678E+02  0.22145095824E+03  0.17304968061E+03 0.  0.
         24    2    5    5    0    0 -0.15274411017E+03  0.44997743487E+02  0.37122634362E+02  0.18133235830E+03  0.78407742418E+02 0.  0.
          5    1    5    5  501    0  0.36361823063E+02  0.13888379963E+02  0.85054563153E+01  0.40118599946E+02  0.47000000000E+01 0. -1.
        -13    1    6    6    0    0 -0.51824049101E+02 -0.16699099852E+02 -0.73936818846E+01  0.54947780054E+02  0.00000000000E+00 0.  1.
         14    1    6    6    0    0 -0.10092006107E+03  0.61696843339E+02  0.44516316247E+02  0.12638457824E+03  0.00000000000E+00 0. -1.
         -5    1    3    3    0  503  0.88228700029E+02  0.11862793549E+01 -0.60430664032E+02  0.10704982916E+03  0.47000000000E+01 0.  1.
         11    1    4    4    0    0  0.42443588554E+02 -0.56395651155E+02  0.49961930482E+02  0.86476136454E+02  0.00000000000E+00 0. -1.
        -12    1    4    4    0    0 -0.14290001471E+02 -0.36767516509E+01 -0.16970039414E+02  0.22487883014E+02  0.00000000000E+00 0.  1.
</event>
<event>
12    1  0.1593360E-001  0.1882206E+03  0.7818608E-02  0.1160131E+00
         21   -1    0    0  501  502  0.00000000000E+00  0.00000000000E+00  0.23624479778E+04  0.23624479778E+04  0.00000000000E+00 0.  1.
         21   -1    0    0  502  503 -0.00000000000E+00 -0.00000000000E+00 -0.54309586053E+02  0.54309586053E+02  0.00000000000E+00 0.  1.
         -6    2    1    2    0  503  0.52049658797E+02  0.54942103806E+02  0.12591891026E+03  0.22645652651E+03  0.17233451391E+03 0.  0.
        -24    2    3    3    0    0  0.78922679673E+02 -0.11757775714E+02  0.55679965184E+02  0.12582535547E+03  0.79779238529E+02 0.  0.
          6    2    1    2  501    0 -0.52049658797E+02 -0.54942103806E+02  0.21822194815E+04  0.21903010374E+04  0.17207256334E+03 0.  0.
         24    2    5    5    0    0 -0.48618659455E+02  0.24985718119E+02  0.15338534068E+04  0.15370010410E+04  0.81718212117E+02 0.  0.
          5    1    5    5  501    0 -0.34309993425E+01 -0.79927821924E+02  0.64836607468E+03  0.65329999638E+03  0.47000000000E+01 0. -1.
        -11    1    6    6    0    0 -0.43837352467E+02 -0.22710996922E+02  0.88779396285E+03  0.88916568947E+03  0.00000000000E+00 0.  1.
         12    1    6    6    0    0 -0.47813069877E+01  0.47696715041E+02  0.64605944400E+03  0.64783535154E+03  0.00000000000E+00 0. -1.
         -5    1    3    3    0  503 -0.26873020876E+02  0.66699879520E+02  0.70238945077E+02  0.10063117104E+03  0.47000000000E+01 0.  1.
         11    1    4    4    0    0  0.75124359436E+02  0.74407267559E+01  0.68900924995E+02  0.10220749122E+03  0.00000000000E+00 0. -1.
        -12    1    4    4    0    0  0.37983202368E+01 -0.19198502470E+02 -0.13220959811E+02  0.23617864257E+02  0.00000000000E+00 0.  1.
</event>
<event>
12    1  0.1593360E-001  0.1715610E+03  0.7818608E-02  0.1176757E+00
         21   -1    0    0  503  502  0.00000000000E+00  0.00000000000E+00  0.14573058665E+03  0.14573058665E+03  0.00000000000E+00 0. -1.
         21   -1    0    0  501  503 -0.00000000000E+00 -0.00000000000E+00 -0.20251685306E+03  0.20251685306E+03  0.00000000000E+00 0. -1.
          6    2    1    2  501    0 -0.13722801803E+02 -0.78719242843E+01 -0.49526174333E+02  0.17856653810E+03  0.17082998596E+03 0.  0.
         24    2    3    3    0    0 -0.64423966594E+02 -0.27130361077E+02 -0.20829858205E+01  0.10635544730E+03  0.80128886029E+02 0.  0.
         -6    2    1    2    0  502  0.13722801803E+02  0.78719242843E+01 -0.72600920769E+01  0.16968090161E+03  0.16878571312E+03 0.  0.
        -24    2    5    5    0    0 -0.48553572008E+02  0.21447537167E+02 -0.36129656142E+02  0.99551123841E+02  0.76076461536E+02 0.  0.
          5    1    3    3  501    0  0.50701164791E+02  0.19258436792E+02 -0.47443188512E+02  0.72211090804E+02  0.47000000000E+01 0. -1.
        -13    1    4    4    0    0 -0.76348778341E+02 -0.47702860849E+01  0.11891716578E+02  0.77416435636E+02  0.00000000000E+00 0.  1.
         14    1    4    4    0    0  0.11924811747E+02 -0.22360074992E+02 -0.13974702398E+02  0.28939011662E+02  0.00000000000E+00 0. -1.
         -5    1    5    5    0  502  0.62276373811E+02 -0.13575612883E+02  0.28869564065E+02  0.70129777766E+02  0.47000000000E+01 0.  1.
         11    1    6    6    0    0 -0.40047566821E+02  0.38985615751E+02  0.28574358831E+01  0.55962941162E+02  0.00000000000E+00 0. -1.
        -12    1    6    6    0    0 -0.85060051874E+01 -0.17538078583E+02 -0.38987092025E+02  0.43588182679E+02  0.00000000000E+00 0.  1.
</event>
<event>
12    1  0.1593360E-001  0.1933615E+03  0.7818608E-02  0.1158503E+00
         21   -1    0    0  501  502  0.00000000000E+00  0.00000000000E+00  0.16052315774E+03  0.16052315774E+03  0.00000000000E+00 0. -1.
         21   -1    0    0  502  503 -0.00000000000E+00 -0.00000000000E+00 -0.30292120561E+03  0.30292120561E+03  0.00000000000E+00 0.  1.
         -6    2    1    2    0  503 -0.78497755024E+02  0.33958840555E+02 -0.19259419046E+03  0.26367369428E+03  0.15848089619E+03 0.  0.
        -24    2    3    3    0    0 -0.11255652531E+02  0.49967875061E+02 -0.57599959181E+02  0.11193931448E+03  0.81173743142E+02 0.  0.
          6    2    1    2  501    0  0.78497755024E+02 -0.33958840555E+02  0.50196142602E+02  0.19977066907E+03  0.17341732063E+03 0.  0.
         24    2    5    5    0    0  0.46061069227E+02 -0.72420906576E+01 -0.39502412669E+02  0.10060492837E+03  0.79917714126E+02 0.  0.
          5    1    5    5  501    0  0.32436685798E+02 -0.26716749897E+02  0.89698555271E+02  0.99165740699E+02  0.47000000000E+01 0. -1.
        -13    1    6    6    0    0  0.57397328122E+02  0.18786634046E+02 -0.39592308798E+02  0.72214554006E+02  0.00000000000E+00 0.  1.
         14    1    6    6    0    0 -0.11336258896E+02 -0.26028724704E+02  0.89896128941E-01  0.28390374368E+02  0.00000000000E+00 0. -1.
         -5    1    3    3    0  503 -0.67242102493E+02 -0.16009034506E+02 -0.13499423128E+03  0.15173437980E+03  0.47000000000E+01 0.  1.
         11    1    4    4    0    0 -0.57796966344E+01 -0.21238701732E+02 -0.33728000832E+01  0.22267984301E+02  0.00000000000E+00 0. -1.
        -12    1    4    4    0    0 -0.54759558970E+01  0.71206576793E+02 -0.54227159098E+02  0.89671330175E+02  0.00000000000E+00 0.  1.
</event>
<event>
12    1  0.1593360E-001  0.2204576E+03  0.7818608E-02  0.1133568E+00
         21   -1    0    0  503  502  0.00000000000E+00  0.00000000000E+00  0.36205546691E+03  0.36205546691E+03  0.00000000000E+00 0.  1.
         21   -1    0    0  501  503 -0.00000000000E+00 -0.00000000000E+00 -0.13436249552E+03  0.13436249552E+03  0.00000000000E+00 0.  1.
          6    2    1    2  501    0 -0.27509717655E+02 -0.13552105938E+03  0.10411248122E+03  0.24380520125E+03  0.17169398740E+03 0.  0.
         24    2    3    3    0    0  0.18618353222E+01 -0.12701299457E+03  0.17127920906E+02  0.15148251160E+03  0.80733007033E+02 0.  0.
         -6    2    1    2    0  502  0.27509717655E+02  0.13552105938E+03  0.12358049017E+03  0.25261276118E+03  0.17151771764E+03 0.  0.
        -24    2    5    5    0    0 -0.18917257009E+02  0.13174388554E+03  0.50021201083E+02  0.16541878187E+03  0.84539569709E+02 0.  0.
          5    1    3    3  501    0 -0.29371552977E+02 -0.85080648064E+01  0.86984560318E+02  0.92322689653E+02  0.47000000000E+01 0. -1.
        -11    1    4    4    0    0  0.11477203242E+02 -0.63091211540E+02  0.47753285266E+02  0.79953758020E+02  0.00000000000E+00 0.  1.
         12    1    4    4    0    0 -0.96153679202E+01 -0.63921783031E+02 -0.30625364360E+02  0.71528753577E+02  0.00000000000E+00 0. -1.
         -5    1    5    5    0  502  0.46426974664E+02  0.37771738369E+01  0.73559289085E+02  0.87193979318E+02  0.47000000000E+01 0.  1.
         11    1    6    6    0    0 -0.38282277728E+02  0.18048626759E+02  0.12314240985E+02  0.44078637081E+02  0.00000000000E+00 0. -1.
        -12    1    6    6    0    0  0.19365020718E+02  0.11369525878E+03  0.37706960099E+02  0.12134014479E+03  0.00000000000E+00 0.  1.
</event>
<event>
12    1  0.1593360E-001  0.2053005E+03  0.7818608E-02  0.1146677E+00
         21   -1    0    0  501  502  0.00000000000E+00  0.00000000000E+00  0.23472592577E+03  0.23472592577E+03  0.00000000000E+00 0. -1.
         21   -1    0    0  502  503 -0.00000000000E+00 -0.00000000000E+00 -0.26125457802E+03  0.26125457802E+03  0.00000000000E+00 0.  1.
         -6    2    1    2    0  503 -0.10386031038E+03  0.36812638425E+02 -0.15672736633E+03  0.25828617561E+03  0.17322282394E+03 0.  0.
        -24    2    3    3    0    0 -0.12076478658E+03  0.70545059391E+02 -0.11606151268E+03  0.20261356841E+03  0.89561399579E+02 0.  0.
          6    2    1    2  501    0  0.10386031038E+03 -0.36812638425E+02  0.13019871407E+03  0.23769432818E+03  0.16554381318E+03 0.  0.
         24    2    5    5    0    0  0.29634232546E+02 -0.66073024568E+02  0.11382258795E+03  0.15611033260E+03  0.78555853394E+02 0.  0.
          5    1    5    5  501    0  0.74226077837E+02  0.29260386143E+02  0.16376126126E+02  0.81583995582E+02  0.47000000000E+01 0. -1.
        -11    1    6    6    0    0  0.33966053733E+02 -0.45916497657E+02  0.20726298783E+02  0.60758514009E+02  0.00000000000E+00 0.  1.
         12    1    6    6    0    0 -0.43318211876E+01 -0.20156526911E+02  0.93096289165E+02  0.95351818589E+02  0.00000000000E+00 0. -1.
         -5    1    3    3    0  503  0.16904476198E+02 -0.33732420967E+02 -0.40665853647E+02  0.55672607202E+02  0.47000000000E+01 0.  1.
         11    1    4    4    0    0 -0.95151344553E+02  0.21276886673E+02 -0.33460296076E+02  0.10308285837E+03  0.00000000000E+00 0. -1.
        -12    1    4    4    0    0 -0.25613442028E+02  0.49268172718E+02 -0.82601216604E+02  0.99530710034E+02  0.00000000000E+00 0.  1.
</event>
<event>
12    1  0.1593360E-001  0.1961036E+03  0.7818608E-02  0.1153471E+00
         21   -1    0    0  501  502  0.00000000000E+00  0.00000000000E+00  0.38071432181E+03  0.38071432181E+03  0.00000000000E+00 0.  1.
         21   -1    0    0  502  503 -0.00000000000E+00 -0.00000000000E+00 -0.11449277612E+03  0.11449277612E+03  0.00000000000E+00 0.  1.
         -6    2    1    2    0  503  0.85199422685E+02  0.30357773144E+02  0.44655148778E+02  0.19932149686E+03  0.17191405056E+03 0.  0.
        -24    2    3    3    0    0  0.40294052156E+02  0.34384459619E+02  0.92586856568E+02  0.13334994907E+03  0.80024878659E+02 0.  0.
          6    2    1    2  501    0 -0.85199422685E+02 -0.30357773144E+02  0.22156639691E+03  0.29588560107E+03  0.17400024330E+03 0.  0.
         24    2    5    5    0    0 -0.10760612576E+03 -0.25705492692E+02  0.93340182245E+02  0.16554851432E+03  0.80337228703E+02 0.  0.
          5    1    5    5  501    0  0.22406703078E+02 -0.46522804517E+01  0.12822621467E+03  0.13033708675E+03  0.47000000000E+01 0. -1.
        -13    1    6    6    0    0 -0.75341385779E+02 -0.47264543147E+02  0.90109457217E+02  0.12660954044E+03  0.00000000000E+00 0.  1.
         14    1    6    6    0    0 -0.32264739984E+02  0.21559050455E+02  0.32307250275E+01  0.38938973882E+02  0.00000000000E+00 0. -1.
         -5    1    3    3    0  503  0.44905370529E+02 -0.40266864746E+01 -0.47931707790E+02  0.65971547791E+02  0.47000000000E+01 0.  1.
         13    1    4    4    0    0  0.36008050555E+02 -0.15925919320E+02  0.18031063495E+02  0.43305125120E+02  0.00000000000E+00 0. -1.
        -14    1    4    4    0    0  0.42860016006E+01  0.50310378938E+02  0.74555793073E+02  0.90044823945E+02  0.00000000000E+00 0.  1.
</event>
<event>
12    1  0.1593360E-001  0.1903765E+03  0.7818608E-02  0.1158390E+00
         21   -1    0    0  501  502  0.00000000000E+00  0.00000000000E+00  0.14390678770E+03  0.14390678770E+03  0.00000000000E+00 0.  1.
         21   -1    0    0  502  503 -0.00000000000E+00 -0.00000000000E+00 -0.27187507804E+03  0.27187507804E+03  0.00000000000E+00 0.  1.
         -6    2    1    2    0  503 -0.73251708914E+02 -0.34680892560E+02 -0.12238248936E+03  0.22532341503E+03  0.17095201224E+03 0.  0.
        -24    2    3    3    0    0 -0.81874378478E+02 -0.50714934833E+02 -0.54033169201E+02  0.15443504850E+03  0.10795916990E+03 0.  0.
          6    2    1    2  501    0  0.73251708914E+02  0.34680892560E+02 -0.55858009793E+01  0.19045845072E+03  0.17226329589E+03 0.  0.
         24    2    5    5    0    0  0.26230869730E+02 -0.11310366039E+02  0.62509163723E+02  0.95668317251E+02  0.66551096683E+02 0.  0.
          5    1    5    5  501    0  0.47020839184E+02  0.45991258599E+02 -0.68094964702E+02  0.94790133468E+02  0.47000000000E+01 0. -1.
        -11    1    6    6    0    0  0.16737381848E+02 -0.97128361454E+01 -0.10507231832E+02  0.22020014938E+02  0.00000000000E+00 0.  1.
         12    1    6    6    0    0  0.94934878820E+01 -0.15975298938E+01  0.73016395554E+02  0.73648302313E+02  0.00000000000E+00 0. -1.
         -5    1    3    3    0  503  0.86226695644E+01  0.16034042273E+02 -0.68349320163E+02  0.70888366526E+02  0.47000000000E+01 0.  1.
         13    1    4    4    0    0 -0.45439601609E+02 -0.47329037419E+02 -0.84387013942E+02  0.10689229766E+03  0.00000000000E+00 0. -1.
        -14    1    4    4    0    0 -0.36434776870E+02 -0.33858974140E+01  0.30353844741E+02  0.47542750840E+02  0.00000000000E+00 0.  1.
</event>
<event>
12    1  0.1593360E-001  0.2710091E+03  0.7818608E-02  0.1100767E+00
         21   -1    0    0  501  502  0.00000000000E+00  0.00000000000E+00  0.16705299352E+03  0.16705299352E+03  0.00000000000E+00 0. -1.
         21   -1    0    0  502  503 -0.00000000000E+00 -0.00000000000E+00 -0.65853728476E+03  0.65853728476E+03  0.00000000000E+00 0. -1.
         -6    2    1    2    0  503  0.59201694259E+02  0.20164435660E+03 -0.48425675709E+03  0.55493289204E+03  0.17111581087E+03 0.  0.
        -24    2    3    3    0    0  0.81503791715E+02  0.68392120912E+02 -0.27901696411E+03  0.30917080284E+03  0.80098494373E+02 0.  0.
          6    2    1    2  501    0 -0.59201694259E+02 -0.20164435660E+03 -0.72275341416E+01  0.27065738624E+03  0.17040509477E+03 0.  0.
         24    2    5    5    0    0  0.26732271900E+02 -0.13794418614E+03 -0.20109429284E+02  0.16281309348E+03  0.79752751765E+02 0.  0.
          5    1    5    5  501    0 -0.85933966160E+02 -0.63700170460E+02  0.12881895142E+02  0.10784429275E+03  0.47000000000E+01 0. -1.
        -13    1    6    6    0    0  0.39521976682E+02 -0.22651863608E+02 -0.66247616633E+01  0.46032391127E+02  0.00000000000E+00 0.  1.
         14    1    6    6    0    0 -0.12789704781E+02 -0.11529232253E+03 -0.13484667620E+02  0.11678070236E+03  0.00000000000E+00 0. -1.
         -5    1    3    3    0  503 -0.22302097456E+02  0.13325223569E+03 -0.20523979298E+03  0.24576208920E+03  0.47000000000E+01 0.  1.
         11    1    4    4    0    0 -0.14145031933E+01  0.47036435446E+02 -0.11200503333E+03  0.12148890719E+03  0.00000000000E+00 0. -1.
        -12    1    4    4    0    0  0.82918294908E+02  0.21355685465E+02 -0.16701193078E+03  0.18768189565E+03  0.00000000000E+00 0.  1.
</event>
<event>
12    1  0.1593360E-001  0.1726724E+03  0.7818608E-02  0.1175107E+00
         21   -1    0    0  501  502  0.00000000000E+00  0.00000000000E+00  0.75758713922E+03  0.75758713922E+03  0.00000000000E+00 0.  1.
         21   -1    0    0  502  503 -0.00000000000E+00 -0.00000000000E+00 -0.39362780381E+02  0.39362780381E+02  0.00000000000E+00 0.  1.
         -6    2    1    2    0  503 -0.13444384017E+01  0.19107441646E+02  0.34959119352E+03  0.38987968439E+03  0.17153793711E+03 0.  0.
        -24    2    3    3    0    0 -0.13915979144E+02  0.27345431435E+02  0.36064801123E+03  0.37063776842E+03  0.79774308385E+02 0.  0.
          6    2    1    2  501    0  0.13444384017E+01 -0.19107441646E+02  0.36863316532E+03  0.40707023522E+03  0.17160671312E+03 0.  0.
         24    2    5    5    0    0  0.23020522754E+02 -0.44743881738E+02  0.10668488812E+03  0.14293756094E+03  0.80731168414E+02 0.  0.
          5    1    5    5  501    0 -0.21676084353E+02  0.25636440092E+02  0.26194827720E+03  0.26413267428E+03  0.47000000000E+01 0. -1.
        -13    1    6    6    0    0  0.13936807794E+02 -0.66789846393E+02  0.93325375412E+02  0.11560598552E+03  0.00000000000E+00 0.  1.
         14    1    6    6    0    0  0.90837149603E+01  0.22045964655E+02  0.13359512706E+02  0.27331575417E+02  0.00000000000E+00 0. -1.
         -5    1    3    3    0  503  0.12571540742E+02 -0.82379897889E+01 -0.11056817705E+02  0.19241915969E+02  0.47000000000E+01 0.  1.
         11    1    4    4    0    0  0.32507821199E+02  0.96483834771E+01  0.10979291392E+03  0.11491011135E+03  0.00000000000E+00 0. -1.
        -12    1    4    4    0    0 -0.46423800343E+02  0.17697047958E+02  0.25085509731E+03  0.25572765707E+03  0.00000000000E+00 0.  1.
</event>
<event>
12    1  0.1593360E-001  0.1948708E+03  0.7818608E-02  0.1154212E+00
         21   -1    0    0  501  502  0.00000000000E+00  0.00000000000E+00  0.63993501328E+03  0.63993501328E+03  0.00000000000E+00 0.  1.
         21   -1    0    0  502  503 -0.00000000000E+00 -0.00000000000E+00 -0.74317549073E+02  0.74317549073E+02  0.00000000000E+00 0.  1.
         -6    2    1    2    0  503 -0.70625071263E+02 -0.55016799930E+02  0.12176230549E+03  0.22950309153E+03  0.17271612842E+03 0.  0.
        -24    2    3    3    0    0 -0.61933602177E+02 -0.62155179824E+02  0.15185144663E+03  0.19703857988E+03  0.89812597447E+02 0.  0.
          6    2    1    2  501    0  0.70625071263E+02  0.55016799930E+02  0.44385515872E+03  0.48474947083E+03  0.17308927922E+03 0.  0.
         24    2    5    5    0    0  0.43234911024E+02  0.31463301698E+01  0.40206881066E+03  0.41257637754E+03  0.81736050000E+02 0.  0.
          5    1    5    5  501    0  0.27390160239E+02  0.51870469761E+02  0.41786348057E+02  0.72173093290E+02  0.47000000000E+01 0. -1.
        -11    1    6    6    0    0  0.19490258431E+02 -0.39190026609E+02  0.20457765898E+03  0.20920742557E+03  0.00000000000E+00 0.  1.
         12    1    6    6    0    0  0.23744652593E+02  0.42336356779E+02  0.19749115168E+03  0.20336895197E+03  0.00000000000E+00 0. -1.
         -5    1    3    3    0  503 -0.86914690864E+01  0.71383798937E+01 -0.30089141136E+02  0.32464511650E+02  0.47000000000E+01 0.  1.
         13    1    4    4    0    0  0.13712520078E+02 -0.47730308465E+01  0.70580696295E+02  0.72058654719E+02  0.00000000000E+00 0. -1.
        -14    1    4    4    0    0 -0.75646122254E+02 -0.57382148978E+02  0.81270750332E+02  0.12497992516E+03  0.00000000000E+00 0.  1.
</event>
<event>
12    1  0.1593360E-001  0.2012796E+03  0.7818608E-02  0.1149561E+00
         21   -1    0    0  501  502  0.00000000000E+00  0.00000000000E+00  0.45027819917E+03  0.45027819917E+03  0.00000000000E+00 0. -1.
         21   -1    0    0  502  503 -0.00000000000E+00 -0.00000000000E+00 -0.11186618143E+03  0.11186618143E+03  0.00000000000E+00 0.  1.
         -6    2    1    2    0  503  0.10426367131E+03 -0.95516960964E+01  0.38208976306E+02  0.20070927522E+03  0.16691955917E+03 0.  0.
        -24    2    3    3    0    0  0.13312632315E+03  0.89114689891E+01  0.50923861825E+02  0.16386230180E+03  0.80346636839E+02 0.  0.
          6    2    1    2  501    0 -0.10426367131E+03  0.95516960964E+01  0.30020304143E+03  0.36143510538E+03  0.17190497743E+03 0.  0.
         24    2    5    5    0    0 -0.53143439157E+02  0.31437481215E+01  0.29362203014E+03  0.30928398227E+03  0.81293153635E+02 0.  0.
          5    1    5    5  501    0 -0.51120232152E+02  0.64079479750E+01  0.65810112961E+01  0.52151123115E+02  0.47000000000E+01 0. -1.
        -13    1    6    6    0    0 -0.12591285352E+02 -0.35997000640E+02  0.15544823864E+03  0.16005773777E+03  0.00000000000E+00 0.  1.
         14    1    6    6    0    0 -0.40552153805E+02  0.39140748762E+02  0.13817379149E+03  0.14922624450E+03  0.00000000000E+00 0. -1.
         -5    1    3    3    0  503 -0.28862651843E+02 -0.18463165086E+02 -0.12714885519E+02  0.36846973419E+02  0.47000000000E+01 0.  1.
         13    1    4    4    0    0  0.18638080132E+02  0.33781325307E+02  0.13353774443E+02  0.40827432718E+02  0.00000000000E+00 0. -1.
        -14    1    4    4    0    0  0.11448824302E+03 -0.24869856318E+02  0.37570087383E+02  0.12303486908E+03  0.00000000000E+00 0.  1.
</event>
<event>
12    1  0.1593360E-001  0.1804913E+03  0.7818608E-02  0.1167639E+00
         21   -1    0    0  501  502  0.00000000000E+00  0.00000000000E+00  0.20326398160E+04  0.20326398160E+04  0.00000000000E+00 0. -1.
         21   -1    0    0  502  503 -0.00000000000E+00 -0.00000000000E+00 -0.79768723097E+02  0.79768723097E+02  0.00000000000E+00 0.  1.
         -6    2    1    2    0  503  0.47133670547E+02 -0.14138162452E+02  0.30744887594E+02  0.18182669371E+03  0.17232013201E+03 0.  0.
        -24    2    3    3    0    0  0.61683278952E+02  0.12638484585E+02  0.76727671821E+02  0.12646256835E+03  0.78365090294E+02 0.  0.
          6    2    1    2  501    0 -0.47133670547E+02  0.14138162452E+02  0.19221262053E+04  0.19305818454E+04  0.17365379944E+03 0.  0.
         24    2    5    5    0    0 -0.38531584471E+02  0.71111217838E+02  0.15246983819E+04  0.15289714748E+04  0.80666763578E+02 0.  0.
          5    1    5    5  501    0 -0.86020860755E+01 -0.56973055386E+02  0.39742782343E+03  0.40161037059E+03  0.47000000000E+01 0. -1.
        -13    1    6    6    0    0 -0.34642495172E+02  0.30824396060E+02  0.29630483568E+03  0.29991132274E+03  0.00000000000E+00 0.  1.
         14    1    6    6    0    0 -0.38890892987E+01  0.40286821778E+02  0.12283935462E+04  0.12290601520E+04  0.00000000000E+00 0. -1.
         -5    1    3    3    0  503 -0.14549608405E+02 -0.26776647037E+02 -0.45982784227E+02  0.55364125357E+02  0.47000000000E+01 0.  1.
         11    1    4    4    0    0  0.60945409030E+02 -0.18373795993E+02  0.70198874302E+02  0.94761918587E+02  0.00000000000E+00 0. -1.
        -12    1    4    4    0    0  0.73786992189E+00  0.31012280578E+02  0.65287975195E+01  0.31700649768E+02  0.00000000000E+00 0.  1.
</event>
<event>
12    1  0.1593360E-001  0.1890809E+03  0.7818608E-02  0.1159891E+00
         21   -1    0    0  503  502  0.00000000000E+00  0.00000000000E+00  0.13829161046E+03  0.13829161046E+03  0.00000000000E+00 0. -1.
         21   -1    0    0  501  503 -0.00000000000E+00 -0.00000000000E+00 -0.27654749712E+03  0.27654749712E+03  0.00000000000E+00 0.  1.
          6    2    1    2  501    0  0.61410534626E+02  0.50262811260E+02 -0.12663584741E+03  0.22540144041E+03  0.16873519944E+03 0.  0.
         24    2    3    3    0    0  0.77266009130E+02 -0.57237169161E+01 -0.35489970518E+02  0.11716305404E+03  0.80404266818E+02 0.  0.
         -6    2    1    2    0  502 -0.61410534626E+02 -0.50262811260E+02 -0.11620039249E+02  0.18943766717E+03  0.17162167833E+03 0.  0.
        -24    2    5    5    0    0 -0.13886528925E+02 -0.78836316357E+02 -0.48196579315E+02  0.12284255027E+03  0.79745729903E+02 0.  0.
          5    1    3    3  501    0 -0.15855474504E+02  0.55986528176E+02 -0.91145876894E+02  0.10823838637E+03  0.47000000000E+01 0. -1.
        -13    1    4    4    0    0  0.71080415247E+02 -0.51146975415E+01 -0.59203843764E+02  0.92648155293E+02  0.00000000000E+00 0.  1.
         14    1    4    4    0    0  0.61855938827E+01 -0.60901937456E+00  0.23713873246E+02  0.24514898748E+02  0.00000000000E+00 0. -1.
         -5    1    5    5    0  502 -0.47524005701E+02  0.28573505097E+02  0.36576540066E+02  0.66595116898E+02  0.47000000000E+01 0.  1.
         11    1    6    6    0    0 -0.28506651825E+02 -0.58995606326E+02  0.34545398617E+01  0.65612838757E+02  0.00000000000E+00 0. -1.
        -12    1    6    6    0    0  0.14620122900E+02 -0.19840710031E+02 -0.51651119177E+02  0.57229711518E+02  0.00000000000E+00 0.  1.
</event>
<event>
12    1  0.1593360E-001  0.2013488E+03  0.7818608E-02  0.1148783E+00
         21   -1    0    0  503  502  0.00000000000E+00  0.00000000000E+00  0.67989163281E+02  0.67989163281E+02  0.00000000000E+00 0.  1.
         21   -1    0    0  501  503 -0.00000000000E+00 -0.00000000000E+00 -0.59624815362E+03  0.59624815362E+03  0.00000000000E+00 0. -1.
          6    2    1    2  501    0  0.21412841036E+02 -0.10139405802E+03 -0.28598355617E+03  0.34975409892E+03  0.17263276210E+03 0.  0.
         24    2    3    3    0    0  0.32035940856E+02 -0.10786348347E+03 -0.11983944870E+03  0.18307879132E+03  0.80594775227E+02 0.  0.
         -6    2    1    2    0  502 -0.21412841036E+02  0.10139405802E+03 -0.24227543417E+03  0.31448321799E+03  0.17164802250E+03 0.  0.
        -24    2    5    5    0    0  0.41178199429E+02  0.35323011475E+02 -0.86003304076E+02  0.13357967965E+03  0.86623341281E+02 0.  0.
          5    1    3    3  501    0 -0.10623099820E+02  0.64694254546E+01 -0.16614410747E+03  0.16667530760E+03  0.47000000000E+01 0. -1.
        -13    1    4    4    0    0  0.34190328219E+02 -0.17905011445E+02 -0.77957516789E+01  0.39374379015E+02  0.00000000000E+00 0.  1.
         14    1    4    4    0    0 -0.21543873629E+01 -0.89958472030E+02 -0.11204369702E+03  0.14370441231E+03  0.00000000000E+00 0. -1.
         -5    1    5    5    0  502 -0.62591040465E+02  0.66071046545E+02 -0.15627213010E+03  0.18090353834E+03  0.47000000000E+01 0.  1.
         11    1    6    6    0    0 -0.81168813674E+01  0.44086516006E+02 -0.65734458577E+02  0.79564588235E+02  0.00000000000E+00 0. -1.
        -12    1    6    6    0    0  0.49295080797E+02 -0.87635045302E+01 -0.20268845499E+02  0.54015091412E+02  0.00000000000E+00 0.  1.
</event>
<event>
12    1  0.1593360E-001  0.1747197E+03  0.7818608E-02  0.1173238E+00
         21   -1    0    0  503  502  0.00000000000E+00  0.00000000000E+00  0.46999113337E+02  0.46999113337E+02  0.00000000000E+00 0.  1.
         21   -1    0    0  501  503 -0.00000000000E+00 -0.00000000000E+00 -0.20581626765E+04  0.20581626765E+04  0.00000000000E+00 0.  1.
          6    2    1    2  501    0 -0.53379535852E+01  0.24854230057E+02 -0.18782039447E+04  0.18863130768E+04  0.17286046171E+03 0.  0.
         24    2    3    3    0    0 -0.32918103380E+02  0.30513135243E+02 -0.50102066372E+03  0.50883401440E+03  0.76653087234E+02 0.  0.
         -6    2    1    2    0  502  0.53379535852E+01 -0.24854230057E+02 -0.13295961844E+03  0.21884871304E+03  0.17196009003E+03 0.  0.
        -24    2    5    5    0    0  0.36337767574E+02 -0.49244682212E+02 -0.33113267564E+02  0.11139050532E+03  0.86982090729E+02 0.  0.
          5    1    3    3  501    0  0.27580149795E+02 -0.56589051855E+01 -0.13771832810E+04  0.13774790624E+04  0.47000000000E+01 0. -1.
        -13    1    4    4    0    0 -0.58137082818E+01  0.53129683233E+02 -0.31219839323E+03  0.31674027085E+03  0.00000000000E+00 0.  1.
         14    1    4    4    0    0 -0.27104395098E+02 -0.22616547990E+02 -0.18882227050E+03  0.19209374355E+03  0.00000000000E+00 0. -1.
         -5    1    5    5    0  502 -0.30999813989E+02  0.24390452155E+02 -0.99846350878E+02  0.10745820772E+03  0.47000000000E+01 0.  1.
         13    1    6    6    0    0 -0.27356313908E+02 -0.17082065452E+02 -0.22327623802E+02  0.39226109358E+02  0.00000000000E+00 0. -1.
        -14    1    6    6    0    0  0.63694081483E+02 -0.32162616760E+02 -0.10785643762E+02  0.72164395959E+02  0.00000000000E+00 0.  1.
</event>
<event>
12    1  0.1593360E-001  0.1968604E+03  0.7818608E-02  0.1156267E+00
         21   -1    0    0  503  502  0.00000000000E+00  0.00000000000E+00  0.25819275915E+04  0.25819275915E+04  0.00000000000E+00 0. -1.
         21   -1    0    0  501  503 -0.00000000000E+00 -0.00000000000E+00 -0.13887542346E+02  0.13887542346E+02  0.00000000000E+00 0. -1.
          6    2    1    2  501    0 -0.47198839880E+02 -0.21548107695E+02  0.12070746981E+04  0.12230222162E+04  0.18989987663E+03 0.  0.
         24    2    3    3    0    0 -0.60625738033E+02 -0.82378149535E+02  0.66797425395E+03  0.68031423354E+03  0.78588884597E+02 0.  0.
         -6    2    1    2    0  502  0.47198839880E+02  0.21548107695E+02  0.13609653511E+04  0.13727929176E+04  0.17216752446E+03 0.  0.
        -24    2    5    5    0    0 -0.18387571758E+02 -0.16530932502E+02  0.10160006102E+04  0.10195587841E+04  0.81434020347E+02 0.  0.
          5    1    3    3  501    0  0.13426898153E+02  0.60830041840E+02  0.53910044414E+03  0.54270798267E+03  0.47000000000E+01 0. -1.
        -13    1    4    4    0    0  0.13145181118E+02 -0.26963581189E+01  0.17541562885E+03  0.17592813584E+03  0.00000000000E+00 0.  1.
         14    1    4    4    0    0 -0.73770919151E+02 -0.79681791416E+02  0.49255862510E+03  0.50438609770E+03  0.00000000000E+00 0. -1.
         -5    1    5    5    0  502  0.65586411638E+02  0.38079040198E+02  0.34496474085E+03  0.35323413357E+03  0.47000000000E+01 0.  1.
         13    1    6    6    0    0  0.20317436834E+02  0.13567175300E+02  0.13485624040E+03  0.13705134826E+03  0.00000000000E+00 0. -1.
        -14    1    6    6    0    0 -0.38705008592E+02 -0.30098107802E+02  0.88114436983E+03  0.88250743581E+03  0.00000000000E+00 0.  1.
</event>
<event>
12    1  0.1593360E-001  0.2901194E+03  0.7818608E-02  0.1090728E+00
         21   -1    0    0  501  502  0.00000000000E+00  0.00000000000E+00  0.53591320861E+03  0.53591320861E+03  0.00000000000E+00 0.  1.
         21   -1    0    0  502  503 -0.00000000000E+00 -0.00000000000E+00 -0.15554297301E+03  0.15554297301E+03  0.00000000000E+00 0.  1.
         -6    2    1    2    0  503 -0.25279223232E+02 -0.22882125400E+03  0.20643478181E+03  0.35606820989E+03  0.17655323713E+03 0.  0.
        -24    2    3    3    0    0  0.26225414851E+02 -0.18396009086E+03  0.20452314650E+03  0.28757736341E+03  0.79636267335E+02 0.  0.
          6    2    1    2  501    0  0.25279223232E+02  0.22882125400E+03  0.17393545379E+03  0.33538797173E+03  0.17097761282E+03 0.  0.
         24    2    5    5    0    0 -0.48110117911E+02  0.14180259644E+03  0.75933389093E+02  0.18510578103E+03  0.77946845917E+02 0.  0.
          5    1    5    5  501    0  0.73389341143E+02  0.87018657563E+02  0.98002064692E+02  0.15028219070E+03  0.47000000000E+01 0. -1.
        -13    1    6    6    0    0 -0.34856304951E+02  0.14250031994E+03  0.48296030409E+02  0.15444678608E+03  0.00000000000E+00 0.  1.
         14    1    6    6    0    0 -0.13253812960E+02 -0.69772350026E+00  0.27637358684E+02  0.30658994946E+02  0.00000000000E+00 0. -1.
         -5    1    3    3    0  503 -0.51504638082E+02 -0.44861163142E+02  0.19116353101E+01  0.68490846483E+02  0.47000000000E+01 0.  1.
         11    1    4    4    0    0 -0.57071950875E+00 -0.15329076876E+02 -0.60387761408E+01  0.16485543239E+02  0.00000000000E+00 0. -1.
        -12    1    4    4    0    0  0.26796134359E+02 -0.16863101398E+03  0.21056192265E+03  0.27109182017E+03  0.00000000000E+00 0.  1.
</event>
<event>
12    1  0.1593360E-001  0.2789908E+03  0.7818608E-02  0.1096294E+00
         21   -1    0    0  503  502  0.00000000000E+00  0.00000000000E+00  0.32247101660E+03  0.32247101660E+03  0.00000000000E+00 0.  1.
         21   -1    0    0  501  503 -0.00000000000E+00 -0.00000000000E+00 -0.36281903275E+03  0.36281903275E+03  0.00000000000E+00 0. -1.
          6    2    1    2  501    0  0.21909590472E+03  0.16313817382E+02 -0.21867352586E+03  0.35417701568E+03  0.17133035756E+03 0.  0.
         24    2    3    3    0    0  0.88598934954E+02 -0.25765052365E+02 -0.35249160895E+02  0.12512095691E+03  0.76805867718E+02 0.  0.
         -6    2    1    2    0  502 -0.21909590472E+03 -0.16313817382E+02  0.17832550971E+03  0.33111303367E+03  0.17194969483E+03 0.  0.
        -24    2    5    5    0    0 -0.35753558923E+02  0.20417784702E+02  0.62269808036E+02  0.11098888178E+03  0.82132819132E+02 0.  0.
          5    1    3    3  501    0  0.13049696977E+03  0.42078869747E+02 -0.18342436497E+03  0.22905605877E+03  0.47000000000E+01 0. -1.
        -13    1    4    4    0    0  0.56446415169E+02 -0.32590638063E+02 -0.56267087281E+02  0.86106518836E+02  0.00000000000E+00 0.  1.
         14    1    4    4    0    0  0.32152519784E+02  0.68255856988E+01  0.21017926387E+02  0.39014438074E+02  0.00000000000E+00 0. -1.
         -5    1    5    5    0  502 -0.18334234580E+03 -0.36731602084E+02  0.11605570168E+03  0.22012415189E+03  0.47000000000E+01 0.  1.
         11    1    6    6    0    0 -0.11817093287E+02 -0.28757012016E+01  0.74450530885E+02  0.75437357458E+02  0.00000000000E+00 0. -1.
        -12    1    6    6    0    0 -0.23936465636E+02  0.23293485903E+02 -0.12180722849E+02  0.35551524324E+02  0.00000000000E+00 0.  1.
</event>
<event>
12    1  0.1593360E-001  0.2130110E+03  0.7818608E-02  0.1139518E+00
         21   -1    0    0  501  502  0.00000000000E+00  0.00000000000E+00  0.20790555178E+03  0.20790555178E+03  0.00000000000E+00 0. -1.
         21   -1    0    0  502  503 -0.00000000000E+00 -0.00000000000E+00 -0.23647326217E+03  0.23647326217E+03  0.00000000000E+00 0. -1.
         -6    2    1    2    0  503 -0.31131202643E+02  0.12641119338E+03  0.50090079806E+02  0.21882116663E+03  0.16859639758E+03 0.  0.
        -24    2    3    3    0    0 -0.43587640665E+02  0.12488379342E+03 -0.11171089446E+02  0.15611138544E+03  0.82159157410E+02 0.  0.
          6    2    1    2  501    0  0.31131202643E+02 -0.12641119338E+03 -0.78657790197E+02  0.22555764732E+03  0.16655408345E+03 0.  0.
         24    2    5    5    0    0  0.41820864485E+02 -0.92698412807E+01 -0.13222144891E+02  0.90871794610E+02  0.79043932572E+02 0.  0.
          5    1    5    5  501    0 -0.10689661842E+02 -0.11714135210E+03 -0.65435645305E+02  0.13468585271E+03  0.47000000000E+01 0. -1.
        -11    1    6    6    0    0  0.49942930998E+02 -0.12989464113E+02 -0.38290854249E+02  0.64258945321E+02  0.00000000000E+00 0.  1.
         12    1    6    6    0    0 -0.81220665132E+01  0.37196228321E+01  0.25068709357E+02  0.26612849289E+02  0.00000000000E+00 0. -1.
         -5    1    3    3    0  503  0.12456438022E+02  0.15273999677E+01  0.61261169252E+02  0.62709781190E+02  0.47000000000E+01 0.  1.
         13    1    4    4    0    0 -0.74085174302E+01  0.53517738850E+02  0.34381806734E+02  0.64040168148E+02  0.00000000000E+00 0. -1.
        -14    1    4    4    0    0 -0.36179123235E+02  0.71366054566E+02 -0.45552896180E+02  0.92071217287E+02  0.00000000000E+00 0.  1.
</event>
<event>
12    1  0.1593360E-001  0.1906419E+03  0.7818608E-02  0.1158490E+00
         21   -1    0    0  501  502  0.00000000000E+00  0.00000000000E+00  0.53624147042E+03  0.53624147042E+03  0.00000000000E+00 0.  1.
         21   -1    0    0  502  503 -0.00000000000E+00 -0.00000000000E+00 -0.69254389642E+02  0.69254389642E+02  0.00000000000E+00 0.  1.
         -6    2    1    2    0  503  0.23648160672E+02  0.75763661216E+02  0.29177245078E+03  0.34853337293E+03  0.17333488152E+03 0.  0.
        -24    2    3    3    0    0 -0.26695662741E+02 -0.14609444150E+02  0.12649893860E+03  0.15349690825E+03  0.81444613744E+02 0.  0.
          6    2    1    2  501    0 -0.23648160672E+02 -0.75763661216E+02  0.17521463000E+03  0.25696248713E+03  0.17038246788E+03 0.  0.
         24    2    5    5    0    0 -0.65404295723E+02 -0.62647916668E+02  0.17210955015E+03  0.21283393526E+03  0.86452896908E+02 0.  0.
          5    1    5    5  501    0  0.41756135052E+02 -0.13115744548E+02  0.31050798595E+01  0.44128551873E+02  0.47000000000E+01 0. -1.
        -13    1    6    6    0    0  0.11129444185E+02 -0.38355720914E+02  0.87523510319E+02  0.96204941210E+02  0.00000000000E+00 0.  1.
         14    1    6    6    0    0 -0.76533739908E+02 -0.24292195754E+02  0.84586039826E+02  0.11662899405E+03  0.00000000000E+00 0. -1.
         -5    1    3    3    0  503  0.50343823413E+02  0.90373105367E+02  0.16527351217E+03  0.19503646468E+03  0.47000000000E+01 0.  1.
         11    1    4    4    0    0  0.13182365110E+02  0.37699290153E+00  0.10491399896E+03  0.10573960494E+03  0.00000000000E+00 0. -1.
        -12    1    4    4    0    0 -0.39878027852E+02 -0.14986437052E+02  0.21584939641E+02  0.47757303317E+02  0.00000000000E+00 0.  1.
</event>
<event>
12    1  0.1593360E-001  0.2019614E+03  0.7818608E-02  0.1148250E+00
         21   -1    0    0  503  502  0.00000000000E+00  0.00000000000E+00  0.18418560788E+03  0.18418560788E+03  0.00000000000E+00 0. -1.
         21   -1    0    0  501  503 -0.00000000000E+00 -0.00000000000E+00 -0.22126926130E+03  0.22126926130E+03  0.00000000000E+00 0. -1.
          6    2    1    2  501    0  0.90915336392E+02  0.50497234595E+02 -0.29345268858E+02  0.20334524737E+03  0.17225729515E+03 0.  0.
         24    2    3    3    0    0  0.33217005111E+02 -0.32998257899E+01  0.43109026276E+02  0.96130807945E+02  0.79173769715E+02 0.  0.
         -6    2    1    2    0  502 -0.90915336392E+02 -0.50497234595E+02 -0.77383845610E+01  0.20210962181E+03  0.17312668061E+03 0.  0.
        -24    2    5    5    0    0  0.10097390778E+02 -0.60385057923E+02  0.58353570013E+00  0.10016510525E+03  0.79274177851E+02 0.  0.
          5    1    3    3  501    0  0.57698331281E+02  0.53797060385E+02 -0.72454295134E+02  0.10721443943E+03  0.47000000000E+01 0. -1.
        -13    1    4    4    0    0 -0.25477412314E+02 -0.86996802451E+01  0.15177454235E+02  0.30905308471E+02  0.00000000000E+00 0.  1.
         14    1    4    4    0    0  0.58694417425E+02  0.53998544552E+01  0.27931572040E+02  0.65225499474E+02  0.00000000000E+00 0. -1.
         -5    1    5    5    0  502 -0.10101272717E+03  0.98878233285E+01 -0.83219202612E+01  0.10194451656E+03  0.47000000000E+01 0.  1.
         11    1    6    6    0    0 -0.34827681830E+02 -0.23619536367E+02 -0.97541079256E+00  0.42092770710E+02  0.00000000000E+00 0. -1.
        -12    1    6    6    0    0  0.44925072608E+02 -0.36765521557E+02  0.15589464927E+01  0.58072334535E+02  0.00000000000E+00 0.  1.
</event>
<event>
12    1  0.1593360E-001  0.1835826E+03  0.7818608E-02  0.1164905E+00
         21   -1    0    0  503  502  0.00000000000E+00  0.00000000000E+00  0.24203345028E+04  0.24203345028E+04  0.00000000000E+00 0. -1.
         21   -1    0    0  501  503 -0.00000000000E+00 -0.00000000000E+00 -0.13830041950E+02  0.13830041950E+02  0.00000000000E+00 0. -1.
          6    2    1    2  501    0 -0.51032135114E+02 -0.25729396983E+02  0.11078462884E+04  0.11225946345E+04  0.17213086295E+03 0.  0.
         24    2    3    3    0    0 -0.99647531261E+01 -0.68951001608E+02  0.44739060979E+03  0.45943671184E+03  0.77911472371E+02 0.  0.
         -6    2    1    2    0  502  0.51032135114E+02  0.25729396983E+02  0.12986581724E+04  0.13115699102E+04  0.17446002391E+03 0.  0.
        -24    2    5    5    0    0  0.58898810673E+02  0.10701581480E+02  0.38927763093E+03  0.40201904356E+03  0.80614165604E+02 0.  0.
          5    1    3    3  501    0 -0.41067381988E+02  0.43221604625E+02  0.66045567865E+03  0.66315792269E+03  0.47000000000E+01 0. -1.
        -11    1    4    4    0    0 -0.32598448597E+02 -0.48534531346E+02  0.39089077482E+03  0.39523898773E+03  0.00000000000E+00 0.  1.
         12    1    4    4    0    0  0.22633695471E+02 -0.20416470261E+02  0.56499834974E+02  0.64197724108E+02  0.00000000000E+00 0. -1.
         -5    1    5    5    0  502 -0.78666755594E+01  0.15027815502E+02  0.90938054150E+03  0.90955086668E+03  0.47000000000E+01 0.  1.
         13    1    6    6    0    0  0.14450217341E+02 -0.70548748222E+01  0.30241318543E+03  0.30284041138E+03  0.00000000000E+00 0. -1.
        -14    1    6    6    0    0  0.44448593332E+02  0.17756456303E+02  0.86864445500E+02  0.99178632183E+02  0.00000000000E+00 0.  1.
</event>
<event>
12    1  0.1593360E-001  0.1870315E+03  0.7818608E-02  0.1164801E+00
         21   -1    0    0  501  502  0.00000000000E+00  0.00000000000E+00  0.10808384901E+04  0.10808384901E+04  0.00000000000E+00 0. -1.
         21   -1    0    0  502  503 -0.00000000000E+00 -0.00000000000E+00 -0.29957441974E+02  0.29957441974E+02  0.00000000000E+00 0. -1.
         -6    2    1    2    0  503  0.33090272775E+02  0.17389422726E+02  0.46386144772E+03  0.49470113603E+03  0.16782256443E+03 0.  0.
        -24    2    3    3    0    0  0.84040592033E+02 -0.75646325331E+01  0.30699362225E+03  0.32782320288E+03  0.78121210086E+02 0.  0.
          6    2    1    2  501    0 -0.33090272775E+02 -0.17389422726E+02  0.58701960038E+03  0.61609479602E+03  0.18325781915E+03 0.  0.
         24    2    5    5    0    0  0.31678618872E+02  0.11002262629E+01  0.14455460853E+03  0.16850766991E+03  0.80585697120E+02 0.  0.
          5    1    5    5  501    0 -0.64768891647E+02 -0.18489648989E+02  0.44246499186E+03  0.44758712611E+03  0.47000000000E+01 0. -1.
        -13    1    6    6    0    0  0.15580450683E+02 -0.39577751902E+02  0.64100803989E+02  0.76928940985E+02  0.00000000000E+00 0.  1.
         14    1    6    6    0    0  0.16098168189E+02  0.40677978165E+02  0.80453804537E+02  0.91578728922E+02  0.00000000000E+00 0. -1.
         -5    1    3    3    0  503 -0.50950319259E+02  0.24954055259E+02  0.15686782547E+03  0.16687793315E+03  0.47000000000E+01 0.  1.
         13    1    4    4    0    0  0.35619049022E+00  0.13290864787E+02  0.13264601158E+03  0.13331068355E+03  0.00000000000E+00 0. -1.
        -14    1    4    4    0    0  0.83684401543E+02 -0.20855497320E+02  0.17434761067E+03  0.19451251933E+03  0.00000000000E+00 0.  1.
</event>
<event>
12    1  0.1593360E-001  0.2224205E+03  0.7818608E-02  0.1132248E+00
         21   -1    0    0  503  502  0.00000000000E+00  0.00000000000E+00  0.76161083206E+02  0.76161083206E+02  0.00000000000E+00 0.  1.
         21   -1    0    0  501  503 -0.00000000000E+00 -0.00000000000E+00 -0.85015910691E+03  0.85015910691E+03  0.00000000000E+00 0. -1.
          6    2    1    2  501    0  0.12401856561E+03  0.65749231280E+02 -0.61394051751E+03  0.65298839894E+03  0.17253209581E+03 0.  0.
         24    2    3    3    0    0  0.49046782231E+02 -0.86290793032E+01 -0.43459122856E+03  0.44480300359E+03  0.80623372606E+02 0.  0.
         -6    2    1    2    0  502 -0.12401856561E+03 -0.65749231280E+02 -0.16005750620E+03  0.27333179118E+03  0.17143015122E+03 0.  0.
        -24    2    5    5    0    0 -0.20822961827E+02 -0.48789711975E+02 -0.20649712322E+02  0.98994242357E+02  0.80990231923E+02 0.  0.
          5    1    3    3  501    0  0.74971783381E+02  0.74378310583E+02 -0.17934928895E+03  0.20818539535E+03  0.47000000000E+01 0. -1.
        -13    1    4    4    0    0  0.71405909236E+02 -0.89347071847E+01 -0.31226785463E+03  0.32045256420E+03  0.00000000000E+00 0.  1.
         14    1    4    4    0    0 -0.22359127005E+02  0.30562788153E+00 -0.12232337393E+03  0.12435043940E+03  0.00000000000E+00 0. -1.
         -5    1    5    5    0  502 -0.10319560379E+03 -0.16959519305E+02 -0.13940779388E+03  0.17433754882E+03  0.47000000000E+01 0.  1.
         13    1    6    6    0    0  0.20061555268E+02 -0.51927362937E+02 -0.92195259660E+01  0.56426205618E+02  0.00000000000E+00 0. -1.
        -14    1    6    6    0    0 -0.40884517095E+02  0.31376509625E+01 -0.11430186356E+02  0.42568036739E+02  0.00000000000E+00 0.  1.
</event>
<event>
12    1  0.1593360E-001  0.2260095E+03  0.7818608E-02  0.1129632E+00
         21   -1    0    0  501  502  0.00000000000E+00  0.00000000000E+00  0.33996626243E+03  0.33996626243E+03  0.00000000000E+00 0. -1.
         21   -1    0    0  502  503 -0.00000000000E+00 -0.00000000000E+00 -0.15511137220E+03  0.15511137220E+03  0.00000000000E+00 0.  1.
         -6    2    1    2    0  503 -0.85172276467E+02 -0.11761216097E+03  0.45987255945E+02  0.22981451059E+03  0.17208412037E+03 0.  0.
        -24    2    3    3    0    0 -0.61079540921E+01 -0.63896777941E+02 -0.32053821783E+02  0.10632763170E+03  0.78473004509E+02 0.  0.
          6    2    1    2  501    0  0.85172276467E+02  0.11761216097E+03  0.13886763429E+03  0.26526312404E+03  0.17318593488E+03 0.  0.
         24    2    5    5    0    0  0.17720599236E+02  0.19293867326E+02  0.11525131043E+03  0.14362416491E+03  0.81601245320E+02 0.  0.
          5    1    5    5  501    0  0.67451677230E+02  0.98318293644E+02  0.23616323860E+02  0.12163895913E+03  0.47000000000E+01 0. -1.
        -11    1    6    6    0    0 -0.66885952035E+00 -0.30912526778E+02  0.54787833399E+02  0.62910558521E+02  0.00000000000E+00 0.  1.
         12    1    6    6    0    0  0.18389458757E+02  0.50206394104E+02  0.60463477027E+02  0.80713606390E+02  0.00000000000E+00 0. -1.
         -5    1    3    3    0  503 -0.79064322375E+02 -0.53715383030E+02  0.78041077728E+02  0.12348687890E+03  0.47000000000E+01 0.  1.
         13    1    4    4    0    0  0.87655371051E+01 -0.27291313456E+02  0.24247974353E+02  0.37544835745E+02  0.00000000000E+00 0. -1.
        -14    1    4    4    0    0 -0.14873491197E+02 -0.36605464485E+02 -0.56301796136E+02  0.68782795950E+02  0.00000000000E+00 0.  1.
</event>
<event>
12    1  0.1593360E-001  0.3207692E+03  0.7818608E-02  0.1075360E+00
         21   -1    0    0  503  502  0.00000000000E+00  0.00000000000E+00  0.30016626172E+03  0.30016626172E+03  0.00000000000E+00 0.  1.
         21   -1    0    0  501  503 -0.00000000000E+00 -0.00000000000E+00 -0.70474823550E+03  0.70474823550E+03  0.00000000000E+00 0. -1.
          6    2    1    2  501    0 -0.23794859166E+03  0.12882369725E+03 -0.56276328228E+03  0.64776181424E+03  0.17227239726E+03 0.  0.
         24    2    3    3    0    0 -0.16410190255E+03  0.12764451639E+03 -0.29401807470E+03  0.36901318096E+03  0.80632143000E+02 0.  0.
         -6    2    1    2    0  502  0.23794859166E+03 -0.12882369725E+03  0.15818130851E+03  0.35715268298E+03  0.17123561355E+03 0.  0.
        -24    2    5    5    0    0  0.90359593707E+02 -0.76281153755E+02  0.14788734169E+02  0.14472210238E+03  0.82110350550E+02 0.  0.
          5    1    3    3  501    0 -0.73846689117E+02  0.11791808628E+01 -0.26874520758E+03  0.27874863329E+03  0.47000000000E+01 0. -1.
        -13    1    4    4    0    0 -0.29091652315E+02 -0.75200623401E+01 -0.25150759350E+02  0.39184643267E+02  0.00000000000E+00 0.  1.
         14    1    4    4    0    0 -0.13501025023E+03  0.13516457873E+03 -0.26886731535E+03  0.32982853769E+03  0.00000000000E+00 0. -1.
         -5    1    5    5    0  502  0.14758899796E+03 -0.52542543495E+02  0.14339257434E+03  0.21243058059E+03  0.47000000000E+01 0.  1.
         13    1    6    6    0    0  0.30030424165E+02  0.95244885477E-01 -0.25487709218E+02  0.39388561389E+02  0.00000000000E+00 0. -1.
        -14    1    6    6    0    0  0.60329169542E+02 -0.76376398640E+02  0.40276443387E+02  0.10533354100E+03  0.00000000000E+00 0.  1.
</event>
<event>
12    1  0.1593360E-001  0.1808222E+03  0.7818608E-02  0.1167336E+00
         21   -1    0    0  501  502  0.00000000000E+00  0.00000000000E+00  0.15052083701E+04  0.15052083701E+04  0.00000000000E+00 0.  1.
         21   -1    0    0  502  503 -0.00000000000E+00 -0.00000000000E+00 -0.22989648077E+02  0.22989648077E+02  0.00000000000E+00 0.  1.
         -6    2    1    2    0  503 -0.25515045916E+02  0.46370541641E+02  0.55319773502E+03  0.58200034352E+03  0.17290292398E+03 0.  0.
        -24    2    3    3    0    0  0.40367035298E+02 -0.10886073709E+02  0.21197633143E+03  0.22976050350E+03  0.78153181270E+02 0.  0.
          6    2    1    2  501    0  0.25515045916E+02 -0.46370541641E+02  0.92902098699E+03  0.94619767465E+03  0.17148994297E+03 0.  0.
         24    2    5    5    0    0 -0.21217367690E+00 -0.18420762588E+02  0.19530336839E+03  0.21148227817E+03  0.79006194465E+02 0.  0.
          5    1    5    5  501    0  0.25727219592E+02 -0.27949779053E+02  0.73371761859E+03  0.73471539647E+03  0.47000000000E+01 0. -1.
        -13    1    6    6    0    0  0.19416636530E+02 -0.29950249024E+02  0.18124623567E+03  0.18472742389E+03  0.00000000000E+00 0.  1.
         14    1    6    6    0    0 -0.19628810207E+02  0.11529486435E+02  0.14057132723E+02  0.26754854288E+02  0.00000000000E+00 0. -1.
         -5    1    3    3    0  503 -0.65882081213E+02  0.57256615350E+02  0.34122140359E+03  0.35223984002E+03  0.47000000000E+01 0.  1.
         13    1    4    4    0    0  0.53728667369E+02 -0.32785017723E+02  0.14747464053E+03  0.16034461850E+03  0.00000000000E+00 0. -1.
        -14    1    4    4    0    0 -0.13361632071E+02  0.21898944014E+02  0.64501690904E+02  0.69415884997E+02  0.00000000000E+00 0.  1.
</event>
<event>
12    1  0.1593360E-001  0.2041044E+03  0.7818608E-02  0.1146387E+00
         21   -1    0    0  503  502  0.00000000000E+00  0.00000000000E+00  0.11199241463E+04  0.11199241463E+04  0.00000000000E+00 0.  1.
         21   -1    0    0  501  503 -0.00000000000E+00 -0.00000000000E+00 -0.28418283941E+03  0.28418283941E+03  0.00000000000E+00 0.  1.
          6    2    1    2  501    0  0.10694916342E+03  0.15465981268E+02 -0.23665915368E+03  0.31251585854E+03  0.17315105165E+03 0.  0.
         24    2    3    3    0    0  0.93231226191E+01 -0.71096889740E+01 -0.17755852252E+03  0.19608785791E+03  0.82376882713E+02 0.  0.
         -6    2    1    2    0  502 -0.10694916342E+03 -0.15465981268E+02  0.10724004605E+04  0.10915911271E+04  0.17277476951E+03 0.  0.
        -24    2    5    5    0    0 -0.15933609843E+02 -0.60284715315E+02  0.44614927828E+03  0.45715816521E+03  0.77822122092E+02 0.  0.
          5    1    3    3  501    0  0.97626040801E+02  0.22575670242E+02 -0.59100631154E+02  0.11642800064E+03  0.47000000000E+01 0. -1.
        -11    1    4    4    0    0  0.42965664652E+02 -0.11976798758E+02 -0.13139410881E+03  0.13875843714E+03  0.00000000000E+00 0.  1.
         12    1    4    4    0    0 -0.33642542033E+02  0.48671097844E+01 -0.46164413712E+02  0.57329420767E+02  0.00000000000E+00 0. -1.
         -5    1    5    5    0  502 -0.91015553577E+02  0.44818734047E+02  0.62625118224E+03  0.63443296192E+03  0.47000000000E+01 0.  1.
         13    1    6    6    0    0 -0.44968323022E+02 -0.50363023752E+02  0.34117544745E+03  0.34779199270E+03  0.00000000000E+00 0. -1.
        -14    1    6    6    0    0  0.29034713179E+02 -0.99216915630E+01  0.10497383083E+03  0.10936617252E+03  0.00000000000E+00 0.  1.
</event>
<event>
12    1  0.1593360E-001  0.4233711E+03  0.7818608E-02  0.1035982E+00
         21   -1    0    0  503  502  0.00000000000E+00  0.00000000000E+00  0.62810688143E+03  0.62810688143E+03  0.00000000000E+00 0. -1.
         21   -1    0    0  501  503 -0.00000000000E+00 -0.00000000000E+00 -0.43946080553E+03  0.43946080553E+03  0.00000000000E+00 0.  1.
          6    2    1    2  501    0  0.88674435236E+02 -0.37617034773E+03 -0.22180679890E+03  0.47795539805E+03  0.17284623370E+03 0.  0.
         24    2    3    3    0    0  0.12217257916E+03 -0.23110670066E+03 -0.15596669514E+03  0.31509780194E+03  0.81391452879E+02 0.  0.
         -6    2    1    2    0  502 -0.88674435236E+02  0.37617034773E+03  0.41045287481E+03  0.58961228892E+03  0.17263777924E+03 0.  0.
        -24    2    5    5    0    0 -0.10232265433E+03  0.17772914897E+03  0.26115176451E+03  0.34085920896E+03  0.76988182482E+02 0.  0.
          5    1    3    3  501    0 -0.33498143922E+02 -0.14506364707E+03 -0.65840103759E+02  0.16285759611E+03  0.47000000000E+01 0. -1.
        -13    1    4    4    0    0  0.45327145100E+02 -0.28065165551E+02 -0.51687746275E+02  0.74255146053E+02  0.00000000000E+00 0.  1.
         14    1    4    4    0    0  0.76845434057E+02 -0.20304153511E+03 -0.10427894887E+03  0.24084265588E+03  0.00000000000E+00 0. -1.
         -5    1    5    5    0  502  0.13648219096E+02  0.19844119876E+03  0.14930111030E+03  0.24875307995E+03  0.47000000000E+01 0.  1.
         11    1    6    6    0    0  0.38466479911E+01  0.53859223724E+02  0.46588763391E+02  0.71317077584E+02  0.00000000000E+00 0. -1.
        -12    1    6    6    0    0 -0.10616930232E+03  0.12386992525E+03  0.21456300112E+03  0.26954213138E+03  0.00000000000E+00 0.  1.
</event>
<event>
12    1  0.1593360E-001  0.2402493E+03  0.7818608E-02  0.1119676E+00
         21   -1    0    0  501  502  0.00000000000E+00  0.00000000000E+00  0.15916890373E+03  0.15916890373E+03  0.00000000000E+00 0.  1.
         21   -1    0    0  502  503 -0.00000000000E+00 -0.00000000000E+00 -0.48075523189E+03  0.48075523189E+03  0.00000000000E+00 0. -1.
         -6    2    1    2    0  503  0.89134178561E+02  0.14192449472E+03 -0.31976912568E+03  0.39996505250E+03  0.17214030758E+03 0.  0.
        -24    2    3    3    0    0  0.23419930037E+02  0.10315369778E+03 -0.28951043095E+03  0.31775060267E+03  0.77200889734E+02 0.  0.
          6    2    1    2  501    0 -0.89134178561E+02 -0.14192449472E+03 -0.18172024822E+01  0.23995908312E+03  0.17172534861E+03 0.  0.
         24    2    5    5    0    0 -0.33959023706E+02 -0.13783458240E+03  0.35589617678E+02  0.17300846482E+03  0.92269825061E+02 0.  0.
          5    1    5    5  501    0 -0.55175154855E+02 -0.40899123223E+01 -0.37406820160E+02  0.66950618298E+02  0.47000000000E+01 0. -1.
        -11    1    6    6    0    0 -0.47383260720E+02 -0.62482570125E+02  0.52829234666E+02  0.94552488076E+02  0.00000000000E+00 0.  1.
         12    1    6    6    0    0  0.13424237014E+02 -0.75352012270E+02 -0.17239616988E+02  0.78455976742E+02  0.00000000000E+00 0. -1.
         -5    1    3    3    0  503  0.65714248524E+02  0.38770796942E+02 -0.30258694724E+02  0.82214449831E+02  0.47000000000E+01 0.  1.
         11    1    4    4    0    0 -0.28322102192E+02  0.32718250078E+02 -0.10591652110E+03  0.11441562307E+03  0.00000000000E+00 0. -1.
        -12    1    4    4    0    0  0.51742032229E+02  0.70435447698E+02 -0.18359390985E+03  0.20333497959E+03  0.00000000000E+00 0.  1.
</event>
<event>
12    1  0.1593360E-001  0.2452489E+03  0.7818608E-02  0.1116709E+00
         21   -1    0    0  503  502  0.00000000000E+00  0.00000000000E+00  0.25786421515E+02  0.25786421515E+02  0.00000000000E+00 0. -1.
         21   -1    0    0  501  503 -0.00000000000E+00 -0.00000000000E+00 -0.23797250674E+04  0.23797250674E+04  0.00000000000E+00 0. -1.
          6    2    1    2  501    0 -0.15650362255E+03  0.75453855197E+02 -0.13861985232E+04  0.14077263134E+04  0.17309061048E+03 0.  0.
         24    2    3    3    0    0 -0.91762121291E+02  0.11703488312E+02 -0.11068234778E+04  0.11139099127E+04  0.84733843275E+02 0.  0.
         -6    2    1    2    0  502  0.15650362255E+03 -0.75453855197E+02 -0.96774012265E+03  0.99778517553E+03  0.16990480685E+03 0.  0.
        -24    2    5    5    0    0  0.11830668949E+03 -0.11507576258E+03 -0.81692361660E+03  0.83717194526E+03  0.79080760417E+02 0.  0.
          5    1    3    3  501    0 -0.64741501258E+02  0.63750366885E+02 -0.27937504546E+03  0.29381640065E+03  0.47000000000E+01 0. -1.
        -13    1    4    4    0    0 -0.50704473069E+02 -0.13950673229E+02 -0.23809854010E+03  0.24383699406E+03  0.00000000000E+00 0.  1.
         14    1    4    4    0    0 -0.41057648221E+02  0.25654161541E+02 -0.86872493768E+03  0.87007291869E+03  0.00000000000E+00 0. -1.
         -5    1    5    5    0  502  0.38196933055E+02  0.39621907384E+02 -0.15081650605E+03  0.16061323027E+03  0.47000000000E+01 0.  1.
         11    1    6    6    0    0  0.43145402825E+02 -0.95450576432E+02 -0.43575282912E+03  0.44816611475E+03  0.00000000000E+00 0. -1.
        -12    1    6    6    0    0  0.75161286668E+02 -0.19625186150E+02 -0.38117078748E+03  0.38900583051E+03  0.00000000000E+00 0.  1.
</event>
<event>
12    1  0.1593360E-001  0.1866841E+03  0.7818608E-02  0.1161552E+00
         21   -1    0    0  501  502  0.00000000000E+00  0.00000000000E+00  0.70852261459E+03  0.70852261459E+03  0.00000000000E+00 0. -1.
         21   -1    0    0  502  503 -0.00000000000E+00 -0.00000000000E+00 -0.57987898200E+02  0.57987898200E+02  0.00000000000E+00 0. -1.
         -6    2    1    2    0  503  0.71311750402E+02 -0.14828063455E+02  0.17554826507E+03  0.25625797737E+03  0.17188868604E+03 0.  0.
        -24    2    3    3    0    0 -0.37268214089E+01  0.38854229336E+02  0.11427323481E+03  0.14540088399E+03  0.80990768228E+02 0.  0.
          6    2    1    2  501    0 -0.71311750402E+02  0.14828063455E+02  0.47498645132E+03  0.51025253542E+03  0.17158171158E+03 0.  0.
         24    2    5    5    0    0 -0.35428711465E+02  0.68923867980E+02  0.37414316923E+03  0.39023001214E+03  0.79313669197E+02 0.  0.
          5    1    5    5  501    0 -0.35883038936E+02 -0.54095804525E+02  0.10084328209E+03  0.12002252328E+03  0.47000000000E+01 0. -1.
        -11    1    6    6    0    0 -0.32279206139E+02  0.17165585095E+02  0.49861007032E+02  0.61828185182E+02  0.00000000000E+00 0.  1.
         12    1    6    6    0    0 -0.31495053264E+01  0.51758282885E+02  0.32428216220E+03  0.32840182696E+03  0.00000000000E+00 0. -1.
         -5    1    3    3    0  503  0.75038571811E+02 -0.53682292791E+02  0.61275030262E+02  0.11085709338E+03  0.47000000000E+01 0.  1.
         13    1    4    4    0    0  0.16236463755E+02  0.12551912350E+02 -0.54284139633E+01  0.21228305091E+02  0.00000000000E+00 0. -1.
        -14    1    4    4    0    0 -0.19963285164E+02  0.26302316986E+02  0.11970164877E+03  0.12417257890E+03  0.00000000000E+00 0.  1.
</event>
<event>
12    1  0.1593360E-001  0.1812618E+03  0.7818608E-02  0.1166754E+00
         21   -1    0    0  501  502  0.00000000000E+00  0.00000000000E+00  0.69370256273E+03  0.69370256273E+03  0.00000000000E+00 0.  1.
         21   -1    0    0  502  503 -0.00000000000E+00 -0.00000000000E+00 -0.52952564455E+02  0.52952564455E+02  0.00000000000E+00 0.  1.
         -6    2    1    2    0  503  0.51426803862E+02 -0.29246457348E+02  0.19659397049E+03  0.26693602179E+03  0.17060357287E+03 0.  0.
        -24    2    3    3    0    0 -0.14036566674E+02 -0.36306045983E+02  0.17905126102E+03  0.19863428441E+03  0.76688139197E+02 0.  0.
          6    2    1    2  501    0 -0.51426803862E+02  0.29246457348E+02  0.44415602779E+03  0.47971910539E+03  0.17133526092E+03 0.  0.
         24    2    5    5    0    0 -0.25883157798E+02 -0.27555163374E+02  0.38004553822E+03  0.39021409523E+03  0.80020023201E+02 0.  0.
          5    1    5    5  501    0 -0.25543646063E+02  0.56801620722E+02  0.64110489573E+02  0.89505010162E+02  0.47000000000E+01 0. -1.
        -11    1    6    6    0    0  0.17346944151E+02  0.76237045348E+01  0.21858134111E+03  0.21940109394E+03  0.00000000000E+00 0.  1.
         12    1    6    6    0    0 -0.43230101949E+02 -0.35178867908E+02  0.16146419711E+03  0.17081300129E+03  0.00000000000E+00 0. -1.
         -5    1    3    3    0  503  0.65463370536E+02  0.70595886349E+01  0.17542709470E+02  0.68301737380E+02  0.47000000000E+01 0.  1.
         11    1    4    4    0    0 -0.11484429740E+02 -0.86326802119E+01  0.16818041705E+03  0.16879297371E+03  0.00000000000E+00 0. -1.
        -12    1    4    4    0    0 -0.25521369345E+01 -0.27673365771E+02  0.10870843968E+02  0.29841310705E+02  0.00000000000E+00 0.  1.
</event>
<event>
12    1  0.1593360E-001  0.1766469E+03  0.7818608E-02  0.1171425E+00
         21   -1    0    0  501  502  0.00000000000E+00  0.00000000000E+00  0.93466194312E+03  0.93466194312E+03  0.00000000000E+00 0.  1.
         21   -1    0    0  502  503 -0.00000000000E+00 -0.00000000000E+00 -0.42851206503E+02  0.42851206503E+02  0.00000000000E+00 0.  1.
         -6    2    1    2    0  503  0.51962442034E+01 -0.46209539077E+02  0.21178602298E+03  0.27491956419E+03  0.16901220307E+03 0.  0.
        -24    2    3    3    0    0  0.10979540092E+02 -0.94325078517E+02  0.12846612605E+03  0.17841647163E+03  0.79442564607E+02 0.  0.
          6    2    1    2  501    0 -0.51962442034E+01  0.46209539077E+02  0.68002471363E+03  0.70259358543E+03  0.17041658571E+03 0.  0.
         24    2    5    5    0    0  0.60843449535E+02  0.19445047354E+02  0.46147292087E+03  0.47267065207E+03  0.79876488497E+02 0.  0.
          5    1    5    5  501    0 -0.66039693738E+02  0.26764491723E+02  0.21855179276E+03  0.22992293336E+03  0.47000000000E+01 0. -1.
        -11    1    6    6    0    0  0.45478570727E+02  0.50286093943E+02  0.30176455687E+03  0.30928763219E+03  0.00000000000E+00 0.  1.
         12    1    6    6    0    0  0.15364878808E+02 -0.30841046589E+02  0.15970836400E+03  0.16338301988E+03  0.00000000000E+00 0. -1.
         -5    1    3    3    0  503 -0.57832958885E+01  0.48115539440E+02  0.83319896938E+02  0.96503092555E+02  0.47000000000E+01 0.  1.
         13    1    4    4    0    0  0.29243327070E+02 -0.84287252744E+02  0.12983291357E+03  0.15753126229E+03  0.00000000000E+00 0. -1.
        -14    1    4    4    0    0 -0.18263786979E+02 -0.10037825773E+02 -0.13667875265E+01  0.20885209340E+02  0.00000000000E+00 0.  1.
</event>
<event>
12    1  0.1593360E-001  0.1984493E+03  0.7818608E-02  0.1151832E+00
         21   -1    0    0  503  502  0.00000000000E+00  0.00000000000E+00  0.45855075218E+03  0.45855075218E+03  0.00000000000E+00 0.  1.
         21   -1    0    0  501  503 -0.00000000000E+00 -0.00000000000E+00 -0.14582335262E+03  0.14582335262E+03  0.00000000000E+00 0.  1.
          6    2    1    2  501    0 -0.86126242498E+02 -0.31201511132E+02 -0.39041835631E+02  0.20225324496E+03  0.17604217172E+03 0.  0.
         24    2    3    3    0    0 -0.33123561606E+02  0.18738047415E+02 -0.73219916741E+02  0.12167114448E+03  0.89411556506E+02 0.  0.
         -6    2    1    2    0  502  0.86126242498E+02  0.31201511132E+02  0.35176923519E+03  0.40212085983E+03  0.17195443333E+03 0.  0.
        -24    2    5    5    0    0  0.11495416976E+03 -0.18656247584E+02  0.27512494161E+03  0.30613501071E+03  0.66801156888E+02 0.  0.
          5    1    3    3  501    0 -0.53002680892E+02 -0.49939558547E+02  0.34178081110E+02  0.80582100481E+02  0.47000000000E+01 0. -1.
        -11    1    4    4    0    0 -0.23467051855E+02 -0.35184766341E+02 -0.34650495005E+02  0.54674739225E+02  0.00000000000E+00 0.  1.
         12    1    4    4    0    0 -0.96565097509E+01  0.53922813756E+02 -0.38569421736E+02  0.66996405254E+02  0.00000000000E+00 0. -1.
         -5    1    5    5    0  502 -0.28827927264E+02  0.49857758715E+02  0.76644293577E+02  0.95985849125E+02  0.47000000000E+01 0.  1.
         11    1    6    6    0    0  0.28911876623E+02 -0.36004506878E+02  0.10487617372E+03  0.11459159192E+03  0.00000000000E+00 0. -1.
        -12    1    6    6    0    0  0.86042293139E+02  0.17348259294E+02  0.17024876790E+03  0.19154341878E+03  0.00000000000E+00 0.  1.
</event>
<event>
12    1  0.1593360E-001  0.2081894E+03  0.7818608E-02  0.1143140E+00
         21   -1    0    0  503  502  0.00000000000E+00  0.00000000000E+00  0.21703639706E+03  0.21703639706E+03  0.00000000000E+00 0.  1.
         21   -1    0    0  501  503 -0.00000000000E+00 -0.00000000000E+00 -0.22235820671E+03  0.22235820671E+03  0.00000000000E+00 0.  1.
          6    2    1    2  501    0  0.81427423551E+02  0.82139934439E+02 -0.73763414178E+02  0.22087074756E+03  0.17310531973E+03 0.  0.
         24    2    3    3    0    0  0.50612091488E+02  0.10409723524E+03 -0.31144964778E+01  0.14058957093E+03  0.79736498395E+02 0.  0.
         -6    2    1    2    0  502 -0.81427423551E+02 -0.82139934439E+02  0.68441604533E+02  0.21852385621E+03  0.17231084809E+03 0.  0.
        -24    2    5    5    0    0 -0.19036757396E+02  0.32125082869E+00  0.77629675533E+02  0.11460584552E+03  0.82131796333E+02 0.  0.
          5    1    3    3  501    0  0.30815332063E+02 -0.21957300803E+02 -0.70648917700E+02  0.80281176629E+02  0.47000000000E+01 0. -1.
        -11    1    4    4    0    0 -0.17000260062E+02  0.28193659470E+02  0.16870515797E+02  0.36993318041E+02  0.00000000000E+00 0.  1.
         12    1    4    4    0    0  0.67612351550E+02  0.75903575772E+02 -0.19985012275E+02  0.10359625289E+03  0.00000000000E+00 0. -1.
         -5    1    5    5    0  502 -0.62390666154E+02 -0.82461185267E+02 -0.91880709998E+01  0.10391801070E+03  0.47000000000E+01 0.  1.
         13    1    6    6    0    0 -0.36580521792E+02 -0.25413345990E+02  0.69275209263E+02  0.82359136393E+02  0.00000000000E+00 0. -1.
        -14    1    6    6    0    0  0.17543764396E+02  0.25734596818E+02  0.83544662698E+01  0.32246709123E+02  0.00000000000E+00 0.  1.
</event>
<event>
12    1  0.1593360E-001  0.2034415E+03  0.7818608E-02  0.1146926E+00
         21   -1    0    0  501  502  0.00000000000E+00  0.00000000000E+00  0.23085582147E+03  0.23085582147E+03  0.00000000000E+00 0. -1.
         21   -1    0    0  502  503 -0.00000000000E+00 -0.00000000000E+00 -0.17984673069E+03  0.17984673069E+03  0.00000000000E+00 0. -1.
         -6    2    1    2    0  503 -0.99987751734E+02  0.41769467250E+02  0.11683606270E+02  0.20349507141E+03  0.17184731171E+03 0.  0.
        -24    2    3    3    0    0 -0.64353546938E+02 -0.37761172597E+01 -0.53324051951E+02  0.11636136698E+03  0.80875677089E+02 0.  0.
          6    2    1    2  501    0  0.99987751734E+02 -0.41769467250E+02  0.39325484510E+02  0.20720748076E+03  0.17218074067E+03 0.  0.
         24    2    5    5    0    0  0.99852395048E+02 -0.11026347334E+02 -0.27775243881E+02  0.13324968540E+03  0.83017668926E+02 0.  0.
          5    1    5    5  501    0  0.13535668577E+00 -0.30743119916E+02  0.67100728391E+02  0.73957795358E+02  0.47000000000E+01 0. -1.
        -13    1    6    6    0    0  0.22358567139E+02  0.30917412015E+02  0.64942036816E+01  0.38703573112E+02  0.00000000000E+00 0.  1.
         14    1    6    6    0    0  0.77493827910E+02 -0.41943759349E+02 -0.34269447563E+02  0.94546112287E+02  0.00000000000E+00 0. -1.
         -5    1    3    3    0  503 -0.35634204796E+02  0.45545584510E+02  0.65007658222E+02  0.87133704428E+02  0.47000000000E+01 0.  1.
         13    1    4    4    0    0 -0.10958637003E+02  0.19761605135E+02 -0.53426389594E+02  0.58008549952E+02  0.00000000000E+00 0. -1.
        -14    1    4    4    0    0 -0.53394909935E+02 -0.23537722394E+02  0.10233764318E+00  0.58352817031E+02  0.00000000000E+00 0.  1.
</event>
<event>
12    1  0.1593360E-001  0.1743981E+03  0.7818608E-02  0.1173685E+00
         21   -1    0    0  503  502  0.00000000000E+00  0.00000000000E+00  0.23355011674E+03  0.23355011674E+03  0.00000000000E+00 0.  1.
         21   -1    0    0  501  503 -0.00000000000E+00 -0.00000000000E+00 -0.37908774128E+03  0.37908774128E+03  0.00000000000E+00 0.  1.
          6    2    1    2  501    0  0.61624287052E+01 -0.16305922799E+02 -0.32136773282E+03  0.36498705031E+03  0.17214664838E+03 0.  0.
         24    2    3    3    0    0  0.69418645102E+02 -0.18217297817E+02 -0.16728549924E+03  0.19834843842E+03  0.78783542319E+02 0.  0.
         -6    2    1    2    0  502 -0.61624287052E+01  0.16305922799E+02  0.17583010829E+03  0.24765080771E+03  0.17352474444E+03 0.  0.
        -24    2    5    5    0    0  0.29309089030E+01 -0.20378213417E+02  0.17322041530E+02  0.84631447308E+02  0.80240681338E+02 0.  0.
          5    1    3    3  501    0 -0.63256216397E+02  0.19113750186E+01 -0.15408223358E+03  0.16663861189E+03  0.47000000000E+01 0. -1.
        -13    1    4    4    0    0 -0.14415571904E+02  0.91587945088E+01 -0.16999777220E+02  0.24097399356E+02  0.00000000000E+00 0.  1.
         14    1    4    4    0    0  0.83834217006E+02 -0.27376092326E+02 -0.15028572202E+03  0.17425103907E+03  0.00000000000E+00 0. -1.
         -5    1    5    5    0  502 -0.90933376082E+01  0.36684136216E+02  0.15850806676E+03  0.16301936040E+03  0.47000000000E+01 0.  1.
         13    1    6    6    0    0 -0.34484517396E+02 -0.75198520864E+01  0.26356313340E+02  0.44049805542E+02  0.00000000000E+00 0. -1.
        -14    1    6    6    0    0  0.37415426299E+02 -0.12858361331E+02 -0.90342718101E+01  0.40581641765E+02  0.00000000000E+00 0.  1.
</event>
<event>
12    1  0.1593360E-001  0.1927474E+03  0.7818608E-02  0.1156038E+00
         21   -1    0    0  501  502  0.00000000000E+00  0.00000000000E+00  0.14677095939E+03  0.14677095939E+03  0.00000000000E+00 0.  1.
         21   -1    0    0  502  503 -0.00000000000E+00 -0.00000000000E+00 -0.55897353188E+03  0.55897353188E+03  0.00000000000E+00 0.  1.
         -6    2    1    2    0  503  0.55536111086E+02 -0.67213639088E+02  0.55034645670E+02  0.20031184012E+03  0.17173842946E+03 0.  0.
        -24    2    3    3    0    0  0.44804288231E+01 -0.89012844164E+02  0.73611656003E+02  0.14158294309E+03  0.81753857443E+02 0.  0.
          6    2    1    2  501    0 -0.55536111086E+02  0.67213639088E+02 -0.46723721817E+03  0.50543265115E+03  0.17190001132E+03 0.  0.
         24    2    5    5    0    0 -0.21753450712E+02  0.69723429326E+02 -0.45736027786E+03  0.46983474196E+03  0.78941065169E+02 0.  0.
          5    1    5    5  501    0 -0.33782660374E+02 -0.25097902380E+01 -0.98769403079E+01  0.35597909192E+02  0.47000000000E+01 0. -1.
        -13    1    6    6    0    0 -0.39175588397E+02  0.64781238650E+01 -0.22103911299E+03  0.22457734143E+03  0.00000000000E+00 0.  1.
         14    1    6    6    0    0  0.17422137686E+02  0.63245305461E+02 -0.23632116487E+03  0.24525740052E+03  0.00000000000E+00 0. -1.
         -5    1    3    3    0  503  0.51055682263E+02  0.21799205076E+02 -0.18577010332E+02  0.58728897028E+02  0.47000000000E+01 0.  1.
         11    1    4    4    0    0 -0.35576341813E+00  0.15229380639E+02  0.28456863744E+01  0.15497049177E+02  0.00000000000E+00 0. -1.
        -12    1    4    4    0    0  0.48361922413E+01 -0.10424222480E+03  0.70765969628E+02  0.12608589392E+03  0.00000000000E+00 0.  1.
</event>
<event>
12    1  0.1593360E-001  0.4711238E+03  0.7818608E-02  0.1021612E+00
         21   -1    0    0  503  502  0.00000000000E+00  0.00000000000E+00  0.96622236777E+03  0.96622236777E+03  0.00000000000E+00 0. -1.
         21   -1    0    0  501  503 -0.00000000000E+00 -0.00000000000E+00 -0.23193710917E+03  0.23193710917E+03  0.00000000000E+00 0. -1.
          6    2    1    2  501    0 -0.43875335176E+03  0.49150220088E+01  0.42646079626E+03  0.63538644018E+03  0.17122633122E+03 0.  0.
         24    2    3    3    0    0 -0.25485730007E+03 -0.58947180566E+02  0.28020103825E+03  0.39184969643E+03  0.81280681969E+02 0.  0.
         -6    2    1    2    0  502  0.43875335176E+03 -0.49150220088E+01  0.30782446234E+03  0.56277303676E+03  0.17154862334E+03 0.  0.
        -24    2    5    5    0    0  0.34530402277E+03  0.60976693916E+01  0.16317495798E+03  0.39014735625E+03  0.79478569205E+02 0.  0.
          5    1    3    3  501    0 -0.18389605169E+03  0.63862202575E+02  0.14625975801E+03  0.24353674376E+03  0.47000000000E+01 0. -1.
        -11    1    4    4    0    0 -0.30490896152E+02 -0.11003608031E+02  0.83746831278E+02  0.89801480428E+02  0.00000000000E+00 0.  1.
         12    1    4    4    0    0 -0.22436640391E+03 -0.47943572536E+02  0.19645420697E+03  0.30204821600E+03  0.00000000000E+00 0. -1.
         -5    1    5    5    0  502  0.93449328987E+02 -0.11012691400E+02  0.14464950437E+03  0.17262568051E+03  0.47000000000E+01 0.  1.
         13    1    6    6    0    0  0.23853984196E+03 -0.15672455489E+02  0.14524883137E+03  0.27972147768E+03  0.00000000000E+00 0. -1.
        -14    1    6    6    0    0  0.10676418081E+03  0.21770124880E+02  0.17926126607E+02  0.11042587857E+03  0.00000000000E+00 0.  1.
</event>
<event>
12    1  0.1593360E-001  0.1975727E+03  0.7818608E-02  0.1151907E+00
         21   -1    0    0  501  502  0.00000000000E+00  0.00000000000E+00  0.12795176366E+03  0.12795176366E+03  0.00000000000E+00 0. -1.
         21   -1    0    0  502  503 -0.00000000000E+00 -0.00000000000E+00 -0.38988499975E+03  0.38988499975E+03  0.00000000000E+00 0. -1.
         -6    2    1    2    0  503 -0.95378379877E+02 -0.19529126964E+02 -0.25212925328E+03  0.32002099201E+03  0.17136467786E+03 0.  0.
        -24    2    3    3    0    0 -0.10797677708E+02  0.25244870557E+02 -0.18417901799E+03  0.20255639943E+03  0.79707533832E+02 0.  0.
          6    2    1    2  501    0  0.95378379877E+02  0.19529126964E+02 -0.98039828088E+01  0.19781577141E+03  0.17192015353E+03 0.  0.
         24    2    5    5    0    0  0.85170895868E+02 -0.89716826481E+01  0.50819830878E+02  0.12989062390E+03  0.83392723743E+02 0.  0.
          5    1    5    5  501    0  0.10207484008E+02  0.28500809612E+02 -0.60623813687E+02  0.67925147510E+02  0.47000000000E+01 0. -1.
        -13    1    6    6    0    0 -0.38310249572E+01 -0.14587730075E+02  0.36599052669E+02  0.39584962766E+02  0.00000000000E+00 0.  1.
         14    1    6    6    0    0  0.89001920825E+02  0.56160474268E+01  0.14220778209E+02  0.90305661130E+02  0.00000000000E+00 0. -1.
         -5    1    3    3    0  503 -0.84580702168E+02 -0.44773997521E+02 -0.67950235292E+02  0.11746459258E+03  0.47000000000E+01 0.  1.
         11    1    4    4    0    0  0.23502654875E+02 -0.16335537553E+02 -0.84806373461E+02  0.89506120198E+02  0.00000000000E+00 0. -1.
        -12    1    4    4    0    0 -0.34300332584E+02  0.41580408111E+02 -0.99372644525E+02  0.11305027923E+03  0.00000000000E+00 0.  1.
</event>
<event>
12    1  0.1593360E-001  0.2462482E+03  0.7818608E-02  0.1116268E+00
         21   -1    0    0  501  502  0.00000000000E+00  0.00000000000E+00  0.86696408162E+03  0.86696408162E+03  0.00000000000E+00 0.  1.
         21   -1    0    0  502  503 -0.00000000000E+00 -0.00000000000E+00 -0.70193579570E+02  0.70193579570E+02  0.00000000000E+00 0.  1.
         -6    2    1    2    0  503 -0.11611768637E+03  0.12686966195E+03  0.33326463455E+03  0.41229969064E+03  0.17130817277E+03 0.  0.
        -24    2    3    3    0    0 -0.61200458661E+02  0.42802391555E+01  0.21088790353E+03  0.23052449219E+03  0.70028687382E+02 0.  0.
          6    2    1    2  501    0  0.11611768637E+03 -0.12686966195E+03  0.46350586751E+03  0.52485797055E+03  0.17623555778E+03 0.  0.
         24    2    5    5    0    0  0.10345251828E+03 -0.32640017490E+02  0.17321244660E+03  0.21935511852E+03  0.79663806607E+02 0.  0.
          5    1    5    5  501    0  0.12665168088E+02 -0.94229644455E+02  0.29029342091E+03  0.30550285203E+03  0.47000000000E+01 0. -1.
        -13    1    6    6    0    0 -0.17035066169E+00 -0.29889405455E+02  0.28124061973E+02  0.41041057974E+02  0.00000000000E+00 0.  1.
         14    1    6    6    0    0  0.10362286894E+03 -0.27506120347E+01  0.14508838462E+03  0.17831406054E+03  0.00000000000E+00 0. -1.
         -5    1    3    3    0  503 -0.54917227705E+02  0.12258942279E+03  0.12237673102E+03  0.18177519845E+03  0.47000000000E+01 0.  1.
         13    1    4    4    0    0 -0.50889268936E+02  0.20485767448E+02  0.20207967747E+03  0.20939336285E+03  0.00000000000E+00 0. -1.
        -14    1    4    4    0    0 -0.10311189725E+02 -0.16205528293E+02  0.88082260648E+01  0.21131129340E+02  0.00000000000E+00 0.  1.
</event>
<event>
12    1  0.1593360E-001  0.1777749E+03  0.7818608E-02  0.1170019E+00
         21   -1    0    0  503  502  0.00000000000E+00  0.00000000000E+00  0.26936648864E+02  0.26936648864E+02  0.00000000000E+00 0. -1.
         21   -1    0    0  501  503 -0.00000000000E+00 -0.00000000000E+00 -0.11727576641E+04  0.11727576641E+04  0.00000000000E+00 0. -1.
          6    2    1    2  501    0  0.40241177531E+02 -0.20149594950E+02 -0.55800875680E+03  0.58558752367E+03  0.17179527546E+03 0.  0.
         24    2    3    3    0    0 -0.37821861114E+02  0.18078705680E+02 -0.26707056824E+03  0.28190617664E+03  0.79919154354E+02 0.  0.
         -6    2    1    2    0  502 -0.40241177531E+02  0.20149594950E+02 -0.58781225844E+03  0.61410678929E+03  0.17198412409E+03 0.  0.
        -24    2    5    5    0    0 -0.28017200627E+02  0.78732860995E+02 -0.42823453780E+03  0.44361173483E+03  0.80141905284E+02 0.  0.
          5    1    3    3  501    0  0.78063038645E+02 -0.38228300630E+02 -0.29093818856E+03  0.30368134703E+03  0.47000000000E+01 0. -1.
        -11    1    4    4    0    0 -0.20456952523E+02 -0.24158843738E+02 -0.43974026379E+02  0.54183499641E+02  0.00000000000E+00 0.  1.
         12    1    4    4    0    0 -0.17364908591E+02  0.42237549418E+02 -0.22309654186E+03  0.22772267700E+03  0.00000000000E+00 0. -1.
         -5    1    5    5    0  502 -0.12223976903E+02 -0.58583266044E+02 -0.15957772064E+03  0.17049505446E+03  0.47000000000E+01 0.  1.
         11    1    6    6    0    0 -0.11979680153E+02  0.34074660345E+02 -0.46207873273E+02  0.58649490762E+02  0.00000000000E+00 0. -1.
        -12    1    6    6    0    0 -0.16037520475E+02  0.44658200649E+02 -0.38202666453E+03  0.38496224407E+03  0.00000000000E+00 0.  1.
</event>
<event>
12    1  0.1593360E-001  0.2677829E+03  0.7818608E-02  0.1102591E+00
         21   -1    0    0  503  502  0.00000000000E+00  0.00000000000E+00  0.45108995053E+03  0.45108995053E+03  0.00000000000E+00 0.  1.
         21   -1    0    0  501  503 -0.00000000000E+00 -0.00000000000E+00 -0.25292309400E+03  0.25292309400E+03  0.00000000000E+00 0. -1.
          6    2    1    2  501    0 -0.14222331290E+03 -0.14791550559E+03 -0.11560322587E+03  0.29167066253E+03  0.17204999861E+03 0.  0.
         24    2    3    3    0    0 -0.48532406052E+02 -0.26094905687E+01 -0.45289391109E+02  0.10496782541E+03  0.81270606906E+02 0.  0.
         -6    2    1    2    0  502  0.14222331290E+03  0.14791550559E+03  0.31377008240E+03  0.41234238201E+03  0.17166277367E+03 0.  0.
        -24    2    5    5    0    0  0.38125575529E+02  0.13156449753E+03  0.21995297381E+03  0.27117781756E+03  0.79970754224E+02 0.  0.
          5    1    3    3  501    0 -0.93690906849E+02 -0.14530601502E+03 -0.70313834765E+02  0.18670283711E+03  0.47000000000E+01 0. -1.
        -11    1    4    4    0    0  0.83187460947E+01 -0.12559023304E+02  0.15172986491E+02  0.21381069244E+02  0.00000000000E+00 0.  1.
         12    1    4    4    0    0 -0.56851152147E+02  0.99495327356E+01 -0.60462377600E+02  0.83586756171E+02  0.00000000000E+00 0. -1.
         -5    1    5    5    0  502  0.10409773737E+03  0.16351008058E+02  0.93817108588E+02  0.14116456444E+03  0.47000000000E+01 0.  1.
         13    1    6    6    0    0  0.38414116250E+02  0.93253437923E+02  0.88246895241E+02  0.13401254617E+03  0.00000000000E+00 0. -1.
        -14    1    6    6    0    0 -0.28854072115E+00  0.38311059605E+02  0.13170607857E+03  0.13716527139E+03  0.00000000000E+00 0.  1.
</event>
<event>
12    1  0.1593360E-001  0.2854864E+03  0.7818608E-02  0.1093267E+00
         21   -1    0    0  501  502  0.00000000000E+00  0.00000000000E+00  0.44370617731E+03  0.44370617731E+03  0.00000000000E+00 0. -1.
         21   -1    0    0  502  503 -0.00000000000E+00 -0.00000000000E+00 -0.18215168437E+03  0.18215168437E+03  0.00000000000E+00 0. -1.
         -6    2    1    2    0  503  0.19080676799E+03  0.12167520960E+03  0.10812789910E+03  0.30527715480E+03  0.17404142995E+03 0.  0.
        -24    2    3    3    0    0  0.20624412309E+03  0.11848097330E+03  0.12620300855E+03  0.28083713313E+03  0.79799227023E+02 0.  0.
          6    2    1    2  501    0 -0.19080676799E+03 -0.12167520960E+03  0.15342659384E+03  0.32058070687E+03  0.16739232533E+03 0.  0.
         24    2    5    5    0    0 -0.22558527871E+02 -0.40297778552E+02  0.70997302568E+02  0.11626126422E+03  0.79644625997E+02 0.  0.
          5    1    5    5  501    0 -0.16824824012E+03 -0.81377431045E+02  0.82429291269E+02  0.20431944265E+03  0.47000000000E+01 0. -1.
        -13    1    6    6    0    0 -0.25295049363E+02 -0.17068163876E+02 -0.98760808870E+01  0.32073333379E+02  0.00000000000E+00 0.  1.
         14    1    6    6    0    0  0.27365214922E+01 -0.23229614676E+02  0.80873383455E+02  0.84187930841E+02  0.00000000000E+00 0. -1.
         -5    1    3    3    0  503 -0.15437355100E+02  0.31942362959E+01 -0.18075109448E+02  0.24440021677E+02  0.47000000000E+01 0.  1.
         13    1    4    4    0    0  0.13181928605E+03  0.11596269910E+03  0.77880831620E+02  0.19206534225E+03  0.00000000000E+00 0. -1.
        -14    1    4    4    0    0  0.74424837037E+02  0.25182741974E+01  0.48322176933E+02  0.88771790882E+02  0.00000000000E+00 0.  1.
</event>
<event>
12    1  0.1593360E-001  0.2227452E+03  0.7818608E-02  0.1132216E+00
         21   -1    0    0  503  502  0.00000000000E+00  0.00000000000E+00  0.51382317098E+03  0.51382317098E+03  0.00000000000E+00 0. -1.
         21   -1    0    0  501  503 -0.00000000000E+00 -0.00000000000E+00 -0.14941363346E+03  0.14941363346E+03  0.00000000000E+00 0.  1.
          6    2    1    2  501    0  0.93206019204E+01 -0.13839961501E+03 -0.17127188547E+02  0.22143853661E+03  0.17175668212E+03 0.  0.
         24    2    3    3    0    0  0.43260768037E+02 -0.92395287374E+02 -0.67069730082E+02  0.14538144955E+03  0.78924229487E+02 0.  0.
         -6    2    1    2    0  502 -0.93206019204E+01  0.13839961501E+03  0.38153672606E+03  0.44179826783E+03  0.17428169460E+03 0.  0.
        -24    2    5    5    0    0  0.42282796296E+02  0.16323861655E+02  0.17270674791E+03  0.19441708415E+03  0.76916048492E+02 0.  0.
          5    1    3    3  501    0 -0.33940166116E+02 -0.46004327633E+02  0.49942541535E+02  0.76057087059E+02  0.47000000000E+01 0. -1.
        -13    1    4    4    0    0 -0.80130443928E+00 -0.83019911189E+02 -0.51592841410E+02  0.97748498850E+02  0.00000000000E+00 0.  1.
         14    1    4    4    0    0  0.44062072476E+02 -0.93753761847E+01 -0.15476888673E+02  0.47632950701E+02  0.00000000000E+00 0. -1.
         -5    1    5    5    0  502 -0.51603398216E+02  0.12207575335E+03  0.20882997815E+03  0.24738118368E+03  0.47000000000E+01 0.  1.
         13    1    6    6    0    0 -0.17912815065E+02 -0.85762535961E+01  0.19038519270E+02  0.27511566391E+02  0.00000000000E+00 0. -1.
        -14    1    6    6    0    0  0.60195611360E+02  0.24900115251E+02  0.15366822864E+03  0.16690551776E+03  0.00000000000E+00 0.  1.
</event>
<event>
12    1  0.1593360E-001  0.2107076E+03  0.7818608E-02  0.1141148E+00
         21   -1    0    0  503  502  0.00000000000E+00  0.00000000000E+00  0.90004066895E+02  0.90004066895E+02  0.00000000000E+00 0.  1.
         21   -1    0    0  501  503 -0.00000000000E+00 -0.00000000000E+00 -0.59245526968E+03  0.59245526968E+03  0.00000000000E+00 0. -1.
          6    2    1    2  501    0 -0.12074182081E+03 -0.87313374658E+00 -0.39235727309E+03  0.44535592717E+03  0.17267982648E+03 0.  0.
         24    2    3    3    0    0 -0.13506896353E+03 -0.43102179693E+02 -0.33441064963E+03  0.37208614820E+03  0.80722960170E+02 0.  0.
         -6    2    1    2    0  502  0.12074182081E+03  0.87313374658E+00 -0.11009392970E+03  0.23710340940E+03  0.17180804329E+03 0.  0.
        -24    2    5    5    0    0  0.55481159911E+02  0.57283408427E+02 -0.26066738592E+02  0.11658896298E+03  0.80956552807E+02 0.  0.
          5    1    3    3  501    0  0.14327142722E+02  0.42229045947E+02 -0.57946623458E+02  0.73269778970E+02  0.47000000000E+01 0. -1.
        -11    1    4    4    0    0 -0.95671608825E+02 -0.40664989374E+02 -0.14385465489E+03  0.17748481577E+03  0.00000000000E+00 0.  1.
         12    1    4    4    0    0 -0.39397354703E+02 -0.24371903189E+01 -0.19055599474E+03  0.19460133243E+03  0.00000000000E+00 0. -1.
         -5    1    5    5    0  502  0.65260660895E+02 -0.56410274680E+02 -0.84027191104E+02  0.12051444642E+03  0.47000000000E+01 0.  1.
         11    1    6    6    0    0 -0.16964009756E+01  0.25360470624E+02  0.23377859859E+02  0.34533398010E+02  0.00000000000E+00 0. -1.
        -12    1    6    6    0    0  0.57177560887E+02  0.31922937803E+02 -0.49444598451E+02  0.82055564972E+02  0.00000000000E+00 0.  1.
</event>
<event>
12    1  0.1593360E-001  0.1868305E+03  0.7818608E-02  0.1161541E+00
         21   -1    0    0  501  502  0.00000000000E+00  0.00000000000E+00  0.53967778323E+03  0.53967778323E+03  0.00000000000E+00 0.  1.
         21   -1    0    0  502  503 -0.00000000000E+00 -0.00000000000E+00 -0.14318014137E+03  0.14318014137E+03  0.00000000000E+00 0. -1.
         -6    2    1    2    0  503  0.62600100578E+02 -0.29454583673E+02 -0.55216597844E+02  0.19403138914E+03  0.17266430494E+03 0.  0.
        -24    2    3    3    0    0 -0.20107706963E+01 -0.63540242631E+01 -0.86324149773E+02  0.11854648787E+03  0.80975268631E+02 0.  0.
          6    2    1    2  501    0 -0.62600100578E+02  0.29454583673E+02  0.45171423969E+03  0.48882653546E+03  0.17354907761E+03 0.  0.
         24    2    5    5    0    0 -0.10006138378E+02  0.39888219829E+02  0.41281399352E+03  0.42241640991E+03  0.79555246401E+02 0.  0.
          5    1    5    5  501    0 -0.52593962200E+02 -0.10433636156E+02  0.38900246176E+02  0.66410125553E+02  0.47000000000E+01 0. -1.
        -13    1    6    6    0    0 -0.37347945930E+02 -0.33912020329E+01  0.20403818469E+03  0.20745589924E+03  0.00000000000E+00 0.  1.
         14    1    6    6    0    0  0.27341807552E+02  0.43279421862E+02  0.20877580883E+03  0.21496051067E+03  0.00000000000E+00 0. -1.
         -5    1    3    3    0  503  0.64610871274E+02 -0.23100559410E+02  0.31107551929E+02  0.75484901264E+02  0.47000000000E+01 0.  1.
         11    1    4    4    0    0  0.31201154009E+02  0.13920633200E+00 -0.77543099861E+02  0.83585068798E+02  0.00000000000E+00 0. -1.
        -12    1    4    4    0    0 -0.33211924705E+02 -0.64932305951E+01 -0.87810499123E+01  0.34961419075E+02  0.00000000000E+00 0.  1.
</event>
<event>
12    1  0.1593360E-001  0.1848513E+03  0.7818608E-02  0.1163738E+00
         21   -1    0    0  501  502  0.00000000000E+00  0.00000000000E+00  0.42753742874E+03  0.42753742874E+03  0.00000000000E+00 0. -1.
         21   -1    0    0  502  503 -0.00000000000E+00 -0.00000000000E+00 -0.85009141861E+02  0.85009141861E+02  0.00000000000E+00 0. -1.
         -6    2    1    2    0  503  0.52837014567E+02 -0.33169052615E+02  0.10367323911E+03  0.21193899055E+03  0.17400591670E+03 0.  0.
        -24    2    3    3    0    0  0.37711320511E+02 -0.89128978580E+02  0.59223713222E+02  0.13873960335E+03  0.79844291046E+02 0.  0.
          6    2    1    2  501    0 -0.52837014567E+02  0.33169052615E+02  0.23885504777E+03  0.30060758005E+03  0.17152622884E+03 0.  0.
         24    2    5    5    0    0  0.10844143071E+02  0.41805658196E+02  0.20530912093E+03  0.22796255268E+03  0.89161548841E+02 0.  0.
          5    1    5    5  501    0 -0.63681157638E+02 -0.86366055815E+01  0.33545926839E+02  0.72645027370E+02  0.47000000000E+01 0. -1.
        -11    1    6    6    0    0  0.26411413749E+02 -0.92186844262E+01  0.18142845414E+02  0.33342311835E+02  0.00000000000E+00 0.  1.
         12    1    6    6    0    0 -0.15567270679E+02  0.51024342623E+02  0.18716627551E+03  0.19462024084E+03  0.00000000000E+00 0. -1.
         -5    1    3    3    0  503  0.15125694056E+02  0.55959925965E+02  0.44449525891E+02  0.73199387202E+02  0.47000000000E+01 0.  1.
         11    1    4    4    0    0  0.22703984646E+02  0.97513603859E+01  0.59191262004E+01  0.25408581289E+02  0.00000000000E+00 0. -1.
        -12    1    4    4    0    0  0.15007335866E+02 -0.98880338966E+02  0.53304587021E+02  0.11333102206E+03  0.00000000000E+00 0.  1.
</event>
<event>
12    1  0.1593360E-001  0.1780312E+03  0.7818608E-02  0.1170122E+00
         21   -1    0    0  501  502  0.00000000000E+00  0.00000000000E+00  0.47239035667E+03  0.47239035667E+03  0.00000000000E+00 0. -1.
         21   -1    0    0  502  503 -0.00000000000E+00 -0.00000000000E+00 -0.88378787262E+02  0.88378787262E+02  0.00000000000E+00 0. -1.
         -6    2    1    2    0  503  0.27586175699E+02 -0.27935172008E+02  0.53117237138E+02  0.18578634358E+03  0.17364836208E+03 0.  0.
        -24    2    3    3    0    0  0.19738530918E+00 -0.29572054368E+02 -0.35545731701E+02  0.92856061828E+02  0.80524554116E+02 0.  0.
          6    2    1    2  501    0 -0.27586175699E+02  0.27935172008E+02  0.33089433227E+03  0.37498280036E+03  0.17198741380E+03 0.  0.
         24    2    5    5    0    0 -0.34063929644E+02 -0.29549109814E+02  0.11220581686E+03  0.14872374369E+03  0.86574276806E+02 0.  0.
          5    1    5    5  501    0  0.64777539445E+01  0.57484281822E+02  0.21868851541E+03  0.22625905667E+03  0.47000000000E+01 0. -1.
        -13    1    6    6    0    0 -0.30924022513E+02  0.69467733727E+01  0.10765444056E+01  0.31712959126E+02  0.00000000000E+00 0.  1.
         14    1    6    6    0    0 -0.31399071308E+01 -0.36495883187E+02  0.11112927246E+03  0.11701078456E+03  0.00000000000E+00 0. -1.
         -5    1    3    3    0  503  0.27388790390E+02  0.16368823602E+01  0.88662968840E+02  0.92930281751E+02  0.47000000000E+01 0.  1.
         13    1    4    4    0    0  0.11750305872E+01  0.25641829801E+02  0.25092459938E+01  0.25791092413E+02  0.00000000000E+00 0. -1.
        -14    1    4    4    0    0 -0.97764527798E+00 -0.55213884168E+02 -0.38054977695E+02  0.67064969415E+02  0.00000000000E+00 0.  1.
</event>
<event>
12    1  0.1593360E-001  0.2040910E+03  0.7818608E-02  0.1146364E+00
         21   -1    0    0  501  502  0.00000000000E+00  0.00000000000E+00  0.52667389471E+03  0.52667389471E+03  0.00000000000E+00 0. -1.
         21   -1    0    0  502  503 -0.00000000000E+00 -0.00000000000E+00 -0.93392495774E+02  0.93392495774E+02  0.00000000000E+00 0.  1.
         -6    2    1    2    0  503  0.10252324955E+03 -0.41612551537E+02  0.94983541793E+02  0.22497327027E+03  0.17131397485E+03 0.  0.
        -24    2    3    3    0    0 -0.94600885091E+01 -0.55200776897E+01  0.67501115919E+02  0.10405880297E+03  0.78433852975E+02 0.  0.
          6    2    1    2  501    0 -0.10252324955E+03  0.41612551537E+02  0.33829785714E+03  0.39509312021E+03  0.17149493389E+03 0.  0.
         24    2    5    5    0    0 -0.10902187013E+03 -0.17228843205E+02  0.18007441914E+03  0.22609226774E+03  0.80674134004E+02 0.  0.
          5    1    5    5  501    0  0.64986205855E+01  0.58841394743E+02  0.15822343800E+03  0.16900085247E+03  0.47000000000E+01 0. -1.
        -13    1    6    6    0    0 -0.70671988501E+02  0.26876389695E+02  0.79112224960E+02  0.10943315046E+03  0.00000000000E+00 0.  1.
         14    1    6    6    0    0 -0.38349881631E+02 -0.44105232900E+02  0.10096219418E+03  0.11665911728E+03  0.00000000000E+00 0. -1.
         -5    1    3    3    0  503  0.11198333806E+03 -0.36092473848E+02  0.27482425874E+02  0.12091446730E+03  0.47000000000E+01 0.  1.
         11    1    4    4    0    0 -0.12933963073E+01  0.14924707740E+02  0.78171296555E+02  0.79593789835E+02  0.00000000000E+00 0. -1.
        -12    1    4    4    0    0 -0.81666922018E+01 -0.20444785429E+02 -0.10670180637E+02  0.24465013133E+02  0.00000000000E+00 0.  1.
</event>
<event>
12    1  0.1593360E-001  0.2957271E+03  0.7818608E-02  0.1087564E+00
         21   -1    0    0  501  502  0.00000000000E+00  0.00000000000E+00  0.19909206061E+03  0.19909206061E+03  0.00000000000E+00 0. -1.
         21   -1    0    0  502  503 -0.00000000000E+00 -0.00000000000E+00 -0.59592220470E+03  0.59592220470E+03  0.00000000000E+00 0.  1.
         -6    2    1    2    0  503  0.22221156968E+03  0.94217157408E+02 -0.40316580884E+03  0.49921932759E+03  0.16858948121E+03 0.  0.
        -24    2    3    3    0    0  0.16393857751E+03  0.19434766777E+02 -0.18121647825E+03  0.25782391978E+03  0.79876118240E+02 0.  0.
          6    2    1    2  501    0 -0.22221156968E+03 -0.94217157408E+02  0.63356647568E+01  0.29579493772E+03  0.17087905103E+03 0.  0.
         24    2    5    5    0    0 -0.73971211817E+02 -0.92225532160E+02 -0.23635460543E+02  0.14446903569E+03  0.79595089796E+02 0.  0.
          5    1    5    5  501    0 -0.14824035787E+03 -0.19916252484E+01  0.29971125299E+02  0.15132590202E+03  0.47000000000E+01 0. -1.
        -11    1    6    6    0    0  0.43855541338E+01 -0.13668710676E+00 -0.23141988929E+02  0.23554265432E+02  0.00000000000E+00 0.  1.
         12    1    6    6    0    0 -0.78356765951E+02 -0.92088845053E+02 -0.49347161360E+00  0.12091477026E+03  0.00000000000E+00 0. -1.
         -5    1    3    3    0  503  0.58272992172E+02  0.74782390631E+02 -0.22194933059E+03  0.24139540781E+03  0.47000000000E+01 0.  1.
         11    1    4    4    0    0  0.84544971628E+02  0.48581565037E+02 -0.81602955353E+02  0.12714976607E+03  0.00000000000E+00 0. -1.
        -12    1    4    4    0    0  0.79393605882E+02 -0.29146798260E+02 -0.99613522899E+02  0.13067415371E+03  0.00000000000E+00 0.  1.
</event>
<event>
12    1  0.1593360E-001  0.1825244E+03  0.7818608E-02  0.1166099E+00
         21   -1    0    0  503  502  0.00000000000E+00  0.00000000000E+00  0.15998376597E+04  0.15998376597E+04  0.00000000000E+00 0. -1.
         21   -1    0    0  501  503 -0.00000000000E+00 -0.00000000000E+00 -0.20948435863E+02  0.20948435863E+02  0.00000000000E+00 0. -1.
          6    2    1    2  501    0 -0.32399094175E+02  0.41771763120E+02  0.66246980418E+03  0.68636664118E+03  0.17157605650E+03 0.  0.
         24    2    3    3    0    0  0.37114373063E+02  0.61455234067E+02  0.42844164805E+03  0.44139556326E+03  0.78189353442E+02 0.  0.
         -6    2    1    2    0  502  0.32399094175E+02 -0.41771763120E+02  0.91641941963E+03  0.93441945437E+03  0.17470140961E+03 0.  0.
        -24    2    5    5    0    0  0.74099593033E+01 -0.61752047830E+02  0.87980380749E+03  0.88556802971E+03  0.79421487375E+02 0.  0.
          5    1    3    3  501    0 -0.69513467238E+02 -0.19683470946E+02  0.23402815613E+03  0.24497107792E+03  0.47000000000E+01 0. -1.
        -11    1    4    4    0    0  0.11090119314E+02 -0.24415272906E+01  0.24728580264E+03  0.24754639967E+03  0.00000000000E+00 0.  1.
         12    1    4    4    0    0  0.26024253750E+02  0.63896761357E+02  0.18115584541E+03  0.19384916359E+03  0.00000000000E+00 0. -1.
         -5    1    5    5    0  502  0.24989134872E+02  0.19980284709E+02  0.36615612143E+02  0.48851424660E+02  0.47000000000E+01 0.  1.
         13    1    6    6    0    0  0.36583409642E+02 -0.63083272990E+01  0.39295084592E+03  0.39470052972E+03  0.00000000000E+00 0. -1.
        -14    1    6    6    0    0 -0.29173450339E+02 -0.55443720531E+02  0.48685296157E+03  0.49086749999E+03  0.00000000000E+00 0.  1.
</event>
<event>
12    1  0.1593360E-001  0.1774701E+03  0.7818608E-02  0.1170517E+00
         21   -1    0    0  503  502  0.00000000000E+00  0.00000000000E+00  0.19565107114E+04  0.19565107114E+04  0.00000000000E+00 0.  1.
         21   -1    0    0  501  503 -0.00000000000E+00 -0.00000000000E+00 -0.20298310142E+02  0.20298310142E+02  0.00000000000E+00 0.  1.
          6    2    1    2  501    0  0.15500218970E+02  0.34953835709E+02  0.51586537972E+03  0.54553892759E+03  0.17330206031E+03 0.  0.
         24    2    3    3    0    0  0.87936394184E+01 -0.30748786971E+01  0.10335636438E+03  0.13119976813E+03  0.80274891006E+02 0.  0.
         -6    2    1    2    0  502 -0.15500218970E+02 -0.34953835709E+02  0.14203470216E+04  0.14312700940E+04  0.17229739644E+03 0.  0.
        -24    2    5    5    0    0  0.39871808992E+02  0.25627169293E+02  0.83684016894E+03  0.84200066773E+03  0.80107073018E+02 0.  0.
          5    1    3    3  501    0  0.67065795520E+01  0.38028714406E+02  0.41250901534E+03  0.41433915947E+03  0.47000000000E+01 0. -1.
        -13    1    4    4    0    0 -0.16348909990E+02  0.17663645242E+02  0.13423030093E+01  0.24105870622E+02  0.00000000000E+00 0.  1.
         14    1    4    4    0    0  0.25142549408E+02 -0.20738523939E+02  0.10201406137E+03  0.10709389750E+03  0.00000000000E+00 0. -1.
         -5    1    5    5    0  502 -0.55372027962E+02 -0.60581005001E+02  0.58350685262E+03  0.58926942624E+03  0.47000000000E+01 0.  1.
         11    1    6    6    0    0  0.40329085812E+02  0.52451468754E+02  0.61159097705E+03  0.61515942238E+03  0.00000000000E+00 0. -1.
        -12    1    6    6    0    0 -0.45727681971E+00 -0.26824299461E+02  0.22524919189E+03  0.22684124535E+03  0.00000000000E+00 0.  1.
</event>
<event>
12    1  0.1593360E-001  0.1898684E+03  0.7818608E-02  0.1158877E+00
         21   -1    0    0  503  502  0.00000000000E+00  0.00000000000E+00  0.63711978975E+03  0.63711978975E+03  0.00000000000E+00 0.  1.
         21   -1    0    0  501  503 -0.00000000000E+00 -0.00000000000E+00 -0.12939897950E+03  0.12939897950E+03  0.00000000000E+00 0.  1.
          6    2    1    2  501    0  0.56110092999E+02 -0.54239072842E+02 -0.34790452127E+02  0.19174187189E+03  0.17165182876E+03 0.  0.
         24    2    3    3    0    0 -0.15362062877E+02 -0.75785506072E+01 -0.67853072274E+02  0.10008653788E+03  0.71553114841E+02 0.  0.
         -6    2    1    2    0  502 -0.56110092999E+02  0.54239072842E+02  0.54251126237E+03  0.57477689736E+03  0.17308897245E+03 0.  0.
        -24    2    5    5    0    0  0.17328002340E+01  0.26346075517E+02  0.11477052069E+03  0.14221701516E+03  0.79726336236E+02 0.  0.
          5    1    3    3  501    0  0.71472155876E+02 -0.46660522235E+02  0.33062620148E+02  0.91655334006E+02  0.47000000000E+01 0. -1.
        -13    1    4    4    0    0  0.15664650040E+02  0.21711001529E+02 -0.43158635596E+02  0.50787957970E+02  0.00000000000E+00 0.  1.
         14    1    4    4    0    0 -0.31026712917E+02 -0.29289552136E+02 -0.24694436679E+02  0.49298579915E+02  0.00000000000E+00 0. -1.
         -5    1    5    5    0  502 -0.57842893233E+02  0.27892997325E+02  0.42774074168E+03  0.43255988220E+03  0.47000000000E+01 0.  1.
         13    1    6    6    0    0  0.27070909274E+02 -0.13307561002E+02  0.19389136243E+02  0.35858944671E+02  0.00000000000E+00 0. -1.
        -14    1    6    6    0    0 -0.25338109040E+02  0.39653636519E+02  0.95381384446E+02  0.10635807049E+03  0.00000000000E+00 0.  1.
</event>
<event>
12    1  0.1593360E-001  0.3437641E+03  0.7818608E-02  0.1065587E+00
         21   -1    0    0  503  502  0.00000000000E+00  0.00000000000E+00  0.30718666864E+03  0.30718666864E+03  0.00000000000E+00 0.  1.
         21   -1    0    0  501  503 -0.00000000000E+00 -0.00000000000E+00 -0.39032659831E+03  0.39032659831E+03  0.00000000000E+00 0. -1.
          6    2    1    2  501    0  0.24556199791E+03  0.16064577177E+03  0.13567070552E+02  0.34040546005E+03  0.17200015413E+03 0.  0.
         24    2    3    3    0    0  0.16540741936E+03  0.12715115351E+03  0.72588654171E+02  0.23527562010E+03  0.80984408871E+02 0.  0.
         -6    2    1    2    0  502 -0.24556199791E+03 -0.16064577177E+03 -0.96707000220E+02  0.35710780689E+03  0.17906977145E+03 0.  0.
        -24    2    5    5    0    0 -0.10021222707E+03 -0.95827900267E+02 -0.11494618344E+03  0.19684967090E+03  0.79446151068E+02 0.  0.
          5    1    3    3  501    0  0.80154578549E+02  0.33494618261E+02 -0.59021583620E+02  0.10512983995E+03  0.47000000000E+01 0. -1.
        -13    1    4    4    0    0  0.11653488618E+03  0.11801248726E+03  0.27424556823E+02  0.16810542277E+03  0.00000000000E+00 0.  1.
         14    1    4    4    0    0  0.48872533184E+02  0.91386662479E+01  0.45164097348E+02  0.67170197334E+02  0.00000000000E+00 0. -1.
         -5    1    5    5    0  502 -0.14534977084E+03 -0.64817871507E+02  0.18239183221E+02  0.16025813600E+03  0.47000000000E+01 0.  1.
         11    1    6    6    0    0 -0.74301667729E+02 -0.17592237157E+02 -0.44143294310E+02  0.88197817819E+02  0.00000000000E+00 0. -1.
        -12    1    6    6    0    0 -0.25910559345E+02 -0.78235663110E+02 -0.70802889130E+02  0.10865185308E+03  0.00000000000E+00 0.  1.
</event>
<event>
12    1  0.1593360E-001  0.1870637E+03  0.7818608E-02  0.1161400E+00
         21   -1    0    0  503  502  0.00000000000E+00  0.00000000000E+00  0.14518735173E+04  0.14518735173E+04  0.00000000000E+00 0.  1.
         21   -1    0    0  501  503 -0.00000000000E+00 -0.00000000000E+00 -0.24085972365E+02  0.24085972365E+02  0.00000000000E+00 0.  1.
          6    2    1    2  501    0  0.44751997775E+02 -0.57095729047E+02  0.77047565825E+03  0.79285910322E+03  0.17242434290E+03 0.  0.
         24    2    3    3    0    0  0.79434520930E+02  0.42302928995E+01  0.41721478285E+03  0.43261044678E+03  0.82194191646E+02 0.  0.
         -6    2    1    2    0  502 -0.44751997775E+02  0.57095729047E+02  0.65731188667E+03  0.68310038643E+03  0.17118574123E+03 0.  0.
        -24    2    5    5    0    0 -0.48486605152E+02 -0.19935325552E+01  0.18734600549E+03  0.20939635689E+03  0.79958635893E+02 0.  0.
          5    1    3    3  501    0 -0.34682523155E+02 -0.61326021947E+02  0.35326087540E+03  0.36024865644E+03  0.47000000000E+01 0. -1.
        -11    1    4    4    0    0  0.52627246821E+02  0.10475746805E+02  0.94092353274E+02  0.10831777012E+03  0.00000000000E+00 0.  1.
         12    1    4    4    0    0  0.26807274109E+02 -0.62454539051E+01  0.32312242958E+03  0.32429267666E+03  0.00000000000E+00 0. -1.
         -5    1    5    5    0  502  0.37346073765E+01  0.59089261603E+02  0.46996588118E+03  0.47370402954E+03  0.47000000000E+01 0.  1.
         11    1    6    6    0    0 -0.11833192556E+01 -0.15583972752E+02  0.14076965787E+03  0.14163458980E+03  0.00000000000E+00 0. -1.
        -12    1    6    6    0    0 -0.47303285896E+02  0.13590440197E+02  0.46576347623E+02  0.67761767090E+02  0.00000000000E+00 0.  1.
</event>
<event>
12    1  0.1593360E-001  0.2566339E+03  0.7818608E-02  0.1109310E+00
         21   -1    0    0  503  502  0.00000000000E+00  0.00000000000E+00  0.11363898667E+03  0.11363898667E+03  0.00000000000E+00 0.  1.
         21   -1    0    0  501  503 -0.00000000000E+00 -0.00000000000E+00 -0.65287894679E+03  0.65287894679E+03  0.00000000000E+00 0. -1.
          6    2    1    2  501    0  0.12347390798E+03 -0.14396561104E+03 -0.40007947313E+03  0.47531520001E+03  0.17288450314E+03 0.  0.
         24    2    3    3    0    0  0.22141512730E+02 -0.10985747094E+03 -0.29500732890E+03  0.32533565127E+03  0.79088882746E+02 0.  0.
         -6    2    1    2    0  502 -0.12347390798E+03  0.14396561104E+03 -0.13916048700E+03  0.29120273345E+03  0.17164349016E+03 0.  0.
        -24    2    5    5    0    0 -0.13047435269E+03  0.95985258385E+02 -0.46638676942E+02  0.18663937561E+03  0.80139651882E+02 0.  0.
          5    1    3    3  501    0  0.10133239525E+03 -0.34108140103E+02 -0.10507214423E+03  0.14997954874E+03  0.47000000000E+01 0. -1.
        -13    1    4    4    0    0  0.26557855040E+02 -0.17421867106E+02 -0.26621029776E+02  0.41442977017E+02  0.00000000000E+00 0.  1.
         14    1    4    4    0    0 -0.44163423094E+01 -0.92435603834E+02 -0.26838629912E+03  0.28389267425E+03  0.00000000000E+00 0. -1.
         -5    1    5    5    0  502  0.70004447160E+01  0.47980352659E+02 -0.92521810053E+02  0.10456335784E+03  0.47000000000E+01 0.  1.
         11    1    6    6    0    0 -0.69302272252E+02  0.79516835813E+01 -0.37116426925E+02  0.79016854903E+02  0.00000000000E+00 0. -1.
        -12    1    6    6    0    0 -0.61172080441E+02  0.88033574803E+02 -0.95222500166E+01  0.10762252071E+03  0.00000000000E+00 0.  1.
</event>
<event>
12    1  0.1593360E-001  0.1865233E+03  0.7818608E-02  0.1162141E+00
         21   -1    0    0  501  502  0.00000000000E+00  0.00000000000E+00  0.55250707345E+03  0.55250707345E+03  0.00000000000E+00 0.  1.
         21   -1    0    0  502  503 -0.00000000000E+00 -0.00000000000E+00 -0.10321985670E+03  0.10321985670E+03  0.00000000000E+00 0.  1.
         -6    2    1    2    0  503 -0.27331052643E+02  0.68750729593E+02  0.18847793744E+02  0.18747317363E+03  0.17122296063E+03 0.  0.
        -24    2    3    3    0    0 -0.39152197837E+02 -0.21630024733E+02 -0.89924291166E+01  0.92049967678E+02  0.79947358947E+02 0.  0.
          6    2    1    2  501    0  0.27331052643E+02 -0.68750729593E+02  0.43043942301E+03  0.46825375651E+03  0.16884855449E+03 0.  0.
         24    2    5    5    0    0  0.56120343793E+02 -0.88395369118E+02  0.40206022786E+03  0.42306300675E+03  0.79791268850E+02 0.  0.
          5    1    5    5  501    0 -0.28789291150E+02  0.19644639525E+02  0.28379195148E+02  0.45190749764E+02  0.47000000000E+01 0. -1.
        -13    1    6    6    0    0  0.60420044715E+02 -0.23647256158E+02  0.16549531594E+03  0.17775959644E+03  0.00000000000E+00 0.  1.
         14    1    6    6    0    0 -0.42997009213E+01 -0.64748112960E+02  0.23656491192E+03  0.24530341031E+03  0.00000000000E+00 0. -1.
         -5    1    3    3    0  503  0.11821145194E+02  0.90380754326E+02  0.27840222860E+02  0.95423205957E+02  0.47000000000E+01 0.  1.
         13    1    4    4    0    0 -0.60740081822E+02 -0.16522400756E+02 -0.21580143582E+02  0.66543593708E+02  0.00000000000E+00 0. -1.
        -14    1    4    4    0    0  0.21587883985E+02 -0.51076239769E+01  0.12587714465E+02  0.25506373970E+02  0.00000000000E+00 0.  1.
</event>
<event>
12    1  0.1593360E-001  0.1851026E+03  0.7818608E-02  0.1163173E+00
         21   -1    0    0  501  502  0.00000000000E+00  0.00000000000E+00  0.15025447936E+03  0.15025447936E+03  0.00000000000E+00 0.  1.
         21   -1    0    0  502  503 -0.00000000000E+00 -0.00000000000E+00 -0.23151512557E+03  0.23151512557E+03  0.00000000000E+00 0.  1.
         -6    2    1    2    0  503 -0.63491795247E+02  0.30565563991E+02 -0.67727912881E+02  0.19710416496E+03  0.17116518307E+03 0.  0.
        -24    2    3    3    0    0 -0.25785108731E+02 -0.10364212528E+02  0.21843774895E+02  0.91547459514E+02  0.84448197779E+02 0.  0.
          6    2    1    2  501    0  0.63491795247E+02 -0.30565563991E+02 -0.13532733332E+02  0.18466543997E+03  0.17015501192E+03 0.  0.
         24    2    5    5    0    0  0.10435689680E+03 -0.23622258557E+02 -0.35054865030E+02  0.13772443265E+03  0.79314581127E+02 0.  0.
          5    1    5    5  501    0 -0.40865101549E+02 -0.69433054341E+01  0.21522131698E+02  0.46941007315E+02  0.47000000000E+01 0. -1.
        -13    1    6    6    0    0  0.23075300997E+02 -0.40576018039E+02 -0.27911350859E+02  0.54386820672E+02  0.00000000000E+00 0.  1.
         14    1    6    6    0    0  0.81281595799E+02  0.16953759482E+02 -0.71435141710E+01  0.83337611982E+02  0.00000000000E+00 0. -1.
         -5    1    3    3    0  503 -0.37706686516E+02  0.40929776519E+02 -0.89571687776E+02  0.10555670545E+03  0.47000000000E+01 0.  1.
         13    1    4    4    0    0  0.29207228878E+02 -0.16112860854E+02  0.11587549879E+02  0.35312289870E+02  0.00000000000E+00 0. -1.
        -14    1    4    4    0    0 -0.54992337609E+02  0.57486483265E+01  0.10256225016E+02  0.56235169644E+02  0.00000000000E+00 0.  1.
</event>
<event>
12    1  0.1593360E-001  0.1833488E+03  0.7818608E-02  0.1164649E+00
         21   -1    0    0  501  502  0.00000000000E+00  0.00000000000E+00  0.12661122829E+04  0.12661122829E+04  0.00000000000E+00 0.  1.
         21   -1    0    0  502  503 -0.00000000000E+00 -0.00000000000E+00 -0.44787218321E+02  0.44787218321E+02  0.00000000000E+00 0.  1.
         -6    2    1    2    0  503 -0.58038936280E+02  0.22092158390E+02  0.19188701257E+03  0.26526118532E+03  0.17229709591E+03 0.  0.
        -24    2    3    3    0    0 -0.81686540822E+02  0.27238771726E+02  0.67330461896E+02  0.13828827032E+03  0.84708989907E+02 0.  0.
          6    2    1    2  501    0  0.58038936280E+02 -0.22092158390E+02  0.10294380520E+04  0.10456383159E+04  0.17251145808E+03 0.  0.
         24    2    5    5    0    0 -0.43588583027E+01  0.24542739574E+02  0.77744503708E+03  0.78183750459E+03  0.78916108543E+02 0.  0.
          5    1    5    5  501    0  0.62397794583E+02 -0.46634897964E+02  0.25199301497E+03  0.26380081135E+03  0.47000000000E+01 0. -1.
        -11    1    6    6    0    0 -0.32263387042E+01 -0.24726023344E+02  0.45148438500E+03  0.45217246200E+03  0.00000000000E+00 0.  1.
         12    1    6    6    0    0 -0.11325195985E+01  0.49268762918E+02  0.32596065208E+03  0.32966504259E+03  0.00000000000E+00 0. -1.
         -5    1    3    3    0  503  0.23647604542E+02 -0.51466133360E+01  0.12455655067E+03  0.12697291500E+03  0.47000000000E+01 0.  1.
         13    1    4    4    0    0 -0.56275449733E+02  0.46355321527E+02  0.76011632754E+02  0.10532573470E+03  0.00000000000E+00 0. -1.
        -14    1    4    4    0    0 -0.25411091090E+02 -0.19116549801E+02 -0.86811708577E+01  0.32962535614E+02  0.00000000000E+00 0.  1.
</event>
<event>
12    1  0.1593360E-001  0.2666019E+03  0.7818608E-02  0.1103613E+00
         21   -1    0    0  501  502  0.00000000000E+00  0.00000000000E+00  0.10751943668E+04  0.10751943668E+04  0.00000000000E+00 0. -1.
         21   -1    0    0  502  503 -0.00000000000E+00 -0.00000000000E+00 -0.69409408231E+02  0.69409408231E+02  0.00000000000E+00 0. -1.
         -6    2    1    2    0  503 -0.14947640878E+03  0.13277399327E+03  0.36435074013E+03  0.44997119842E+03  0.17248329629E+03 0.  0.
        -24    2    3    3    0    0 -0.35798593411E+01  0.62643826803E+02  0.11105076202E+03  0.14932686985E+03  0.77647780938E+02 0.  0.
          6    2    1    2  501    0  0.14947640878E+03 -0.13277399327E+03  0.64143421846E+03  0.69463257664E+03  0.17636448010E+03 0.  0.
         24    2    5    5    0    0  0.17256073553E+03 -0.80925262617E+02  0.54117321604E+03  0.57932630786E+03  0.80152452545E+02 0.  0.
          5    1    5    5  501    0 -0.23084326748E+02 -0.51848730654E+02  0.10026100243E+03  0.11530626878E+03  0.47000000000E+01 0. -1.
        -11    1    6    6    0    0  0.11117686542E+03 -0.15943210168E+02  0.36313444017E+03  0.38010669948E+03  0.00000000000E+00 0.  1.
         12    1    6    6    0    0  0.61383870109E+02 -0.64982052449E+02  0.17803877587E+03  0.19921960838E+03  0.00000000000E+00 0. -1.
         -5    1    3    3    0  503 -0.14589654944E+03  0.70130166468E+02  0.25329997812E+03  0.30064432857E+03  0.47000000000E+01 0.  1.
         11    1    4    4    0    0 -0.28742348244E+02  0.64194635685E+02  0.98850189698E+02  0.12131955257E+03  0.00000000000E+00 0. -1.
        -12    1    4    4    0    0  0.25162488903E+02 -0.15508088822E+01  0.12200572319E+02  0.28007317274E+02  0.00000000000E+00 0.  1.
</event>
<event>
12    1  0.1593360E-001  0.2443290E+03  0.7818608E-02  0.1116972E+00
         21   -1    0    0  501  502  0.00000000000E+00  0.00000000000E+00  0.48349797567E+03  0.48349797567E+03  0.00000000000E+00 0. -1.
         21   -1    0    0  502  503 -0.00000000000E+00 -0.00000000000E+00 -0.15089982463E+03  0.15089982463E+03  0.00000000000E+00 0. -1.
         -6    2    1    2    0  503  0.16181835156E+03  0.58544842814E+02  0.30879841719E+02  0.24627268421E+03  0.17344737774E+03 0.  0.
        -24    2    3    3    0    0  0.22230496523E+02  0.48045060071E+02 -0.17149497284E+02  0.98205395064E+02  0.80917684036E+02 0.  0.
          6    2    1    2  501    0 -0.16181835156E+03 -0.58544842814E+02  0.30171830932E+03  0.38812511609E+03  0.17318917413E+03 0.  0.
         24    2    5    5    0    0 -0.12789402185E+03 -0.98426642219E+02  0.17714519115E+03  0.25291428131E+03  0.80873544624E+02 0.  0.
          5    1    5    5  501    0 -0.33924329710E+02  0.39881799405E+02  0.12457311817E+03  0.13521083478E+03  0.47000000000E+01 0. -1.
        -13    1    6    6    0    0 -0.53365548067E+02 -0.14519766003E+02  0.17965736372E+02  0.58150434295E+02  0.00000000000E+00 0.  1.
         14    1    6    6    0    0 -0.74528473779E+02 -0.83906876216E+02  0.15917945478E+03  0.19476384702E+03  0.00000000000E+00 0. -1.
         -5    1    3    3    0  503  0.13958785503E+03  0.10499782743E+02  0.48029339003E+02  0.14806728915E+03  0.47000000000E+01 0.  1.
         11    1    4    4    0    0  0.37855558014E+02  0.30722294851E+02 -0.41833918188E+02  0.64241570532E+02  0.00000000000E+00 0. -1.
        -12    1    4    4    0    0 -0.15625061491E+02  0.17322765221E+02  0.24684420904E+02  0.33963824532E+02  0.00000000000E+00 0.  1.
</event>
<event>
12    1  0.1593360E-001  0.1818049E+03  0.7818608E-02  0.1166445E+00
         21   -1    0    0  501  502  0.00000000000E+00  0.00000000000E+00  0.17627088680E+02  0.17627088680E+02  0.00000000000E+00 0. -1.
         21   -1    0    0  502  503 -0.00000000000E+00 -0.00000000000E+00 -0.20477885999E+04  0.20477885999E+04  0.00000000000E+00 0. -1.
         -6    2    1    2    0  503 -0.45948329592E+02  0.34214137533E+02 -0.70546671631E+03  0.72851651275E+03  0.17254322742E+03 0.  0.
        -24    2    3    3    0    0  0.19334081564E+02 -0.20158748954E+02 -0.20352995504E+03  0.21941848063E+03  0.77070391039E+02 0.  0.
          6    2    1    2  501    0  0.45948329592E+02 -0.34214137533E+02 -0.13246947949E+04  0.13368991758E+04  0.17088373381E+03 0.  0.
         24    2    5    5    0    0  0.16061728198E+02 -0.77571318059E+02 -0.58886130803E+03  0.59916882912E+03  0.77268086529E+02 0.  0.
          5    1    5    5  501    0  0.29886601395E+02  0.43357180526E+02 -0.73583348689E+03  0.73773034672E+03  0.47000000000E+01 0. -1.
        -11    1    6    6    0    0 -0.27274112416E+02 -0.44322356725E+02 -0.20804764599E+03  0.21445785487E+03  0.00000000000E+00 0.  1.
         12    1    6    6    0    0  0.43335840614E+02 -0.33248961334E+02 -0.38081366204E+03  0.38471097425E+03  0.00000000000E+00 0. -1.
         -5    1    3    3    0  503 -0.65282411156E+02  0.54372886487E+02 -0.50193676127E+03  0.50909803211E+03  0.47000000000E+01 0.  1.
         11    1    4    4    0    0 -0.28517854784E+02 -0.22621287419E+01 -0.99337464279E+02  0.10337464427E+03  0.00000000000E+00 0. -1.
        -12    1    4    4    0    0  0.47851936348E+02 -0.17896620213E+02 -0.10419249076E+03  0.11604383637E+03  0.00000000000E+00 0.  1.
</event>
<event>
12    1  0.1593360E-001  0.2536637E+03  0.7818608E-02  0.1112919E+00
         21   -1    0    0  501  502  0.00000000000E+00  0.00000000000E+00  0.29168444032E+03  0.29168444032E+03  0.00000000000E+00 0.  1.
         21   -1    0    0  502  503 -0.00000000000E+00 -0.00000000000E+00 -0.24089117555E+03  0.24089117555E+03  0.00000000000E+00 0.  1.
         -6    2    1    2    0  503  0.17325544057E+03 -0.67801479240E+02  0.11973571072E+03  0.26971001439E+03  0.15424773310E+03 0.  0.
        -24    2    3    3    0    0  0.34347902318E+02 -0.35456877912E+02  0.71879193221E+02  0.11919817537E+03  0.81268800952E+02 0.  0.
          6    2    1    2  501    0 -0.17325544057E+03  0.67801479240E+02 -0.68942445955E+02  0.26286560148E+03  0.17242614452E+03 0.  0.
         24    2    5    5    0    0 -0.12719993394E+03 -0.10794722916E+02 -0.46499850053E+01  0.15126773761E+03  0.81018250071E+02 0.  0.
          5    1    5    5  501    0 -0.46055506626E+02  0.78596202157E+02 -0.64292460950E+02  0.11159786386E+03  0.47000000000E+01 0. -1.
        -13    1    6    6    0    0 -0.37071718518E+02  0.16035955807E+02  0.30774800454E+02  0.50779449933E+02  0.00000000000E+00 0.  1.
         14    1    6    6    0    0 -0.90128215423E+02 -0.26830678724E+02 -0.35424785459E+02  0.10048828768E+03  0.00000000000E+00 0. -1.
         -5    1    3    3    0  503  0.13890753825E+03 -0.32344601328E+02  0.47856517502E+02  0.15051183902E+03  0.47000000000E+01 0.  1.
         13    1    4    4    0    0 -0.37113295935E+01  0.18265511570E+02 -0.36598274999E+01  0.18994662871E+02  0.00000000000E+00 0. -1.
        -14    1    4    4    0    0  0.38059231912E+02 -0.53722389482E+02  0.75539020721E+02  0.10020351250E+03  0.00000000000E+00 0.  1.
</event>
<event>
12    1  0.1593360E-001  0.2872188E+03  0.7818608E-02  0.1092077E+00
         21   -1    0    0  503  502  0.00000000000E+00  0.00000000000E+00  0.16871334896E+04  0.16871334896E+04  0.00000000000E+00 0. -1.
         21   -1    0    0  501  503 -0.00000000000E+00 -0.00000000000E+00 -0.48586802296E+02  0.48586802296E+02  0.00000000000E+00 0. -1.
          6    2    1    2  501    0  0.55757439862E+02 -0.22392286627E+03  0.79989943253E+03  0.84990218876E+03  0.17100960836E+03 0.  0.
         24    2    3    3    0    0 -0.21749520576E+02 -0.63362025377E+02  0.22992480307E+03  0.25267502864E+03  0.80569641488E+02 0.  0.
         -6    2    1    2    0  502 -0.55757439862E+02  0.22392286627E+03  0.83864725473E+03  0.88581810309E+03  0.16761310141E+03 0.  0.
        -24    2    5    5    0    0 -0.58651505292E+02  0.17058880265E+03  0.42208158652E+03  0.46581578895E+03  0.79315477007E+02 0.  0.
          5    1    3    3  501    0  0.77506960438E+02 -0.16056084090E+03  0.56997462946E+03  0.59722716011E+03  0.47000000000E+01 0. -1.
        -13    1    4    4    0    0  0.15983789284E+02  0.10031123431E+02  0.22074429371E+02  0.29041098279E+02  0.00000000000E+00 0.  1.
         14    1    4    4    0    0 -0.37733309860E+02 -0.73393148808E+02  0.20785037369E+03  0.22363393036E+03  0.00000000000E+00 0. -1.
         -5    1    5    5    0  502  0.28940654302E+01  0.53334063625E+02  0.41656566820E+03  0.42000231414E+03  0.47000000000E+01 0.  1.
         11    1    6    6    0    0 -0.23459425013E+02  0.13077919494E+03  0.22130080518E+03  0.25812320474E+03  0.00000000000E+00 0. -1.
        -12    1    6    6    0    0 -0.35192080280E+02  0.39809607708E+02  0.20078078135E+03  0.20769258422E+03  0.00000000000E+00 0.  1.
</event>
<event>
12    1  0.1593360E-001  0.2290368E+03  0.7818608E-02  0.1131296E+00
         21   -1    0    0  501  502  0.00000000000E+00  0.00000000000E+00  0.80735292939E+03  0.80735292939E+03  0.00000000000E+00 0. -1.
         21   -1    0    0  502  503 -0.00000000000E+00 -0.00000000000E+00 -0.11564155932E+03  0.11564155932E+03  0.00000000000E+00 0.  1.
         -6    2    1    2    0  503  0.92936176269E+02 -0.86323760485E+02  0.31880046693E+02  0.23124485270E+03  0.19070637126E+03 0.  0.
        -24    2    3    3    0    0 -0.12973814100E+02 -0.30328865799E+02  0.65644935621E+02  0.10668758870E+03  0.77361644610E+02 0.  0.
          6    2    1    2  501    0 -0.92936176269E+02  0.86323760485E+02  0.65983132338E+03  0.69174963602E+03  0.16447266988E+03 0.  0.
         24    2    5    5    0    0 -0.35967815386E+02  0.46011569800E+02  0.16827260354E+03  0.19523928174E+03  0.79949732535E+02 0.  0.
          5    1    5    5  501    0 -0.56968360883E+02  0.40312190685E+02  0.49155871984E+03  0.49651035428E+03  0.47000000000E+01 0. -1.
        -13    1    6    6    0    0  0.12491451967E+02  0.48694774196E+02  0.91867829743E+02  0.10472304211E+03  0.00000000000E+00 0.  1.
         14    1    6    6    0    0 -0.48459267353E+02 -0.26832043959E+01  0.76404773797E+02  0.90516239632E+02  0.00000000000E+00 0. -1.
         -5    1    3    3    0  503  0.10590999037E+03 -0.55994894686E+02 -0.33764888927E+02  0.12455726400E+03  0.47000000000E+01 0.  1.
         13    1    4    4    0    0 -0.27397680641E+02 -0.51332620205E+02  0.50513133561E+02  0.77053536348E+02  0.00000000000E+00 0. -1.
        -14    1    4    4    0    0  0.14423866541E+02  0.21003754406E+02  0.15131802059E+02  0.29634052350E+02  0.00000000000E+00 0.  1.
</event>
<event>
12    1  0.1593360E-001  0.2024680E+03  0.7818608E-02  0.1148541E+00
         21   -1    0    0  503  502  0.00000000000E+00  0.00000000000E+00  0.64037745104E+02  0.64037745104E+02  0.00000000000E+00 0. -1.
         21   -1    0    0  501  503 -0.00000000000E+00 -0.00000000000E+00 -0.63850193913E+03  0.63850193913E+03  0.00000000000E+00 0.  1.
          6    2    1    2  501    0  0.10478393751E+03  0.78076766323E+01 -0.33700447281E+03  0.39314795723E+03  0.17306839168E+03 0.  0.
         24    2    3    3    0    0  0.17764880825E+02 -0.39784643203E+01 -0.58780380542E+02  0.10135699632E+03  0.80539980120E+02 0.  0.
         -6    2    1    2    0  502 -0.10478393751E+03 -0.78076766323E+01 -0.23745972121E+03  0.30939172701E+03  0.16821262785E+03 0.  0.
        -24    2    5    5    0    0 -0.12292835744E+03 -0.28631186787E+02 -0.12599221077E+03  0.19445724813E+03  0.77514245522E+02 0.  0.
          5    1    3    3  501    0  0.87019056684E+02  0.11786140953E+02 -0.27822409227E+03  0.29179096090E+03  0.47000000000E+01 0. -1.
        -11    1    4    4    0    0 -0.11886921376E+01  0.30733324546E+02 -0.53152077477E+02  0.61409230306E+02  0.00000000000E+00 0.  1.
         12    1    4    4    0    0  0.18953572963E+02 -0.34711788866E+02 -0.56283030657E+01  0.39947766017E+02  0.00000000000E+00 0. -1.
         -5    1    5    5    0  502  0.18144419926E+02  0.20823510155E+02 -0.11146751044E+03  0.11493447887E+03  0.47000000000E+01 0.  1.
         11    1    6    6    0    0 -0.59934766861E+02 -0.52736404095E+02 -0.78531555905E+02  0.11198441797E+03  0.00000000000E+00 0. -1.
        -12    1    6    6    0    0 -0.62993590574E+02  0.24105217308E+02 -0.47460654866E+02  0.82472830163E+02  0.00000000000E+00 0.  1.
</event>
<event>
12    1  0.1593360E-001  0.2423829E+03  0.7818608E-02  0.1118254E+00
         21   -1    0    0  503  502  0.00000000000E+00  0.00000000000E+00  0.44402140928E+03  0.44402140928E+03  0.00000000000E+00 0. -1.
         21   -1    0    0  501  503 -0.00000000000E+00 -0.00000000000E+00 -0.33522266272E+03  0.33522266272E+03  0.00000000000E+00 0.  1.
          6    2    1    2  501    0 -0.12702753877E+03  0.11401408134E+03 -0.24881549610E+03  0.34735953151E+03  0.17208802016E+03 0.  0.
         24    2    3    3    0    0 -0.13941364794E+03  0.55572040529E+02 -0.12882154412E+03  0.21323449154E+03  0.79684008645E+02 0.  0.
         -6    2    1    2    0  502  0.12702753877E+03 -0.11401408134E+03  0.35761424267E+03  0.43188454049E+03  0.17175885248E+03 0.  0.
        -24    2    5    5    0    0  0.83586122500E+02 -0.11627563558E+03  0.35117315955E+03  0.38765956082E+03  0.80316149046E+02 0.  0.
          5    1    3    3  501    0  0.12386109167E+02  0.58442040806E+02 -0.11999395198E+03  0.13412503997E+03  0.47000000000E+01 0. -1.
        -13    1    4    4    0    0 -0.12382431733E+03  0.41675442305E+02 -0.64689262211E+02  0.14578753272E+03  0.00000000000E+00 0.  1.
         14    1    4    4    0    0 -0.15589330614E+02  0.13896598225E+02 -0.64132281906E+02  0.67446958817E+02  0.00000000000E+00 0. -1.
         -5    1    5    5    0  502  0.43441416273E+02  0.22615542436E+01  0.64410831162E+01  0.44224979673E+02  0.47000000000E+01 0.  1.
         13    1    6    6    0    0  0.52003509624E+02 -0.97313105584E+01  0.12122987652E+03  0.13227148740E+03  0.00000000000E+00 0. -1.
        -14    1    6    6    0    0  0.31582612876E+02 -0.10654432502E+03  0.22994328304E+03  0.25538807342E+03  0.00000000000E+00 0.  1.
</event>
<event>
12    1  0.1593360E-001  0.2586775E+03  0.7818608E-02  0.1107951E+00
         21   -1    0    0  503  502  0.00000000000E+00  0.00000000000E+00  0.19707061576E+03  0.19707061576E+03  0.00000000000E+00 0.  1.
         21   -1    0    0  501  503 -0.00000000000E+00 -0.00000000000E+00 -0.36588214986E+03  0.36588214986E+03  0.00000000000E+00 0.  1.
          6    2    1    2  501    0 -0.17106746393E+03  0.89890172132E+02 -0.16006421893E+03  0.30419501828E+03  0.17195852612E+03 0.  0.
         24    2    3    3    0    0 -0.19320381035E+03  0.71403506503E+02 -0.16401683189E+03  0.27470793996E+03  0.78337462665E+02 0.  0.
         -6    2    1    2    0  502  0.17106746393E+03 -0.89890172132E+02 -0.87473151765E+01  0.25875774734E+03  0.17185673109E+03 0.  0.
        -24    2    5    5    0    0  0.53881791210E+02  0.10407905911E+02 -0.34256173790E+02  0.10234490190E+03  0.79305873503E+02 0.  0.
          5    1    3    3  501    0  0.22136346420E+02  0.18486665629E+02  0.39526129613E+01  0.29487078325E+02  0.47000000000E+01 0. -1.
        -13    1    4    4    0    0 -0.15400171532E+03  0.26358669581E+02 -0.14180031200E+03  0.21099439866E+03  0.00000000000E+00 0.  1.
         14    1    4    4    0    0 -0.39202095033E+02  0.45044836922E+02 -0.22216519889E+02  0.63713541295E+02  0.00000000000E+00 0. -1.
         -5    1    5    5    0  502  0.11718567272E+03 -0.10029807804E+03  0.25508858614E+02  0.15641284544E+03  0.47000000000E+01 0.  1.
         11    1    6    6    0    0 -0.17877134523E+02  0.45137908884E+01  0.65714968065E+01  0.19574238612E+02  0.00000000000E+00 0. -1.
        -12    1    6    6    0    0  0.71758925734E+02  0.58941150224E+01 -0.40827670597E+02  0.82770663285E+02  0.00000000000E+00 0.  1.
</event>
<event>
12    1  0.1593360E-001  0.2091825E+03  0.7818608E-02  0.1142494E+00
         21   -1    0    0  503  502  0.00000000000E+00  0.00000000000E+00  0.14433731779E+03  0.14433731779E+03  0.00000000000E+00 0.  1.
         21   -1    0    0  501  503 -0.00000000000E+00 -0.00000000000E+00 -0.59116342432E+03  0.59116342432E+03  0.00000000000E+00 0.  1.
          6    2    1    2  501    0 -0.10636724286E+03  0.53882199051E+02 -0.48137756360E+03  0.52486349308E+03  0.17187217896E+03 0.  0.
         24    2    3    3    0    0 -0.25159869514E+02  0.51783554533E+02 -0.12377236416E+03  0.15811751770E+03  0.79793456610E+02 0.  0.
         -6    2    1    2    0  502  0.10636724286E+03 -0.53882199051E+02  0.34551457072E+02  0.21063724903E+03  0.17016746388E+03 0.  0.
        -24    2    5    5    0    0  0.46999433840E+02 -0.17841039695E+02 -0.47892256112E+02  0.10273656433E+03  0.75722413956E+02 0.  0.
          5    1    3    3  501    0 -0.81207373350E+02  0.20986445174E+01 -0.35760519944E+03  0.36674597539E+03  0.47000000000E+01 0. -1.
        -11    1    4    4    0    0 -0.53508595570E+02  0.25384661451E+02 -0.67466096099E+02  0.89773186195E+02  0.00000000000E+00 0.  1.
         12    1    4    4    0    0  0.28348726056E+02  0.26398893082E+02 -0.56306268064E+02  0.68344331501E+02  0.00000000000E+00 0. -1.
         -5    1    5    5    0  502  0.59367809024E+02 -0.36041159356E+02  0.82443713184E+02  0.10790068470E+03  0.47000000000E+01 0.  1.
         11    1    6    6    0    0 -0.20458881625E+02 -0.10298226065E+02 -0.14281710880E+02  0.26992342675E+02  0.00000000000E+00 0. -1.
        -12    1    6    6    0    0  0.67458315465E+02 -0.75428136301E+01 -0.33610545232E+02  0.75744221652E+02  0.00000000000E+00 0.  1.
</event>
<event>
12    1  0.1593360E-001  0.1835626E+03  0.7818608E-02  0.1165502E+00
         21   -1    0    0  501  502  0.00000000000E+00  0.00000000000E+00  0.21453349615E+03  0.21453349615E+03  0.00000000000E+00 0.  1.
         21   -1    0    0  502  503 -0.00000000000E+00 -0.00000000000E+00 -0.30020315811E+03  0.30020315811E+03  0.00000000000E+00 0.  1.
         -6    2    1    2    0  503  0.32643038240E+02 -0.34549796106E+02 -0.22324085156E+03  0.28901852466E+03  0.17730192733E+03 0.  0.
        -24    2    3    3    0    0 -0.46276935201E+02 -0.46074024105E+02 -0.11130385949E+03  0.15149343519E+03  0.79355789581E+02 0.  0.
          6    2    1    2  501    0 -0.32643038240E+02  0.34549796106E+02  0.13757118959E+03  0.22571812961E+03  0.17252126092E+03 0.  0.
         24    2    5    5    0    0 -0.30171917090E+01 -0.41701985356E+02  0.65976328375E+02  0.11690664532E+03  0.86983497208E+02 0.  0.
          5    1    5    5  501    0 -0.29625846531E+02  0.76251781462E+02  0.71594861218E+02  0.10881148428E+03  0.47000000000E+01 0. -1.
        -11    1    6    6    0    0  0.33275308017E+02 -0.15468953959E+01  0.50704485333E+02  0.60667815536E+02  0.00000000000E+00 0.  1.
         12    1    6    6    0    0 -0.36292499726E+02 -0.40155089960E+02  0.15271843042E+02  0.56238829789E+02  0.00000000000E+00 0. -1.
         -5    1    3    3    0  503  0.78919973441E+02  0.11524227999E+02 -0.11193699207E+03  0.13752508947E+03  0.47000000000E+01 0.  1.
         13    1    4    4    0    0 -0.21278525490E+02 -0.47710461837E+02 -0.11486802617E+03  0.12618925173E+03  0.00000000000E+00 0. -1.
        -14    1    4    4    0    0 -0.24998409711E+02  0.16364377327E+01  0.35641666814E+01  0.25304183462E+02  0.00000000000E+00 0.  1.
</event>
<event>
12    1  0.1593360E-001  0.1927571E+03  0.7818608E-02  0.1156132E+00
         21   -1    0    0  501  502  0.00000000000E+00  0.00000000000E+00  0.27864656039E+03  0.27864656039E+03  0.00000000000E+00 0. -1.
         21   -1    0    0  502  503 -0.00000000000E+00 -0.00000000000E+00 -0.14533255189E+03  0.14533255189E+03  0.00000000000E+00 0.  1.
         -6    2    1    2    0  503  0.81929721601E+01  0.85218154087E+02  0.48064640460E+01  0.19281702812E+03  0.17270218776E+03 0.  0.
        -24    2    3    3    0    0 -0.56999112167E+02  0.19622008901E+02  0.10099994889E+02  0.10006481202E+03  0.79227739375E+02 0.  0.
          6    2    1    2  501    0 -0.81929721601E+01 -0.85218154087E+02  0.12850754445E+03  0.23116208417E+03  0.17202459591E+03 0.  0.
         24    2    5    5    0    0 -0.35421661264E+01 -0.12215613488E+03  0.70290914908E+02  0.16189946527E+03  0.79598717996E+02 0.  0.
          5    1    5    5  501    0 -0.46508060336E+01  0.36937980790E+02  0.58216629542E+02  0.69262618900E+02  0.47000000000E+01 0. -1.
        -13    1    6    6    0    0  0.30415587992E+02 -0.55938621507E+02  0.58667697348E+02  0.86580229158E+02  0.00000000000E+00 0.  1.
         14    1    6    6    0    0 -0.33957754119E+02 -0.66217513370E+02  0.11623217560E+02  0.75319236110E+02  0.00000000000E+00 0. -1.
         -5    1    3    3    0  503  0.65192084327E+02  0.65596145186E+02 -0.52935308428E+01  0.92752216097E+02  0.47000000000E+01 0.  1.
         13    1    4    4    0    0 -0.20654924122E+02  0.47662096602E+02  0.14554101946E+02  0.53945557986E+02  0.00000000000E+00 0. -1.
        -14    1    4    4    0    0 -0.36344188045E+02 -0.28040087700E+02 -0.44541070571E+01  0.46119254033E+02  0.00000000000E+00 0.  1.
</event>
<event>
12    1  0.1593360E-001  0.2078658E+03  0.7818608E-02  0.1144138E+00
         21   -1    0    0  501  502  0.00000000000E+00  0.00000000000E+00  0.36714568885E+03  0.36714568885E+03  0.00000000000E+00 0. -1.
         21   -1    0    0  502  503 -0.00000000000E+00 -0.00000000000E+00 -0.14336726900E+03  0.14336726900E+03  0.00000000000E+00 0. -1.
         -6    2    1    2    0  503 -0.10838099561E+03  0.19077323699E+02 -0.16856776333E+00  0.20786590206E+03  0.17634574090E+03 0.  0.
        -24    2    3    3    0    0 -0.32694957509E+02  0.52968326045E+02 -0.46300037299E+02  0.11285443494E+03  0.81962346359E+02 0.  0.
          6    2    1    2  501    0  0.10838099561E+03 -0.19077323699E+02  0.22394698762E+03  0.30264705579E+03  0.17126763450E+03 0.  0.
         24    2    5    5    0    0  0.13374508924E+03  0.14525908571E+02  0.19984289578E+03  0.25390680848E+03  0.80204323338E+02 0.  0.
          5    1    5    5  501    0 -0.25364093636E+02 -0.33603232270E+02  0.24104091841E+02  0.48740247316E+02  0.47000000000E+01 0. -1.
        -13    1    6    6    0    0  0.89921471877E+02  0.29564597288E+02  0.75077264774E+02  0.12081610904E+03  0.00000000000E+00 0.  1.
         14    1    6    6    0    0  0.43823617366E+02 -0.15038688717E+02  0.12476563100E+03  0.13309069944E+03  0.00000000000E+00 0. -1.
         -5    1    3    3    0  503 -0.75686038098E+02 -0.33891002346E+02  0.46131469535E+02  0.95011467121E+02  0.47000000000E+01 0.  1.
         11    1    4    4    0    0 -0.43004911565E+02  0.39663457485E+02 -0.65164102524E+02  0.87572670030E+02  0.00000000000E+00 0. -1.
        -12    1    4    4    0    0  0.10309954056E+02  0.13304868560E+02  0.18864065226E+02  0.25281764908E+02  0.00000000000E+00 0.  1.
</event>
<event>
12    1  0.1593360E-001  0.1770245E+03  0.7818608E-02  0.1171067E+00
         21   -1    0    0  503  502  0.00000000000E+00  0.00000000000E+00  0.31219085855E+03  0.31219085855E+03  0.00000000000E+00 0.  1.
         21   -1    0    0  501  503 -0.00000000000E+00 -0.00000000000E+00 -0.19423232298E+03  0.19423232298E+03  0.00000000000E+00 0.  1.
          6    2    1    2  501    0 -0.19754231955E+02 -0.37280938352E+02 -0.11790669442E+03  0.21151626737E+03  0.17046127046E+03 0.  0.
         24    2    3    3    0    0 -0.21117770215E+02  0.29840694397E+02 -0.11275660639E+03  0.14401970282E+03  0.81799726487E+02 0.  0.
         -6    2    1    2    0  502  0.19754231955E+02  0.37280938352E+02  0.23586523000E+03  0.29490691416E+03  0.17192318999E+03 0.  0.
        -24    2    5    5    0    0 -0.45228161810E+02  0.48199943979E+02  0.78543258615E+02  0.12427799263E+03  0.70051086778E+02 0.  0.
          5    1    3    3  501    0  0.13635382600E+01 -0.67121632749E+02 -0.51500880247E+01  0.67496564551E+02  0.47000000000E+01 0. -1.
        -11    1    4    4    0    0 -0.11635780096E+02 -0.84656844756E+01 -0.10214746762E+03  0.10315601938E+03  0.00000000000E+00 0.  1.
         12    1    4    4    0    0 -0.94819901192E+01  0.38306378872E+02 -0.10609138773E+02  0.40863683442E+02  0.00000000000E+00 0. -1.
         -5    1    5    5    0  502  0.64982393766E+02 -0.10919005627E+02  0.15732197138E+03  0.17062892153E+03  0.47000000000E+01 0.  1.
         11    1    6    6    0    0 -0.40251690177E+02  0.99113026664E+00  0.11031877271E+02  0.41747852848E+02  0.00000000000E+00 0. -1.
        -12    1    6    6    0    0 -0.49764716336E+01  0.47208813712E+02  0.67511381344E+02  0.82530139786E+02  0.00000000000E+00 0.  1.
</event>
<event>
12    1  0.1593360E-001  0.2279751E+03  0.7818608E-02  0.1128409E+00
         21   -1    0    0  501  502  0.00000000000E+00  0.00000000000E+00  0.17990455910E+03  0.17990455910E+03  0.00000000000E+00 0.  1.
         21   -1    0    0  502  503 -0.00000000000E+00 -0.00000000000E+00 -0.29539015998E+03  0.29539015998E+03  0.00000000000E+00 0. -1.
         -6    2    1    2    0  503 -0.82532206847E+02  0.12406522251E+03 -0.16786542299E+02  0.22859227538E+03  0.17253665047E+03 0.  0.
        -24    2    3    3    0    0 -0.28528645226E+02  0.87907785233E+02  0.52966953921E+02  0.13313869936E+03  0.79867094337E+02 0.  0.
          6    2    1    2  501    0  0.82532206847E+02 -0.12406522251E+03 -0.98699058575E+02  0.24670244370E+03  0.17004954267E+03 0.  0.
         24    2    5    5    0    0  0.11845550794E+03 -0.12320174694E+03 -0.73136855847E+02  0.20235444082E+03  0.79924603394E+02 0.  0.
          5    1    5    5  501    0 -0.35923301090E+02 -0.86347557152E+00 -0.25562202728E+02  0.44348002881E+02  0.47000000000E+01 0. -1.
        -13    1    6    6    0    0  0.19506482167E+02  0.37546489873E+01 -0.29530585803E+02  0.35590107241E+02  0.00000000000E+00 0.  1.
         14    1    6    6    0    0  0.98949025770E+02 -0.12695639593E+03 -0.43606270044E+02  0.16676433358E+03  0.00000000000E+00 0. -1.
         -5    1    3    3    0  503 -0.54003561621E+02  0.36157437280E+02 -0.69753496220E+02  0.95453576011E+02  0.47000000000E+01 0.  1.
         11    1    4    4    0    0  0.25935637073E+02  0.35532993921E+02  0.65952582976E+01  0.44483124434E+02  0.00000000000E+00 0. -1.
        -12    1    4    4    0    0 -0.54464282299E+02  0.52374791312E+02  0.46371695624E+02  0.88655574931E+02  0.00000000000E+00 0.  1.
</event>
<event>
12    1  0.1593360E-001  0.1773774E+03  0.7818608E-02  0.1170438E+00
         21   -1    0    0  503  502  0.00000000000E+00  0.00000000000E+00  0.18522003193E+03  0.18522003193E+03  0.00000000000E+00 0. -1.
         21   -1    0    0  501  503 -0.00000000000E+00 -0.00000000000E+00 -0.21669642491E+03  0.21669642491E+03  0.00000000000E+00 0. -1.
          6    2    1    2  501    0 -0.41689687332E+02 -0.56045682250E+01 -0.10944941313E+03  0.20842724290E+03  0.17231744059E+03 0.  0.
         24    2    3    3    0    0 -0.34746452510E+02  0.59664070699E+02 -0.44617507779E+02  0.11605046179E+03  0.81913798511E+02 0.  0.
         -6    2    1    2    0  502  0.41689687332E+02  0.56045682250E+01  0.77973020154E+02  0.19348921394E+03  0.17201407740E+03 0.  0.
        -24    2    5    5    0    0  0.76461656225E+01 -0.30899851455E+02 -0.14937856695E+02  0.87914335000E+02  0.80576212787E+02 0.  0.
          5    1    3    3  501    0 -0.69432348220E+01 -0.65268638924E+02 -0.64831905353E+02  0.92376781111E+02  0.47000000000E+01 0. -1.
        -11    1    4    4    0    0 -0.12221664911E+02 -0.55515164534E+01 -0.45097484157E+02  0.47052858632E+02  0.00000000000E+00 0.  1.
         12    1    4    4    0    0 -0.22524787599E+02  0.65215587152E+02  0.47997637799E+00  0.68997603156E+02  0.00000000000E+00 0. -1.
         -5    1    5    5    0  502  0.34043521710E+02  0.36504419680E+02  0.92910876850E+02  0.10557487894E+03  0.47000000000E+01 0.  1.
         13    1    6    6    0    0  0.19333477493E+02 -0.49030354666E+02  0.11346260985E+02  0.53911934384E+02  0.00000000000E+00 0. -1.
        -14    1    6    6    0    0 -0.11687311870E+02  0.18130503211E+02 -0.26284117681E+02  0.34002400616E+02  0.00000000000E+00 0.  1.
</event>
<event>
12    1  0.1593360E-001  0.3825615E+03  0.7818608E-02  0.1050358E+00
         21   -1    0    0  503  502  0.00000000000E+00  0.00000000000E+00  0.36579106831E+03  0.36579106831E+03  0.00000000000E+00 0. -1.
         21   -1    0    0  501  503 -0.00000000000E+00 -0.00000000000E+00 -0.71571489423E+03  0.71571489423E+03  0.00000000000E+00 0.  1.
          6    2    1    2  501    0  0.82947475973E+02  0.33076755678E+03 -0.53691174300E+03  0.65926286141E+03  0.17339504109E+03 0.  0.
         24    2    3    3    0    0  0.31513331588E+01  0.19928614034E+03 -0.22243274734E+03  0.30915728307E+03  0.79856132831E+02 0.  0.
         -6    2    1    2    0  502 -0.82947475973E+02 -0.33076755678E+03  0.18698791709E+03  0.42224310112E+03  0.16443021292E+03 0.  0.
        -24    2    5    5    0    0 -0.10442540836E+03 -0.30177770763E+03  0.12807178465E+03  0.35299778652E+03  0.78934178478E+02 0.  0.
          5    1    3    3  501    0  0.79796142814E+02  0.13148141644E+03 -0.31447899566E+03  0.35010557835E+03  0.47000000000E+01 0. -1.
        -11    1    4    4    0    0  0.30189490881E+02  0.45891120924E+02 -0.86262464223E+02  0.10226736074E+03  0.00000000000E+00 0.  1.
         12    1    4    4    0    0 -0.27038157723E+02  0.15339501942E+03 -0.13617028312E+03  0.20688992233E+03  0.00000000000E+00 0. -1.
         -5    1    5    5    0  502  0.21477932389E+02 -0.28989849153E+02  0.58916132434E+02  0.69245314604E+02  0.47000000000E+01 0.  1.
         11    1    6    6    0    0 -0.10130817764E+03 -0.23408813118E+03  0.12766577639E+03  0.28523525462E+03  0.00000000000E+00 0. -1.
        -12    1    6    6    0    0 -0.31172307196E+01 -0.67689576445E+02  0.40600826190E+00  0.67762531899E+02  0.00000000000E+00 0.  1.
</event>
<event>
12    1  0.1593360E-001  0.2045530E+03  0.7818608E-02  0.1145956E+00
         21   -1    0    0  501  502  0.00000000000E+00  0.00000000000E+00  0.33066280307E+03  0.33066280307E+03  0.00000000000E+00 0. -1.
         21   -1    0    0  502  503 -0.00000000000E+00 -0.00000000000E+00 -0.13832921714E+03  0.13832921714E+03  0.00000000000E+00 0. -1.
         -6    2    1    2    0  503 -0.10184070454E+03 -0.45849008483E+02  0.27685999279E+02  0.20640722695E+03  0.17135859507E+03 0.  0.
        -24    2    3    3    0    0 -0.32753599570E+02  0.41087815423E+00 -0.43542951120E+02  0.96823201842E+02  0.80036096338E+02 0.  0.
          6    2    1    2  501    0  0.10184070454E+03  0.45849008483E+02  0.16464758666E+03  0.26258479325E+03  0.17137177473E+03 0.  0.
         24    2    5    5    0    0  0.20480612484E+02 -0.50406821871E+00  0.14864749346E+03  0.16747346227E+03  0.74374549953E+02 0.  0.
          5    1    5    5  501    0  0.81360092058E+02  0.46353076701E+02  0.16000093202E+02  0.95111330986E+02  0.47000000000E+01 0. -1.
        -13    1    6    6    0    0 -0.20791756603E+02  0.58240406017E+01  0.10450199288E+03  0.10670933936E+03  0.00000000000E+00 0.  1.
         14    1    6    6    0    0  0.41272369086E+02 -0.63281088204E+01  0.44145500579E+02  0.60764122907E+02  0.00000000000E+00 0. -1.
         -5    1    3    3    0  503 -0.69087104972E+02 -0.46259886637E+02  0.71228950399E+02  0.10958402511E+03  0.47000000000E+01 0.  1.
         13    1    4    4    0    0 -0.38559274303E+02 -0.20666907080E+02  0.45594423544E+01  0.43985533958E+02  0.00000000000E+00 0. -1.
        -14    1    4    4    0    0  0.58056747332E+01  0.21077785234E+02 -0.48102393474E+02  0.52837667884E+02  0.00000000000E+00 0.  1.
</event>
<event>
12    1  0.1593360E-001  0.1972842E+03  0.7818608E-02  0.1153209E+00
         21   -1    0    0  503  502  0.00000000000E+00  0.00000000000E+00  0.43665481580E+03  0.43665481580E+03  0.00000000000E+00 0. -1.
         21   -1    0    0  501  503 -0.00000000000E+00 -0.00000000000E+00 -0.30115717178E+03  0.30115717178E+03  0.00000000000E+00 0. -1.
          6    2    1    2  501    0 -0.29634360006E+02  0.89610525715E+02 -0.24324761396E+03  0.31319398350E+03  0.17324210801E+03 0.  0.
         24    2    3    3    0    0 -0.45981073665E+02  0.16832703513E+02 -0.51215896161E+02  0.10713065077E+03  0.80351162236E+02 0.  0.
         -6    2    1    2    0  502  0.29634360006E+02 -0.89610525715E+02  0.37874525798E+03  0.42461800409E+03  0.16716529945E+03 0.  0.
        -24    2    5    5    0    0  0.49907643095E+02 -0.12216325724E+03  0.29697113009E+03  0.33417584395E+03  0.77891002804E+02 0.  0.
          5    1    3    3  501    0  0.16346713659E+02  0.72777822202E+02 -0.19203171780E+03  0.20606333273E+03  0.47000000000E+01 0. -1.
        -13    1    4    4    0    0 -0.43512676515E+02  0.46844960783E+02 -0.33250820364E+02  0.72065389911E+02  0.00000000000E+00 0.  1.
         14    1    4    4    0    0 -0.24683971499E+01 -0.30012257270E+02 -0.17965075797E+02  0.35065260862E+02  0.00000000000E+00 0. -1.
         -5    1    5    5    0  502 -0.20273283088E+02  0.32552731525E+02  0.81774127892E+02  0.90442160133E+02  0.47000000000E+01 0.  1.
         11    1    6    6    0    0  0.38797733262E+02 -0.98637497134E+01  0.88129335340E+02  0.96795337760E+02  0.00000000000E+00 0. -1.
        -12    1    6    6    0    0  0.11109909833E+02 -0.11229950753E+03  0.20884179475E+03  0.23738050619E+03  0.00000000000E+00 0.  1.
</event>
<event>
12    1  0.1593360E-001  0.1877893E+03  0.7818608E-02  0.1160970E+00
         21   -1    0    0  503  502  0.00000000000E+00  0.00000000000E+00  0.71168049042E+02  0.71168049042E+02  0.00000000000E+00 0.  1.
         21   -1    0    0  501  503 -0.00000000000E+00 -0.00000000000E+00 -0.59763085826E+03  0.59763085826E+03  0.00000000000E+00 0. -1.
          6    2    1    2  501    0 -0.66563866878E+02  0.35090297159E+02 -0.12245105854E+03  0.22418533955E+03  0.17205443151E+03 0.  0.
         24    2    3    3    0    0 -0.56403812298E+02 -0.11727778070E+02 -0.64092316341E+01  0.98555110427E+02  0.79706340531E+02 0.  0.
         -6    2    1    2    0  502  0.66563866878E+02 -0.35090297159E+02 -0.40401175068E+03  0.44461356776E+03  0.16968692530E+03 0.  0.
        -24    2    5    5    0    0 -0.82091402151E+01 -0.20137055117E+02 -0.10016374820E+03  0.13130812471E+03  0.82074089624E+02 0.  0.
          5    1    3    3  501    0 -0.10160054580E+02  0.46818075229E+02 -0.11604182691E+03  0.12563022912E+03  0.47000000000E+01 0. -1.
        -11    1    4    4    0    0 -0.46188813058E+02 -0.72197449371E+01  0.33240951348E+02  0.57362810385E+02  0.00000000000E+00 0.  1.
         12    1    4    4    0    0 -0.10214999240E+02 -0.45080331326E+01 -0.39650182983E+02  0.41192300042E+02  0.00000000000E+00 0. -1.
         -5    1    5    5    0  502  0.74773007094E+02 -0.14953242042E+02 -0.30384800248E+03  0.31330544305E+03  0.47000000000E+01 0.  1.
         13    1    6    6    0    0 -0.54149612237E+01 -0.51349100176E+02 -0.75315175309E+02  0.91314990695E+02  0.00000000000E+00 0. -1.
        -14    1    6    6    0    0 -0.27941789914E+01  0.31212045059E+02 -0.24848572895E+02  0.39993134010E+02  0.00000000000E+00 0.  1.
</event>
<event>
12    1  0.1593360E-001  0.1805232E+03  0.7818608E-02  0.1167500E+00
         21   -1    0    0  501  502  0.00000000000E+00  0.00000000000E+00  0.13139200402E+03  0.13139200402E+03  0.00000000000E+00 0.  1.
         21   -1    0    0  502  503 -0.00000000000E+00 -0.00000000000E+00 -0.65736878494E+03  0.65736878494E+03  0.00000000000E+00 0.  1.
         -6    2    1    2    0  503  0.81274414494E+01  0.51918344938E+02 -0.57440602452E+03  0.60185437979E+03  0.17182794772E+03 0.  0.
        -24    2    3    3    0    0 -0.61318218934E+02  0.29264460207E+02 -0.38095440604E+03  0.39501744659E+03  0.79348541434E+02 0.  0.
          6    2    1    2  501    0 -0.81274414494E+01 -0.51918344938E+02  0.48429243602E+02  0.18690640917E+03  0.17270507899E+03 0.  0.
         24    2    5    5    0    0 -0.70339288293E+02 -0.37815911753E+02  0.12640613341E+02  0.11361173975E+03  0.79813430228E+02 0.  0.
          5    1    5    5  501    0  0.62211846844E+02 -0.14102433185E+02  0.35788630261E+02  0.73294669420E+02  0.47000000000E+01 0. -1.
        -11    1    6    6    0    0 -0.17900400498E+02 -0.15471884202E+02  0.42963268290E+02  0.49047384853E+02  0.00000000000E+00 0.  1.
         12    1    6    6    0    0 -0.52438887796E+02 -0.22344027551E+02 -0.30322654949E+02  0.64564354900E+02  0.00000000000E+00 0. -1.
         -5    1    3    3    0  503  0.69445660384E+02  0.22653884731E+02 -0.19345161848E+03  0.20683693320E+03  0.47000000000E+01 0.  1.
         11    1    4    4    0    0 -0.19087769574E+02 -0.27063409143E+02 -0.14787029743E+03  0.15153348120E+03  0.00000000000E+00 0. -1.
        -12    1    4    4    0    0 -0.42230449361E+02  0.56327869349E+02 -0.23308410861E+03  0.24348396540E+03  0.00000000000E+00 0.  1.
</event>
<event>
12    1  0.1593360E-001  0.1989756E+03  0.7818608E-02  0.1150613E+00
         21   -1    0    0  501  502  0.00000000000E+00  0.00000000000E+00  0.19451993433E+02  0.19451993433E+02  0.00000000000E+00 0.  1.
         21   -1    0    0  502  503 -0.00000000000E+00 -0.00000000000E+00 -0.26948666873E+04  0.26948666873E+04  0.00000000000E+00 0.  1.
         -6    2    1    2    0  503 -0.64349124282E+02  0.74616606189E+02 -0.20091952796E+04  0.20190204621E+04  0.17282796865E+03 0.  0.
        -24    2    3    3    0    0 -0.48805665538E+02  0.58206660366E+02 -0.19661827186E+04  0.19702039091E+04  0.10029432869E+03 0.  0.
          6    2    1    2  501    0  0.64349124282E+02 -0.74616606189E+02 -0.66621941427E+03  0.69529821872E+03  0.17286658813E+03 0.  0.
         24    2    5    5    0    0  0.24013663633E+02 -0.11439247592E+03 -0.49513517411E+03  0.51501794684E+03  0.80139567879E+02 0.  0.
          5    1    5    5  501    0  0.40335460648E+02  0.39775869727E+02 -0.17108424016E+03  0.18028027188E+03  0.47000000000E+01 0. -1.
        -13    1    6    6    0    0  0.14375343441E+02 -0.22993099140E+02 -0.28195002850E+02  0.39118937777E+02  0.00000000000E+00 0.  1.
         14    1    6    6    0    0  0.96383201922E+01 -0.91399376776E+02 -0.46694017126E+03  0.47589900906E+03  0.00000000000E+00 0. -1.
         -5    1    3    3    0  503 -0.15543458744E+02  0.16409945823E+02 -0.43012561076E+02  0.48816552950E+02  0.47000000000E+01 0.  1.
         13    1    4    4    0    0  0.24286875652E+02  0.26267987165E+02 -0.30216085800E+03  0.30427133218E+03  0.00000000000E+00 0. -1.
        -14    1    4    4    0    0 -0.73092541190E+02  0.31938673201E+02 -0.16640218606E+04  0.16659325769E+04  0.00000000000E+00 0.  1.
</event>
<event>
12    1  0.1593360E-001  0.2106367E+03  0.7818608E-02  0.1141107E+00
         21   -1    0    0  501  502  0.00000000000E+00  0.00000000000E+00  0.57741591968E+02  0.57741591968E+02  0.00000000000E+00 0.  1.
         21   -1    0    0  502  503 -0.00000000000E+00 -0.00000000000E+00 -0.77047853213E+03  0.77047853213E+03  0.00000000000E+00 0.  1.
         -6    2    1    2    0  503  0.12350510766E+01 -0.12074866136E+03 -0.33072339801E+03  0.39198376883E+03  0.17231234566E+03 0.  0.
        -24    2    3    3    0    0  0.73702395542E+01 -0.10864957940E+03 -0.34459522419E+03  0.37202015484E+03  0.88284061650E+02 0.  0.
          6    2    1    2  501    0 -0.12350510766E+01  0.12074866136E+03 -0.38201354216E+03  0.43623635527E+03  0.17258634563E+03 0.  0.
         24    2    5    5    0    0 -0.59012694450E+02  0.86301477719E+02 -0.17736224099E+03  0.22076220461E+03  0.79675236374E+02 0.  0.
          5    1    5    5  501    0  0.57777643373E+02  0.34447183639E+02 -0.20465130117E+03  0.21547415066E+03  0.47000000000E+01 0. -1.
        -13    1    6    6    0    0 -0.32402274476E+02  0.84132442235E+02 -0.82472378018E+02  0.12218784049E+03  0.00000000000E+00 0.  1.
         14    1    6    6    0    0 -0.26610419974E+02  0.21690354836E+01 -0.94889862976E+02  0.98574364121E+02  0.00000000000E+00 0. -1.
         -5    1    3    3    0  503 -0.61351884776E+01 -0.12099081962E+02  0.13871826179E+02  0.19963613990E+02  0.47000000000E+01 0.  1.
         13    1    4    4    0    0  0.30380313405E+02 -0.48532764248E+02 -0.25709301456E+03  0.26339174395E+03  0.00000000000E+00 0. -1.
        -14    1    4    4    0    0 -0.23010073851E+02 -0.60116815147E+02 -0.87502209629E+02  0.10862841089E+03  0.00000000000E+00 0.  1.
</event>
<event>
12    1  0.1593360E-001  0.1852688E+03  0.7818608E-02  0.1162917E+00
         21   -1    0    0  501  502  0.00000000000E+00  0.00000000000E+00  0.81843501554E+02  0.81843501554E+02  0.00000000000E+00 0.  1.
         21   -1    0    0  502  503 -0.00000000000E+00 -0.00000000000E+00 -0.44611280939E+03  0.44611280939E+03  0.00000000000E+00 0.  1.
         -6    2    1    2    0  503  0.41038594841E+02  0.55256373476E+02 -0.11593563075E+03  0.21812709461E+03  0.17146698181E+03 0.  0.
        -24    2    3    3    0    0 -0.43063153609E+02  0.33892770834E+02 -0.46968815733E+02  0.10718558217E+03  0.79243449320E+02 0.  0.
          6    2    1    2  501    0 -0.41038594841E+02 -0.55256373476E+02 -0.24833367709E+03  0.30982921633E+03  0.17200899697E+03 0.  0.
         24    2    5    5    0    0  0.35150453280E+02 -0.60133030621E+02 -0.14458706819E+03  0.18093390339E+03  0.83547120673E+02 0.  0.
          5    1    5    5  501    0 -0.76189048121E+02  0.48766571447E+01 -0.10374660890E+03  0.12889531294E+03  0.47000000000E+01 0. -1.
        -11    1    6    6    0    0  0.18012010608E+02  0.60157217316E+01 -0.94038101316E+02  0.95936363977E+02  0.00000000000E+00 0.  1.
         12    1    6    6    0    0  0.17138442672E+02 -0.66148752352E+02 -0.50548966871E+02  0.84997539415E+02  0.00000000000E+00 0. -1.
         -5    1    3    3    0  503  0.84101748449E+02  0.21363602642E+02 -0.68966815012E+02  0.11094151244E+03  0.47000000000E+01 0.  1.
         13    1    4    4    0    0  0.18387891155E+02  0.28570919940E+02 -0.22907267593E+02  0.40977492797E+02  0.00000000000E+00 0. -1.
        -14    1    4    4    0    0 -0.61451044764E+02  0.53218508947E+01 -0.24061548140E+02  0.66208089373E+02  0.00000000000E+00 0.  1.
</event>
<event>
12    1  0.1593360E-001  0.2463002E+03  0.7818608E-02  0.1115778E+00
         21   -1    0    0  501  502  0.00000000000E+00  0.00000000000E+00  0.60715635718E+02  0.60715635718E+02  0.00000000000E+00 0.  1.
         21   -1    0    0  502  503 -0.00000000000E+00 -0.00000000000E+00 -0.24324870289E+04  0.24324870289E+04  0.00000000000E+00 0.  1.
         -6    2    1    2    0  503  0.43111903678E+02 -0.17105255482E+03 -0.21430620566E+04  0.21570899790E+04  0.17089349295E+03 0.  0.
        -24    2    3    3    0    0  0.10266907770E+02 -0.10865636867E+03 -0.73613350743E+03  0.74838770012E+03  0.79246407380E+02 0.  0.
          6    2    1    2  501    0 -0.43111903678E+02  0.17105255482E+03 -0.22870933658E+03  0.33611268571E+03  0.17188997675E+03 0.  0.
         24    2    5    5    0    0 -0.40808716471E+02  0.83378630210E+02 -0.21464188957E+03  0.24716323494E+03  0.80007353600E+02 0.  0.
          5    1    5    5  501    0 -0.23031872067E+01  0.87673924606E+02 -0.14067447013E+02  0.88949450772E+02  0.47000000000E+01 0. -1.
        -11    1    6    6    0    0 -0.55858084222E+02  0.56949744312E+02 -0.96666948128E+02  0.12533115259E+03  0.00000000000E+00 0.  1.
         12    1    6    6    0    0  0.15049367751E+02  0.26428885898E+02 -0.11797494144E+03  0.12183208234E+03  0.00000000000E+00 0. -1.
         -5    1    3    3    0  503  0.32844995907E+02 -0.62396186149E+02 -0.14069285492E+04  0.14087022788E+04  0.47000000000E+01 0.  1.
         13    1    4    4    0    0 -0.30267117708E+02 -0.72384868529E+02 -0.49631225477E+03  0.50247539426E+03  0.00000000000E+00 0. -1.
        -14    1    4    4    0    0  0.40534025479E+02 -0.36271500138E+02 -0.23982125266E+03  0.24591230585E+03  0.00000000000E+00 0.  1.
</event>
<event>
12    1  0.1593360E-001  0.6451031E+03  0.7818608E-02  0.9816352E-01
         21   -1    0    0  501  502  0.00000000000E+00  0.00000000000E+00  0.16307408490E+04  0.16307408490E+04  0.00000000000E+00 0.  1.
         21   -1    0    0  502  503 -0.00000000000E+00 -0.00000000000E+00 -0.25524736649E+03  0.25524736649E+03  0.00000000000E+00 0. -1.
         -6    2    1    2    0  503 -0.59376175990E+03  0.18244074438E+03  0.65313591360E+03  0.91750562980E+03  0.17144213705E+03 0.  0.
        -24    2    3    3    0    0 -0.19743882805E+03  0.20440798206E+02  0.18408709035E+03  0.28241135533E+03  0.80425118808E+02 0.  0.
          6    2    1    2  501    0  0.59376175990E+03 -0.18244074438E+03  0.72235756893E+03  0.96848258572E+03  0.17412756452E+03 0.  0.
         24    2    5    5    0    0  0.21334691016E+03 -0.47627289516E+02  0.34252682024E+03  0.41424111021E+03  0.80534539366E+02 0.  0.
          5    1    5    5  501    0  0.38041484974E+03 -0.13481345486E+03  0.37983074870E+03  0.55424147551E+03  0.47000000000E+01 0. -1.
        -11    1    6    6    0    0  0.12211033543E+02 -0.26577657880E+02  0.29293685956E+02  0.41395667351E+02  0.00000000000E+00 0.  1.
         12    1    6    6    0    0  0.20113587661E+03 -0.21049631636E+02  0.31323313428E+03  0.37284544286E+03  0.00000000000E+00 0. -1.
         -5    1    3    3    0  503 -0.39632293185E+03  0.16199994617E+03  0.46904882324E+03  0.63509427447E+03  0.47000000000E+01 0.  1.
         13    1    4    4    0    0 -0.33190956203E+01 -0.15044291356E+02  0.57924501024E+01  0.16459027199E+02  0.00000000000E+00 0. -1.
        -14    1    4    4    0    0 -0.19411973243E+03  0.35485089562E+02  0.17829464025E+03  0.26595232814E+03  0.00000000000E+00 0.  1.
</event>
<event>
12    1  0.1593360E-001  0.2443163E+03  0.7818608E-02  0.1117264E+00
         21   -1    0    0  503  502  0.00000000000E+00  0.00000000000E+00  0.11762060149E+03  0.11762060149E+03  0.00000000000E+00 0.  1.
         21   -1    0    0  501  503 -0.00000000000E+00 -0.00000000000E+00 -0.57620172060E+03  0.57620172060E+03  0.00000000000E+00 0.  1.
          6    2    1    2  501    0 -0.17028127267E+03 -0.45204650521E+01 -0.35330489344E+03  0.42955188682E+03  0.17514088418E+03 0.  0.
         24    2    3    3    0    0 -0.17684329051E+03 -0.24784937371E+01 -0.20998203751E+03  0.28598740390E+03  0.80103974811E+02 0.  0.
         -6    2    1    2    0  502  0.17028127267E+03  0.45204650521E+01 -0.10527622567E+03  0.26427043527E+03  0.17245182759E+03 0.  0.
        -24    2    5    5    0    0  0.66949852022E+02  0.61887410406E+02 -0.30791180356E+02  0.12449039060E+03  0.78977378478E+02 0.  0.
          5    1    3    3  501    0  0.65620178348E+01 -0.20419713150E+01 -0.14332285593E+03  0.14356448292E+03  0.47000000000E+01 0. -1.
        -11    1    4    4    0    0 -0.12859299426E+03  0.30653578681E+02 -0.16887710465E+03  0.21446509397E+03  0.00000000000E+00 0.  1.
         12    1    4    4    0    0 -0.48250296251E+02 -0.33132072419E+02 -0.41104932861E+02  0.71522309922E+02  0.00000000000E+00 0. -1.
         -5    1    5    5    0  502  0.10333142065E+03 -0.57366945354E+02 -0.74485045312E+02  0.13978004467E+03  0.47000000000E+01 0.  1.
         11    1    6    6    0    0  0.23736715409E+02  0.58768844786E+02  0.10959649418E+02  0.64322023377E+02  0.00000000000E+00 0. -1.
        -12    1    6    6    0    0  0.43213136612E+02  0.31185656198E+01 -0.41750829774E+02  0.60168367222E+02  0.00000000000E+00 0.  1.
</event>
<event>
12    1  0.1593360E-001  0.1723844E+03  0.7818608E-02  0.1175837E+00
         21   -1    0    0  501  502  0.00000000000E+00  0.00000000000E+00  0.63166378529E+02  0.63166378529E+02  0.00000000000E+00 0. -1.
         21   -1    0    0  502  503 -0.00000000000E+00 -0.00000000000E+00 -0.47720889795E+03  0.47720889795E+03  0.00000000000E+00 0. -1.
         -6    2    1    2    0  503  0.77126124660E+01  0.44319641454E+01 -0.24802491576E+03  0.30104659491E+03  0.17039239060E+03 0.  0.
        -24    2    3    3    0    0  0.21602599955E+02  0.64715044980E+02 -0.12799312447E+03  0.16592922924E+03  0.80595036025E+02 0.  0.
          6    2    1    2  501    0 -0.77126124660E+01 -0.44319641454E+01 -0.16601760367E+03  0.23932868157E+03  0.17215471646E+03 0.  0.
         24    2    5    5    0    0 -0.41416710511E+02 -0.48136115829E+02 -0.14943416209E+03  0.18150896492E+03  0.81132644410E+02 0.  0.
          5    1    5    5  501    0  0.33704098045E+02  0.43704151684E+02 -0.16583441575E+02  0.57819716653E+02  0.47000000000E+01 0. -1.
        -11    1    6    6    0    0  0.16886639648E+01 -0.33013828358E+02 -0.96303307757E+01  0.34431202705E+02  0.00000000000E+00 0.  1.
         12    1    6    6    0    0 -0.43105374475E+02 -0.15122287471E+02 -0.13980383132E+03  0.14707776221E+03  0.00000000000E+00 0. -1.
         -5    1    3    3    0  503 -0.13889987489E+02 -0.60283080834E+02 -0.12003179128E+03  0.13511736567E+03  0.47000000000E+01 0.  1.
         11    1    4    4    0    0 -0.19701922645E+02  0.32742915806E+02 -0.14281635417E+02  0.40794967846E+02  0.00000000000E+00 0. -1.
        -12    1    4    4    0    0  0.41304522599E+02  0.31972129174E+02 -0.11371148906E+03  0.12513426139E+03  0.00000000000E+00 0.  1.
</event>
<event>
12    1  0.1593360E-001  0.1769672E+03  0.7818608E-02  0.1170800E+00
         21   -1    0    0  501  502  0.00000000000E+00  0.00000000000E+00  0.20542349803E+03  0.20542349803E+03  0.00000000000E+00 0.  1.
         21   -1    0    0  502  503 -0.00000000000E+00 -0.00000000000E+00 -0.30698823807E+03  0.30698823807E+03  0.00000000000E+00 0.  1.
         -6    2    1    2    0  503 -0.41439302840E+01  0.36684676248E+02 -0.23262958600E+03  0.29229081212E+03  0.17307355933E+03 0.  0.
        -24    2    3    3    0    0 -0.64678024990E+02 -0.25388638615E+01 -0.11716573158E+03  0.15606726644E+03  0.80246434507E+02 0.  0.
          6    2    1    2  501    0  0.41439302840E+01 -0.36684676248E+02  0.13106484596E+03  0.22012092398E+03  0.17295169758E+03 0.  0.
         24    2    5    5    0    0  0.17266033929E+02  0.18054950414E+02  0.14006516975E+03  0.16292204147E+03  0.79380366952E+02 0.  0.
          5    1    5    5  501    0 -0.13122103645E+02 -0.54739626663E+02 -0.90003237916E+01  0.57198882503E+02  0.47000000000E+01 0. -1.
        -13    1    6    6    0    0 -0.36659924883E+01  0.76063206887E+01  0.13925740237E+03  0.13951315254E+03  0.00000000000E+00 0.  1.
         14    1    6    6    0    0  0.20932026417E+02  0.10448629726E+02  0.80776738120E+00  0.23408888936E+02  0.00000000000E+00 0. -1.
         -5    1    3    3    0  503  0.60534094706E+02  0.39223540110E+02 -0.11546385442E+03  0.13622354568E+03  0.47000000000E+01 0.  1.
         13    1    4    4    0    0 -0.46530606628E+02  0.36716239146E+02 -0.59479711398E+02  0.83970325938E+02  0.00000000000E+00 0. -1.
        -14    1    4    4    0    0 -0.18147418362E+02 -0.39255103007E+02 -0.57686020181E+02  0.72096940501E+02  0.00000000000E+00 0.  1.
</event>
<event>
12    1  0.1593360E-001  0.2453528E+03  0.7818608E-02  0.1116333E+00
         21   -1    0    0  501  502  0.00000000000E+00  0.00000000000E+00  0.26625440238E+03  0.26625440238E+03  0.00000000000E+00 0. -1.
         21   -1    0    0  502  503 -0.00000000000E+00 -0.00000000000E+00 -0.77501610327E+03  0.77501610327E+03  0.00000000000E+00 0. -1.
         -6    2    1    2    0  503 -0.58503916117E+01  0.17454137406E+03 -0.69271921163E+03  0.73488632356E+03  0.17233422196E+03 0.  0.
        -24    2    3    3    0    0  0.51093646536E+02  0.11908079488E+03 -0.56046885146E+03  0.58051421763E+03  0.77978375168E+02 0.  0.
          6    2    1    2  501    0  0.58503916117E+01 -0.17454137406E+03  0.18395751074E+03  0.30638418208E+03  0.17184872106E+03 0.  0.
         24    2    5    5    0    0 -0.35053504412E+02 -0.17529441845E+03  0.17665374609E+03  0.26456157140E+03  0.82640170285E+02 0.  0.
          5    1    5    5  501    0  0.40903896023E+02  0.75304438888E+00  0.73037646551E+01  0.41822610677E+02  0.47000000000E+01 0. -1.
        -11    1    6    6    0    0 -0.40444992513E+02 -0.31160611958E+02  0.31829055551E+02  0.60165354934E+02  0.00000000000E+00 0.  1.
         12    1    6    6    0    0  0.53914881015E+01 -0.14413380649E+03  0.14482469054E+03  0.20439621647E+03  0.00000000000E+00 0. -1.
         -5    1    3    3    0  503 -0.56944038148E+02  0.55460579184E+02 -0.13225036017E+03  0.15437210593E+03  0.47000000000E+01 0.  1.
         11    1    4    4    0    0 -0.15352034852E+02  0.82771945970E+00 -0.67108652390E+02  0.68847231747E+02  0.00000000000E+00 0. -1.
        -12    1    4    4    0    0  0.66445681389E+02  0.11825307542E+03 -0.49336019907E+03  0.51166698589E+03  0.00000000000E+00 0.  1.
</event>
<event>
12    1  0.1593360E-001  0.1731903E+03  0.7818608E-02  0.1174695E+00
         21   -1    0    0  501  502  0.00000000000E+00  0.00000000000E+00  0.91539180038E+03  0.91539180038E+03  0.00000000000E+00 0. -1.
         21   -1    0    0  502  503 -0.00000000000E+00 -0.00000000000E+00 -0.75613747579E+02  0.75613747579E+02  0.00000000000E+00 0. -1.
         -6    2    1    2    0  503  0.21575227296E+01  0.20268888884E+02  0.46737970536E+02  0.17938593212E+03  0.17198660411E+03 0.  0.
        -24    2    3    3    0    0 -0.58206491370E+02  0.29718843651E+02  0.24316668551E+01  0.10376679176E+03  0.80563197323E+02 0.  0.
          6    2    1    2  501    0 -0.21575227296E+01 -0.20268888884E+02  0.79304008226E+03  0.81161961583E+03  0.17145945868E+03 0.  0.
         24    2    5    5    0    0 -0.82519894979E+01 -0.79669741755E+02  0.55206027817E+03  0.56330739337E+03  0.78289881876E+02 0.  0.
          5    1    5    5  501    0  0.60944667683E+01  0.59400852871E+02  0.24097980409E+03  0.24831222246E+03  0.47000000000E+01 0. -1.
        -13    1    6    6    0    0  0.73622001906E+01 -0.79880023869E+02  0.29317664805E+03  0.30395323188E+03  0.00000000000E+00 0.  1.
         14    1    6    6    0    0 -0.15614189688E+02  0.21028211476E+00  0.25888363012E+03  0.25935416149E+03  0.00000000000E+00 0. -1.
         -5    1    3    3    0  503  0.60364014100E+02 -0.94499547673E+01  0.44306303681E+02  0.75619140363E+02  0.47000000000E+01 0.  1.
         11    1    4    4    0    0  0.26433960770E+01  0.41268798908E+02 -0.37483021334E+01  0.41522898201E+02  0.00000000000E+00 0. -1.
        -12    1    4    4    0    0 -0.60849887447E+02 -0.11549955257E+02  0.61799689884E+01  0.62243893560E+02  0.00000000000E+00 0.  1.
</event>
<event>
12    1  0.1593360E-001  0.2688299E+03  0.7818608E-02  0.1102078E+00
         21   -1    0    0  501  502  0.00000000000E+00  0.00000000000E+00  0.80250533404E+03  0.80250533404E+03  0.00000000000E+00 0. -1.
         21   -1    0    0  502  503 -0.00000000000E+00 -0.00000000000E+00 -0.21196748843E+03  0.21196748843E+03  0.00000000000E+00 0.  1.
         -6    2    1    2    0  503 -0.12618981522E+02  0.20639091887E+03 -0.90082424927E+02  0.28268495872E+03  0.17040977823E+03 0.  0.
        -24    2    3    3    0    0 -0.65876960957E+02  0.13158613057E+03 -0.88922897047E+02  0.19073060466E+03  0.82560270039E+02 0.  0.
          6    2    1    2  501    0  0.12618981522E+02 -0.20639091887E+03  0.68062027054E+03  0.73178786375E+03  0.17179369830E+03 0.  0.
         24    2    5    5    0    0  0.38180667881E+02 -0.70252251500E+02  0.17658837230E+03  0.20904760224E+03  0.78257935887E+02 0.  0.
          5    1    5    5  501    0 -0.25561686359E+02 -0.13613866737E+03  0.50403189824E+03  0.52274026151E+03  0.47000000000E+01 0. -1.
        -11    1    6    6    0    0  0.25639574221E+02 -0.22440109969E+02  0.14815724813E+03  0.15202472324E+03  0.00000000000E+00 0.  1.
         12    1    6    6    0    0  0.12541093660E+02 -0.47812141531E+02  0.28431124169E+02  0.57022879001E+02  0.00000000000E+00 0. -1.
         -5    1    3    3    0  503  0.53257979434E+02  0.74804788298E+02 -0.11595278804E+01  0.91954354061E+02  0.47000000000E+01 0.  1.
         13    1    4    4    0    0 -0.11113638373E+02  0.16272285211E+02  0.16082854029E+02  0.25435377284E+02  0.00000000000E+00 0. -1.
        -14    1    4    4    0    0 -0.54763322583E+02  0.11531384536E+03 -0.10500575108E+03  0.16529522737E+03  0.00000000000E+00 0.  1.
</event>
<event>
12    1  0.1593360E-001  0.1807879E+03  0.7818608E-02  0.1167269E+00
         21   -1    0    0  503  502  0.00000000000E+00  0.00000000000E+00  0.23024980095E+03  0.23024980095E+03  0.00000000000E+00 0. -1.
         21   -1    0    0  501  503 -0.00000000000E+00 -0.00000000000E+00 -0.14130825861E+03  0.14130825861E+03  0.00000000000E+00 0. -1.
          6    2    1    2  501    0  0.46064755711E+02 -0.25364051607E+02  0.49142818891E+02  0.18644131211E+03  0.17198851525E+03 0.  0.
         24    2    3    3    0    0 -0.12522618963E+02  0.59027005457E+01  0.79828928227E+02  0.11313498518E+03  0.78963341053E+02 0.  0.
         -6    2    1    2    0  502 -0.46064755711E+02  0.25364051607E+02  0.39798723454E+02  0.18511674745E+03  0.17297102349E+03 0.  0.
        -24    2    5    5    0    0 -0.11754965333E+02 -0.51446534521E+02  0.23738989552E+02  0.99343599497E+02  0.80750764776E+02 0.  0.
          5    1    3    3  501    0  0.58587374674E+02 -0.31266752153E+02 -0.30686109335E+02  0.73306326927E+02  0.47000000000E+01 0. -1.
        -11    1    4    4    0    0 -0.14176110959E+02 -0.15266689517E+02  0.87962991034E+02  0.90396469634E+02  0.00000000000E+00 0.  1.
         12    1    4    4    0    0  0.16534919956E+01  0.21169390063E+02 -0.81340628073E+01  0.22738515545E+02  0.00000000000E+00 0. -1.
         -5    1    5    5    0  502 -0.34309790378E+02  0.76810586129E+02  0.16059733903E+02  0.85773147956E+02  0.47000000000E+01 0.  1.
         13    1    6    6    0    0 -0.25500119776E+02  0.14323800060E+02  0.82752574006E+01  0.30395842509E+02  0.00000000000E+00 0. -1.
        -14    1    6    6    0    0  0.13745154444E+02 -0.65770334582E+02  0.15463732151E+02  0.68947756988E+02  0.00000000000E+00 0.  1.
</event>
<event>
12    1  0.1593360E-001  0.2012145E+03  0.7818608E-02  0.1149080E+00
         21   -1    0    0  501  502  0.00000000000E+00  0.00000000000E+00  0.53686567509E+02  0.53686567509E+02  0.00000000000E+00 0.  1.
         21   -1    0    0  502  503 -0.00000000000E+00 -0.00000000000E+00 -0.13423533600E+04  0.13423533600E+04  0.00000000000E+00 0. -1.
         -6    2    1    2    0  503 -0.82712145104E+02  0.59156368855E+02 -0.11073730783E+04  0.11251992611E+04  0.17163177910E+03 0.  0.
        -24    2    3    3    0    0 -0.13133600185E+01  0.56841728916E+02 -0.38453386866E+03  0.39777247245E+03  0.84403416016E+02 0.  0.
          6    2    1    2  501    0  0.82712145104E+02 -0.59156368855E+02 -0.18129371419E+03  0.27084066646E+03  0.17362741972E+03 0.  0.
         24    2    5    5    0    0  0.10398072521E+03 -0.42539404308E+02 -0.19624557732E+03  0.23962970330E+03  0.79299911434E+02 0.  0.
          5    1    5    5  501    0 -0.21268580105E+02 -0.16616964547E+02  0.14951863127E+02  0.31210963160E+02  0.47000000000E+01 0. -1.
        -13    1    6    6    0    0  0.36159856109E+01 -0.24571299746E+02 -0.89865277167E+01  0.26411773957E+02  0.00000000000E+00 0.  1.
         14    1    6    6    0    0  0.10036473960E+03 -0.17968104561E+02 -0.18725904960E+03  0.21321792934E+03  0.00000000000E+00 0. -1.
         -5    1    3    3    0  503 -0.81398785085E+02  0.23146399389E+01 -0.72283920967E+03  0.72742678862E+03  0.47000000000E+01 0.  1.
         11    1    4    4    0    0  0.38283760228E+02  0.84204292159E+01 -0.14448321491E+03  0.14970621001E+03  0.00000000000E+00 0. -1.
        -12    1    4    4    0    0 -0.39597120246E+02  0.48421299700E+02 -0.24005065375E+03  0.24806626244E+03  0.00000000000E+00 0.  1.
</event>
<event>
12    1  0.1593360E-001  0.1746008E+03  0.7818608E-02  0.1173969E+00
         21   -1    0    0  501  502  0.00000000000E+00  0.00000000000E+00  0.51033297418E+02  0.51033297418E+02  0.00000000000E+00 0.  1.
         21   -1    0    0  502  503 -0.00000000000E+00 -0.00000000000E+00 -0.60424468723E+03  0.60424468723E+03  0.00000000000E+00 0.  1.
         -6    2    1    2    0  503 -0.24366720276E+02  0.13877215383E+02 -0.22249706253E+03  0.28282569629E+03  0.17233431893E+03 0.  0.
        -24    2    3    3    0    0 -0.37431245628E+02 -0.44939158859E+02 -0.74917319531E+02  0.12335181678E+03  0.78628492222E+02 0.  0.
          6    2    1    2  501    0  0.24366720276E+02 -0.13877215383E+02 -0.33071432729E+03  0.37245228836E+03  0.16900422087E+03 0.  0.
         24    2    5    5    0    0  0.66567526747E+02 -0.43002895777E+02 -0.17899482630E+03  0.21223334346E+03  0.81996094866E+02 0.  0.
          5    1    5    5  501    0 -0.42200806471E+02  0.29125680393E+02 -0.15171950099E+03  0.16021894490E+03  0.47000000000E+01 0. -1.
        -11    1    6    6    0    0  0.64996284996E+01 -0.20843782644E+02  0.31495611218E+00  0.21835925511E+02  0.00000000000E+00 0.  1.
         12    1    6    6    0    0  0.60067898248E+02 -0.22159113132E+02 -0.17930978241E+03  0.19039741795E+03  0.00000000000E+00 0. -1.
         -5    1    3    3    0  503  0.13064525352E+02  0.58816374243E+02 -0.14757974300E+03  0.15947387950E+03  0.47000000000E+01 0.  1.
         13    1    4    4    0    0  0.22451735212E+02 -0.21473399334E+02 -0.11783859438E+02  0.33227197237E+02  0.00000000000E+00 0. -1.
        -14    1    4    4    0    0 -0.59882980840E+02 -0.23465759525E+02 -0.63133460093E+02  0.90124619543E+02  0.00000000000E+00 0.  1.
</event>
<event>
12    1  0.1593360E-001  0.1869261E+03  0.7818608E-02  0.1161708E+00
         21   -1    0    0  503  502  0.00000000000E+00  0.00000000000E+00  0.58452187925E+02  0.58452187925E+02  0.00000000000E+00 0. -1.
         21   -1    0    0  501  503 -0.00000000000E+00 -0.00000000000E+00 -0.10114634785E+04  0.10114634785E+04  0.00000000000E+00 0. -1.
          6    2    1    2  501    0  0.63776690808E+02 -0.28099333623E+02 -0.82258473119E+03  0.84355617635E+03  0.17344838956E+03 0.  0.
         24    2    3    3    0    0  0.87146150602E+02 -0.16695199999E+02 -0.33550380674E+03  0.35575898195E+03  0.78284529938E+02 0.  0.
         -6    2    1    2    0  502 -0.63776690808E+02  0.28099333623E+02 -0.13042655941E+03  0.22635949009E+03  0.17137821482E+03 0.  0.
        -24    2    5    5    0    0 -0.49224043826E+02  0.25620019769E+02 -0.16304154371E+03  0.19025195996E+03  0.80832365967E+02 0.  0.
          5    1    3    3  501    0 -0.23369459794E+02 -0.11404133623E+02 -0.48708092444E+03  0.48779719441E+03  0.47000000000E+01 0. -1.
        -11    1    4    4    0    0  0.58233046956E+01  0.14994255789E+02 -0.10426728808E+02  0.19169122511E+02  0.00000000000E+00 0.  1.
         12    1    4    4    0    0  0.81322845906E+02 -0.31689455788E+02 -0.32507707794E+03  0.33658985943E+03  0.00000000000E+00 0. -1.
         -5    1    5    5    0  502 -0.14552646982E+02  0.24793138541E+01  0.32614984304E+02  0.36107530136E+02  0.47000000000E+01 0.  1.
         13    1    6    6    0    0 -0.39237467591E+02  0.51437667892E+02 -0.14003786252E+03  0.15425957176E+03  0.00000000000E+00 0. -1.
        -14    1    6    6    0    0 -0.99865762344E+01 -0.25817648123E+02 -0.23003681190E+02  0.35992388193E+02  0.00000000000E+00 0.  1.
</event>
<event>
12    1  0.1593360E-001  0.1818238E+03  0.7818608E-02  0.1166549E+00
         21   -1    0    0  503  502  0.00000000000E+00  0.00000000000E+00  0.65345046786E+02  0.65345046786E+02  0.00000000000E+00 0. -1.
         21   -1    0    0  501  503 -0.00000000000E+00 -0.00000000000E+00 -0.63915710373E+03  0.63915710373E+03  0.00000000000E+00 0. -1.
          6    2    1    2  501    0  0.53673932260E+02 -0.24973269620E+02 -0.44988004503E+03  0.48445884657E+03  0.16971671663E+03 0.  0.
         24    2    3    3    0    0  0.25991260928E+02  0.27563443206E+02 -0.38994081496E+03  0.39995300187E+03  0.80456668388E+02 0.  0.
         -6    2    1    2    0  502 -0.53673932260E+02  0.24973269620E+02 -0.12393201191E+03  0.22004330395E+03  0.17191671482E+03 0.  0.
        -24    2    5    5    0    0 -0.70108157358E+02  0.17676278060E+02 -0.15172198401E+03  0.18661124763E+03  0.81096194577E+02 0.  0.
          5    1    3    3  501    0  0.27682671333E+02 -0.52536712826E+02 -0.59939230072E+02  0.84505844699E+02  0.47000000000E+01 0. -1.
        -13    1    4    4    0    0  0.46959973912E+01 -0.26903894537E+02 -0.17834734594E+03  0.18042629447E+03  0.00000000000E+00 0.  1.
         14    1    4    4    0    0  0.21295263536E+02  0.54467337743E+02 -0.21159346903E+03  0.21952670741E+03  0.00000000000E+00 0. -1.
         -5    1    5    5    0  502  0.16434225097E+02  0.72969915600E+01  0.27789972099E+02  0.33432056318E+02  0.47000000000E+01 0.  1.
         11    1    6    6    0    0 -0.19884195413E+01 -0.14378521395E+02  0.27467465496E+01  0.14772958620E+02  0.00000000000E+00 0. -1.
        -12    1    6    6    0    0 -0.68119737816E+02  0.32054799454E+02 -0.15446873056E+03  0.17183828901E+03  0.00000000000E+00 0.  1.
</event>
<event>
12    1  0.1593360E-001  0.1828136E+03  0.7818608E-02  0.1165193E+00
         21   -1    0    0  503  502  0.00000000000E+00  0.00000000000E+00  0.27256167404E+03  0.27256167404E+03  0.00000000000E+00 0.  1.
         21   -1    0    0  501  503 -0.00000000000E+00 -0.00000000000E+00 -0.16178153232E+03  0.16178153232E+03  0.00000000000E+00 0.  1.
          6    2    1    2  501    0  0.32408464133E+02 -0.48105841377E+02 -0.51832475909E+02  0.18967269458E+03  0.17298741281E+03 0.  0.
         24    2    3    3    0    0  0.13922473107E+02  0.22613884406E+02 -0.75527847704E+02  0.11268846163E+03  0.79303282279E+02 0.  0.
         -6    2    1    2    0  502 -0.32408464133E+02  0.48105841377E+02  0.16261261763E+03  0.24467051178E+03  0.17336757309E+03 0.  0.
        -24    2    5    5    0    0 -0.34737636355E+02  0.86874162642E+02  0.64671870508E+02  0.13920540985E+03  0.80261272002E+02 0.  0.
          5    1    3    3  501    0  0.18485991026E+02 -0.70719725783E+02  0.23695371795E+02  0.76984232954E+02  0.47000000000E+01 0. -1.
        -13    1    4    4    0    0 -0.31025692493E+02  0.22899093414E+02 -0.37908542131E+02  0.54074204944E+02  0.00000000000E+00 0.  1.
         14    1    4    4    0    0  0.44948165600E+02 -0.28520900806E+00 -0.37619305573E+02  0.58614256685E+02  0.00000000000E+00 0. -1.
         -5    1    5    5    0  502  0.23291722220E+01 -0.38768321265E+02  0.97940747126E+02  0.10546510193E+03  0.47000000000E+01 0.  1.
         13    1    6    6    0    0  0.25365302593E+02  0.33817198882E+02  0.14803274964E+02  0.44789937101E+02  0.00000000000E+00 0. -1.
        -14    1    6    6    0    0 -0.60102938948E+02  0.53056963760E+02  0.49868595544E+02  0.94415472753E+02  0.00000000000E+00 0.  1.
</event>
<event>
12    1  0.1593360E-001  0.2254343E+03  0.7818608E-02  0.1130664E+00
         21   -1    0    0  501  502  0.00000000000E+00  0.00000000000E+00  0.92889889261E+02  0.92889889261E+02  0.00000000000E+00 0. -1.
         21   -1    0    0  502  503 -0.00000000000E+00 -0.00000000000E+00 -0.54061046178E+03  0.54061046178E+03  0.00000000000E+00 0. -1.
         -6    2    1    2    0  503  0.52512846085E+02 -0.12842666655E+03 -0.25211926224E+03  0.33820813173E+03  0.17767839005E+03 0.  0.
        -24    2    3    3    0    0  0.52082425557E+02 -0.55118983435E+02 -0.24273054476E+03  0.26415112881E+03  0.71463417949E+02 0.  0.
          6    2    1    2  501    0 -0.52512846085E+02  0.12842666655E+03 -0.19560131028E+03  0.29529221931E+03  0.17229803980E+03 0.  0.
         24    2    5    5    0    0  0.35317931569E+02  0.63958084959E+02 -0.12678192499E+03  0.16634013012E+03  0.79103662763E+02 0.  0.
          5    1    5    5  501    0 -0.87830777654E+02  0.64468581589E+02 -0.68819385295E+02  0.12895208919E+03  0.47000000000E+01 0. -1.
        -11    1    6    6    0    0  0.14374157650E+02 -0.83282281910E+01 -0.70319838840E+02  0.72255487871E+02  0.00000000000E+00 0.  1.
         12    1    6    6    0    0  0.20943773919E+02  0.72286313150E+02 -0.56462086146E+02  0.94084642247E+02  0.00000000000E+00 0. -1.
         -5    1    3    3    0  503  0.43042052805E+00 -0.73307683113E+02 -0.93887174773E+01  0.74057002918E+02  0.47000000000E+01 0.  1.
         13    1    4    4    0    0  0.47282351758E+02 -0.40943801119E+02 -0.84060358122E+02  0.10477671232E+03  0.00000000000E+00 0. -1.
        -14    1    4    4    0    0  0.48000737985E+01 -0.14175182316E+02 -0.15867018664E+03  0.15937441649E+03  0.00000000000E+00 0.  1.
</event>
<event>
12    1  0.1593360E-001  0.1802534E+03  0.7818608E-02  0.1167605E+00
         21   -1    0    0  503  502  0.00000000000E+00  0.00000000000E+00  0.65835896994E+02  0.65835896994E+02  0.00000000000E+00 0. -1.
         21   -1    0    0  501  503 -0.00000000000E+00 -0.00000000000E+00 -0.70932634486E+03  0.70932634486E+03  0.00000000000E+00 0. -1.
          6    2    1    2  501    0  0.32231074024E+02  0.40301461595E+02 -0.10782045996E+03  0.21003938833E+03  0.17270854966E+03 0.  0.
         24    2    3    3    0    0 -0.23841259575E+02 -0.21751467653E+02 -0.28726798469E+02  0.94832748285E+02  0.84418535842E+02 0.  0.
         -6    2    1    2    0  502 -0.32231074024E+02 -0.40301461595E+02 -0.53566998792E+03  0.56512285353E+03  0.17250638738E+03 0.  0.
        -24    2    5    5    0    0 -0.14593728645E+02  0.64576235684E+01 -0.10826525005E+03  0.13478067811E+03  0.78675212133E+02 0.  0.
          5    1    3    3  501    0  0.56072333599E+02  0.62052929248E+02 -0.79093661486E+02  0.11520664005E+03  0.47000000000E+01 0. -1.
        -13    1    4    4    0    0 -0.24008573489E+02  0.24295167558E+02 -0.34352557164E+02  0.48443420104E+02  0.00000000000E+00 0.  1.
         14    1    4    4    0    0  0.16731391406E+00 -0.46046635211E+02  0.56257586942E+01  0.46389328181E+02  0.00000000000E+00 0. -1.
         -5    1    5    5    0  502 -0.17637345379E+02 -0.46759085164E+02 -0.42740473786E+03  0.43034217542E+03  0.47000000000E+01 0.  1.
         11    1    6    6    0    0 -0.37412437835E+02 -0.36299150984E+01 -0.10249933489E+03  0.10917408319E+03  0.00000000000E+00 0. -1.
        -12    1    6    6    0    0  0.22818709190E+02  0.10087538667E+02 -0.57659151640E+01  0.25606594915E+02  0.00000000000E+00 0.  1.
</event>
<event>
12    1  0.1593360E-001  0.2444969E+03  0.7818608E-02  0.1117446E+00
         21   -1    0    0  501  502  0.00000000000E+00  0.00000000000E+00  0.49246187909E+03  0.49246187909E+03  0.00000000000E+00 0.  1.
         21   -1    0    0  502  503 -0.00000000000E+00 -0.00000000000E+00 -0.12195434655E+03  0.12195434655E+03  0.00000000000E+00 0.  1.
         -6    2    1    2    0  503  0.60604159893E+02  0.15730243885E+03  0.22988305596E+03  0.33559642301E+03  0.17709268268E+03 0.  0.
        -24    2    3    3    0    0  0.33278431323E+02  0.91728712381E+02  0.42887916751E+02  0.13550674029E+03  0.83672531898E+02 0.  0.
          6    2    1    2  501    0 -0.60604159893E+02 -0.15730243885E+03  0.14062447658E+03  0.27881980263E+03  0.17189624038E+03 0.  0.
         24    2    5    5    0    0  0.25862210982E+02 -0.11855287653E+03  0.75201446266E+02  0.16357994508E+03  0.79871787391E+02 0.  0.
          5    1    5    5  501    0 -0.86466370875E+02 -0.38749562322E+02  0.65423030311E+02  0.11523985755E+03  0.47000000000E+01 0. -1.
        -13    1    6    6    0    0  0.23194132093E+02 -0.56397386453E+02  0.80672545302E+02  0.10112711075E+03  0.00000000000E+00 0.  1.
         14    1    6    6    0    0  0.26680788889E+01 -0.62155490075E+02 -0.54710990356E+01  0.62452834332E+02  0.00000000000E+00 0. -1.
         -5    1    3    3    0  503  0.27325728570E+02  0.65573726470E+02  0.18699513921E+03  0.20008968272E+03  0.47000000000E+01 0.  1.
         11    1    4    4    0    0  0.32894730367E+02  0.55906840186E+01  0.36012376747E+02  0.49093892825E+02  0.00000000000E+00 0. -1.
        -12    1    4    4    0    0  0.38370095629E+00  0.86138028363E+02  0.68755400038E+01  0.86412847465E+02  0.00000000000E+00 0.  1.
</event>
<event>
12    1  0.1593360E-001  0.2012068E+03  0.7818608E-02  0.1149662E+00
         21   -1    0    0  503  502  0.00000000000E+00  0.00000000000E+00  0.11650687532E+03  0.11650687532E+03  0.00000000000E+00 0. -1.
         21   -1    0    0  501  503 -0.00000000000E+00 -0.00000000000E+00 -0.72430136768E+03  0.72430136768E+03  0.00000000000E+00 0. -1.
          6    2    1    2  501    0 -0.87805075904E+02 -0.42276932320E+02 -0.60857622159E+03  0.63959987505E+03  0.17095587830E+03 0.  0.
         24    2    3    3    0    0 -0.99475556370E+02 -0.71731778276E+02 -0.57453435880E+03  0.59285881723E+03  0.79693245592E+02 0.  0.
         -6    2    1    2    0  502  0.87805075904E+02  0.42276932320E+02  0.78172922393E+00  0.20120836794E+03  0.17603160474E+03 0.  0.
        -24    2    5    5    0    0  0.52422913845E+01 -0.27936540732E+02  0.25970301652E+02  0.89839164987E+02  0.81170727918E+02 0.  0.
          5    1    3    3  501    0  0.11670480467E+02  0.29454845956E+02 -0.34041862784E+02  0.46741057823E+02  0.47000000000E+01 0. -1.
        -11    1    4    4    0    0 -0.45559629347E+02 -0.69428010346E+02 -0.23907495085E+03  0.25308646857E+03  0.00000000000E+00 0.  1.
         12    1    4    4    0    0 -0.53915927023E+02 -0.23037679296E+01 -0.33545940795E+03  0.33977234866E+03  0.00000000000E+00 0. -1.
         -5    1    5    5    0  502  0.82562784519E+02  0.70213473052E+02 -0.25188572428E+02  0.11136920295E+03  0.47000000000E+01 0.  1.
         11    1    6    6    0    0  0.37721777691E+02 -0.99883402154E+00  0.28915529396E+02  0.47539857192E+02  0.00000000000E+00 0. -1.
        -12    1    6    6    0    0 -0.32479486306E+02 -0.26937706711E+02 -0.29452277434E+01  0.42299307796E+02  0.00000000000E+00 0.  1.
</event>
<event>
12    1  0.1593360E-001  0.2137944E+03  0.7818608E-02  0.1138814E+00
         21   -1    0    0  501  502  0.00000000000E+00  0.00000000000E+00  0.67828115832E+02  0.67828115832E+02  0.00000000000E+00 0.  1.
         21   -1    0    0  502  503 -0.00000000000E+00 -0.00000000000E+00 -0.10845926569E+04  0.10845926569E+04  0.00000000000E+00 0.  1.
         -6    2    1    2    0  503  0.11363206043E+03  0.52130988555E+02 -0.86531049130E+03  0.89133062220E+03  0.17343052380E+03 0.  0.
        -24    2    3    3    0    0  0.41668989669E+02 -0.40661600350E+02 -0.42254898885E+03  0.43323785194E+03  0.75879627919E+02 0.  0.
          6    2    1    2  501    0 -0.11363206043E+03 -0.52130988555E+02 -0.15145404980E+03  0.26109015057E+03  0.17204607637E+03 0.  0.
         24    2    5    5    0    0 -0.60481373799E+02 -0.84666907441E+02 -0.47804604940E+02  0.14005759739E+03  0.80649665482E+02 0.  0.
          5    1    5    5  501    0 -0.53150686634E+02  0.32535918885E+02 -0.10364944486E+03  0.12103255317E+03  0.47000000000E+01 0. -1.
        -11    1    6    6    0    0 -0.11950860103E+02 -0.78720364947E+02 -0.44111210401E+02  0.91024819680E+02  0.00000000000E+00 0.  1.
         12    1    6    6    0    0 -0.48530513696E+02 -0.59465424934E+01 -0.36933945383E+01  0.49032777715E+02  0.00000000000E+00 0. -1.
         -5    1    3    3    0  503  0.71963070765E+02  0.92792588905E+02 -0.44276150245E+03  0.45809277026E+03  0.47000000000E+01 0.  1.
         11    1    4    4    0    0  0.45553867682E+02 -0.26911414384E+02 -0.13019781968E+03  0.14053772211E+03  0.00000000000E+00 0. -1.
        -12    1    4    4    0    0 -0.38848780131E+01 -0.13750185966E+02 -0.29235116916E+03  0.29270012983E+03  0.00000000000E+00 0.  1.
</event>
<event>
12    1  0.1593360E-001  0.1889712E+03  0.7818608E-02  0.1160748E+00
         21   -1    0    0  503  502  0.00000000000E+00  0.00000000000E+00  0.41260839199E+02  0.41260839199E+02  0.00000000000E+00 0.  1.
         21   -1    0    0  501  503 -0.00000000000E+00 -0.00000000000E+00 -0.12796887254E+04  0.12796887254E+04  0.00000000000E+00 0.  1.
          6    2    1    2  501    0 -0.42001380627E+02 -0.62677404541E+02 -0.10132601804E+04  0.10307309515E+04  0.17325567261E+03 0.  0.
         24    2    3    3    0    0  0.44515591146E+02 -0.33384795858E+02 -0.49792582112E+03  0.50734310752E+03  0.79816808739E+02 0.  0.
         -6    2    1    2    0  502  0.42001380627E+02  0.62677404541E+02 -0.22516770579E+03  0.29021861314E+03  0.16683457275E+03 0.  0.
        -24    2    5    5    0    0 -0.40543419005E+01 -0.10052464325E+02 -0.16940133040E+03  0.18754075755E+03  0.79732272477E+02 0.  0.
          5    1    3    3  501    0 -0.86516971774E+02 -0.29292608683E+02 -0.51533435931E+03  0.52338784397E+03  0.47000000000E+01 0. -1.
        -11    1    4    4    0    0  0.39700850001E+02 -0.49975558845E+02 -0.22517984710E+03  0.23405058751E+03  0.00000000000E+00 0.  1.
         12    1    4    4    0    0  0.48147411456E+01  0.16590762988E+02 -0.27274597403E+03  0.27329252001E+03  0.00000000000E+00 0. -1.
         -5    1    5    5    0  502  0.46055722528E+02  0.72729868866E+02 -0.55766375389E+02  0.10267785558E+03  0.47000000000E+01 0.  1.
         11    1    6    6    0    0 -0.40009679014E+02  0.58557185587E+01 -0.98316325643E+02  0.10630693177E+03  0.00000000000E+00 0. -1.
        -12    1    6    6    0    0  0.35955337114E+02 -0.15908182884E+02 -0.71085004760E+02  0.81233825783E+02  0.00000000000E+00 0.  1.
</event>
<event>
12    1  0.1593360E-001  0.1888558E+03  0.7818608E-02  0.1159576E+00
         21   -1    0    0  501  502  0.00000000000E+00  0.00000000000E+00  0.75698392604E+02  0.75698392604E+02  0.00000000000E+00 0. -1.
         21   -1    0    0  502  503 -0.00000000000E+00 -0.00000000000E+00 -0.47161991812E+03  0.47161991812E+03  0.00000000000E+00 0.  1.
         -6    2    1    2    0  503  0.76884866024E+02 -0.32931400821E+01 -0.18370042503E+03  0.26346227346E+03  0.17246563712E+03 0.  0.
        -24    2    3    3    0    0  0.73932384312E+02  0.39792226419E+02 -0.18758326601E+03  0.21984768406E+03  0.78077549689E+02 0.  0.
          6    2    1    2  501    0 -0.76884866024E+02  0.32931400821E+01 -0.21222110049E+03  0.28385603726E+03  0.17208813731E+03 0.  0.
         24    2    5    5    0    0  0.28129125943E+02  0.13491428705E+01 -0.12690667969E+03  0.14845899878E+03  0.71705655669E+02 0.  0.
          5    1    5    5  501    0 -0.10501399197E+03  0.19439972115E+01 -0.85314420800E+02  0.13539703848E+03  0.47000000000E+01 0. -1.
        -13    1    6    6    0    0  0.77900851143E+01  0.36011165518E+02 -0.61510664367E+02  0.71701124809E+02  0.00000000000E+00 0.  1.
         14    1    6    6    0    0  0.20339040829E+02 -0.34662022647E+02 -0.65396015325E+02  0.76757873969E+02  0.00000000000E+00 0. -1.
         -5    1    3    3    0  503  0.29524817118E+01 -0.43085366501E+02  0.38828409837E+01  0.43614589404E+02  0.47000000000E+01 0.  1.
         11    1    4    4    0    0  0.62394930486E+02  0.58210852541E+02 -0.10965530474E+03  0.13894573243E+03  0.00000000000E+00 0. -1.
        -12    1    4    4    0    0  0.11537453826E+02 -0.18418626122E+02 -0.77927961272E+02  0.80901951627E+02  0.00000000000E+00 0.  1.
</event>
<event>
12    1  0.1593360E-001  0.1758389E+03  0.7818608E-02  0.1172398E+00
         21   -1    0    0  501  502  0.00000000000E+00  0.00000000000E+00  0.87693244301E+02  0.87693244301E+02  0.00000000000E+00 0.  1.
         21   -1    0    0  502  503 -0.00000000000E+00 -0.00000000000E+00 -0.36688589617E+03  0.36688589617E+03  0.00000000000E+00 0.  1.
         -6    2    1    2    0  503 -0.10341320087E+02 -0.53944232526E+01 -0.19116779675E+03  0.25973916833E+03  0.17545160685E+03 0.  0.
        -24    2    3    3    0    0 -0.71873724619E+01 -0.56695695953E+02 -0.51314533856E+02  0.11066605503E+03  0.79672668395E+02 0.  0.
          6    2    1    2  501    0  0.10341320087E+02  0.53944232526E+01 -0.88024855120E+02  0.19483997214E+03  0.17343066892E+03 0.  0.
         24    2    5    5    0    0  0.73106200078E+02  0.37368975801E+01 -0.35862951743E+02  0.11307731737E+03  0.78369940043E+02 0.  0.
          5    1    5    5  501    0 -0.62764879991E+02  0.16575256725E+01 -0.52161903377E+02  0.81762654773E+02  0.47000000000E+01 0. -1.
        -13    1    6    6    0    0  0.30991853405E+02  0.10898379375E+02  0.23175772804E+02  0.40204304441E+02  0.00000000000E+00 0.  1.
         14    1    6    6    0    0  0.42114346673E+02 -0.71614817948E+01 -0.59038724547E+02  0.72873012929E+02  0.00000000000E+00 0. -1.
         -5    1    3    3    0  503 -0.31539476252E+01  0.51301272700E+02 -0.13985326290E+03  0.14907311330E+03  0.47000000000E+01 0.  1.
         11    1    4    4    0    0  0.30953602377E+02 -0.26182286389E+02 -0.46335938716E+02  0.61568310334E+02  0.00000000000E+00 0. -1.
        -12    1    4    4    0    0 -0.38140974839E+02 -0.30513409563E+02 -0.49785951395E+01  0.49097744698E+02  0.00000000000E+00 0.  1.
</event>
<event>
12    1  0.1593360E-001  0.2064229E+03  0.7818608E-02  0.1144447E+00
         21   -1    0    0  501  502  0.00000000000E+00  0.00000000000E+00  0.23333873059E+03  0.23333873059E+03  0.00000000000E+00 0. -1.
         21   -1    0    0  502  503 -0.00000000000E+00 -0.00000000000E+00 -0.55931111400E+03  0.55931111400E+03  0.00000000000E+00 0.  1.
         -6    2    1    2    0  503 -0.28561514690E+02 -0.10917521142E+03 -0.48828143112E+03  0.53012183106E+03  0.17284505454E+03 0.  0.
        -24    2    3    3    0    0 -0.45153491795E+02 -0.57704975263E+02 -0.13719178965E+03  0.17486065212E+03  0.79912192562E+02 0.  0.
          6    2    1    2  501    0  0.28561514690E+02  0.10917521142E+03  0.16230904771E+03  0.26252801354E+03  0.17274763100E+03 0.  0.
         24    2    5    5    0    0  0.23116499362E+02  0.49963675672E+02  0.71831935211E+01  0.96330014772E+02  0.78721865116E+02 0.  0.
          5    1    5    5  501    0  0.54450153278E+01  0.59211535744E+02  0.15512585419E+03  0.16619799877E+03  0.47000000000E+01 0. -1.
        -13    1    6    6    0    0  0.29672765615E+02 -0.12633951870E+02  0.85880479888E+01  0.33374306395E+02  0.00000000000E+00 0.  1.
         14    1    6    6    0    0 -0.65562662528E+01  0.62597627543E+02 -0.14048544677E+01  0.62955708377E+02  0.00000000000E+00 0. -1.
         -5    1    3    3    0  503  0.16591977105E+02 -0.51470236153E+02 -0.35108964147E+03  0.35526117894E+03  0.47000000000E+01 0.  1.
         13    1    4    4    0    0  0.58931756933E+01 -0.19770948505E+01  0.86201894938E+01  0.10627609831E+02  0.00000000000E+00 0. -1.
        -14    1    4    4    0    0 -0.51046667489E+02 -0.55727880413E+02 -0.14581197914E+03  0.16423304229E+03  0.00000000000E+00 0.  1.
</event>
<event>
12    1  0.1593360E-001  0.2063987E+03  0.7818608E-02  0.1144537E+00
         21   -1    0    0  501  502  0.00000000000E+00  0.00000000000E+00  0.15945237391E+03  0.15945237391E+03  0.00000000000E+00 0. -1.
         21   -1    0    0  502  503 -0.00000000000E+00 -0.00000000000E+00 -0.38465268446E+03  0.38465268446E+03  0.00000000000E+00 0. -1.
         -6    2    1    2    0  503  0.21981991822E+02 -0.11323274098E+03 -0.26338911403E+03  0.33462556485E+03  0.17115952111E+03 0.  0.
        -24    2    3    3    0    0  0.76237886580E+01 -0.14551051579E+03 -0.18559085763E+03  0.24905295565E+03  0.79699284352E+02 0.  0.
          6    2    1    2  501    0 -0.21981991822E+02  0.11323274098E+03  0.38188803490E+02  0.20947949352E+03  0.17064117880E+03 0.  0.
         24    2    5    5    0    0 -0.59019416265E+02  0.23299656375E+02  0.48214223364E+02  0.11159011944E+03  0.78112597820E+02 0.  0.
          5    1    5    5  501    0  0.37037424443E+02  0.89933084601E+02 -0.10025419875E+02  0.97889374086E+02  0.47000000000E+01 0. -1.
        -11    1    6    6    0    0 -0.73026064613E+02  0.13002972850E+02  0.17365479179E+02  0.76180333964E+02  0.00000000000E+00 0.  1.
         12    1    6    6    0    0  0.14006648348E+02  0.10296683525E+02  0.30848744185E+02  0.35409785475E+02  0.00000000000E+00 0. -1.
         -5    1    3    3    0  503  0.14358203164E+02  0.32277774812E+02 -0.77798256406E+02  0.85572609197E+02  0.47000000000E+01 0.  1.
         11    1    4    4    0    0 -0.31377531415E+02 -0.60509492000E+02 -0.50861914090E+02  0.85046354447E+02  0.00000000000E+00 0. -1.
        -12    1    4    4    0    0  0.39001320073E+02 -0.85001023788E+02 -0.13472894354E+03  0.16400660121E+03  0.00000000000E+00 0.  1.
</event>
<event>
12    1  0.1593360E-001  0.1802052E+03  0.7818608E-02  0.1167664E+00
         21   -1    0    0  501  502  0.00000000000E+00  0.00000000000E+00  0.48768593609E+03  0.48768593609E+03  0.00000000000E+00 0.  1.
         21   -1    0    0  502  503 -0.00000000000E+00 -0.00000000000E+00 -0.88892053278E+02  0.88892053278E+02  0.00000000000E+00 0.  1.
         -6    2    1    2    0  503  0.20787077321E+02  0.51214368813E+02  0.54796086242E+02  0.18835211936E+03  0.17151937396E+03 0.  0.
        -24    2    3    3    0    0  0.64935052434E+02 -0.10032109250E+02  0.43581070742E+02  0.11187963180E+03  0.79375928553E+02 0.  0.
          6    2    1    2  501    0 -0.20787077321E+02 -0.51214368813E+02  0.34399779657E+03  0.38822587000E+03  0.17125953386E+03 0.  0.
         24    2    5    5    0    0 -0.61714101459E+02 -0.74947599640E+01  0.29149398027E+03  0.30844387812E+03  0.79398259867E+02 0.  0.
          5    1    5    5  501    0  0.40927024138E+02 -0.43719608849E+02  0.52503816296E+02  0.79781991881E+02  0.47000000000E+01 0. -1.
        -13    1    6    6    0    0  0.89511462338E+01  0.12252464534E+02  0.13215331221E+03  0.13302159161E+03  0.00000000000E+00 0.  1.
         14    1    6    6    0    0 -0.70665247693E+02 -0.19747224498E+02  0.15934066806E+03  0.17542228651E+03  0.00000000000E+00 0. -1.
         -5    1    3    3    0  503 -0.44147975113E+02  0.61246478064E+02  0.11215015500E+02  0.76472487566E+02  0.47000000000E+01 0.  1.
         11    1    4    4    0    0  0.18035314780E+02 -0.40214492715E+02  0.33129026980E+02  0.55136289612E+02  0.00000000000E+00 0. -1.
        -12    1    4    4    0    0  0.46899737654E+02  0.30182383465E+02  0.10452043762E+02  0.56743342186E+02  0.00000000000E+00 0.  1.
</event>
<event>
12    1  0.1593360E-001  0.2137933E+03  0.7818608E-02  0.1138682E+00
         21   -1    0    0  501  502  0.00000000000E+00  0.00000000000E+00  0.12352284474E+04  0.12352284474E+04  0.00000000000E+00 0.  1.
         21   -1    0    0  502  503 -0.00000000000E+00 -0.00000000000E+00 -0.37201022310E+02  0.37201022310E+02  0.00000000000E+00 0.  1.
         -6    2    1    2    0  503 -0.12757125496E+03 -0.64089345853E+01  0.54386527231E+03  0.58421751336E+03  0.17089519876E+03 0.  0.
        -24    2    3    3    0    0 -0.13199470077E+03  0.44293217145E+02  0.44344441884E+03  0.47153782187E+03  0.79501413441E+02 0.  0.
          6    2    1    2  501    0  0.12757125496E+03  0.64089345853E+01  0.65416215275E+03  0.68821195632E+03  0.17144117124E+03 0.  0.
         24    2    5    5    0    0  0.93743281908E+02  0.63007189421E+02  0.34239659312E+03  0.36951531627E+03  0.80922389681E+02 0.  0.
          5    1    5    5  501    0  0.33827973053E+02 -0.56598254836E+02  0.31176555963E+03  0.31869664006E+03  0.47000000000E+01 0. -1.
        -11    1    6    6    0    0  0.79638414880E+02  0.16432109400E+02  0.27230023273E+03  0.28418252601E+03  0.00000000000E+00 0.  1.
         12    1    6    6    0    0  0.14104867028E+02  0.46575080021E+02  0.70096360394E+02  0.85332790258E+02  0.00000000000E+00 0. -1.
         -5    1    3    3    0  503  0.44234458048E+01 -0.50702151730E+02  0.10042085347E+03  0.11267969149E+03  0.47000000000E+01 0.  1.
         11    1    4    4    0    0 -0.11658206730E+02 -0.53935032600E+01  0.14951741372E+03  0.15006818673E+03  0.00000000000E+00 0. -1.
        -12    1    4    4    0    0 -0.12033649404E+03  0.49686720405E+02  0.29392700512E+03  0.32146963514E+03  0.00000000000E+00 0.  1.
</event>
<event>
12    1  0.1593360E-001  0.1756268E+03  0.7818608E-02  0.1172430E+00
         21   -1    0    0  501  502  0.00000000000E+00  0.00000000000E+00  0.16099057438E+02  0.16099057438E+02  0.00000000000E+00 0. -1.
         21   -1    0    0  502  503 -0.00000000000E+00 -0.00000000000E+00 -0.19320153768E+04  0.19320153768E+04  0.00000000000E+00 0. -1.
         -6    2    1    2    0  503  0.19135198002E+02  0.11682607795E+02 -0.10833565090E+04  0.10974999314E+04  0.17418993900E+03 0.  0.
        -24    2    3    3    0    0  0.16429674624E+02  0.18709502135E+02 -0.10851593774E+04  0.10884424795E+04  0.80722841680E+02 0.  0.
          6    2    1    2  501    0 -0.19135198002E+02 -0.11682607795E+02 -0.83255981039E+03  0.85061450280E+03  0.17287728412E+03 0.  0.
         24    2    5    5    0    0 -0.54966949220E+02 -0.56169295742E+02 -0.40533026378E+03  0.41955748186E+03  0.74562071867E+02 0.  0.
          5    1    5    5  501    0  0.35831751218E+02  0.44486687947E+02 -0.42722954661E+03  0.43105702094E+03  0.47000000000E+01 0. -1.
        -13    1    6    6    0    0  0.10457381044E+02  0.89360852099E+01 -0.29344598463E+02  0.32408577508E+02  0.00000000000E+00 0.  1.
         14    1    6    6    0    0 -0.65424330264E+02 -0.65105380952E+02 -0.37598566532E+03  0.38714890436E+03  0.00000000000E+00 0. -1.
         -5    1    3    3    0  503  0.27055233781E+01 -0.70268943402E+01  0.18028684294E+01  0.90574519260E+01  0.47000000000E+01 0.  1.
         13    1    4    4    0    0  0.31326971515E+02 -0.22717975122E+02 -0.61917328273E+03  0.62038136625E+03  0.00000000000E+00 0. -1.
        -14    1    4    4    0    0 -0.14897296892E+02  0.41427477257E+02 -0.46598609467E+03  0.46806111327E+03  0.00000000000E+00 0.  1.
</event>
<event>
12    1  0.1593360E-001  0.1938867E+03  0.7818608E-02  0.1155832E+00
         21   -1    0    0  503  502  0.00000000000E+00  0.00000000000E+00  0.32009385753E+03  0.32009385753E+03  0.00000000000E+00 0. -1.
         21   -1    0    0  501  503 -0.00000000000E+00 -0.00000000000E+00 -0.20231230291E+03  0.20231230291E+03  0.00000000000E+00 0. -1.
          6    2    1    2  501    0 -0.84474223973E+01  0.79501670682E+02 -0.11218947259E+03  0.22400563632E+03  0.17663570635E+03 0.  0.
         24    2    3    3    0    0 -0.18490611267E+02  0.24449894893E+02  0.13701262647E+02  0.86157419511E+02  0.79345297740E+02 0.  0.
         -6    2    1    2    0  502  0.84474223973E+01 -0.79501670682E+02  0.22997102720E+03  0.29840052412E+03  0.17252340379E+03 0.  0.
        -24    2    5    5    0    0  0.93050406661E+01 -0.49133268079E+02  0.28928681368E+02  0.95021345723E+02  0.75442201209E+02 0.  0.
          5    1    3    3  501    0  0.10043188870E+02  0.55051775789E+02 -0.12589073523E+03  0.13784821681E+03  0.47000000000E+01 0. -1.
        -13    1    4    4    0    0  0.62777588109E+01  0.26956430248E+01  0.42097351555E+02  0.42648138939E+02  0.00000000000E+00 0.  1.
         14    1    4    4    0    0 -0.24768370078E+02  0.21754251868E+02 -0.28396088908E+02  0.43509280572E+02  0.00000000000E+00 0. -1.
         -5    1    5    5    0  502 -0.85761826877E+00 -0.30368402603E+02  0.20104234584E+03  0.20337917840E+03  0.47000000000E+01 0.  1.
         11    1    6    6    0    0 -0.12171688801E+02 -0.16804988649E+02  0.47619047582E+02  0.51943539967E+02  0.00000000000E+00 0. -1.
        -12    1    6    6    0    0  0.21476729467E+02 -0.32328279430E+02 -0.18690366213E+02  0.43077805755E+02  0.00000000000E+00 0.  1.
</event>
<event>
12    1  0.1593360E-001  0.1852906E+03  0.7818608E-02  0.1162888E+00
         21   -1    0    0  503  502  0.00000000000E+00  0.00000000000E+00  0.35353064354E+03  0.35353064354E+03  0.00000000000E+00 0.  1.
         21   -1    0    0  501  503 -0.00000000000E+00 -0.00000000000E+00 -0.97219312363E+02  0.97219312363E+02  0.00000000000E+00 0.  1.
          6    2    1    2  501    0 -0.28155644753E+02  0.62899014825E+02  0.11475943861E+03  0.21795032655E+03  0.17199880726E+03 0.  0.
         24    2    3    3    0    0 -0.43018714586E+02  0.60968275373E+02  0.80438712566E+01  0.11008494325E+03  0.80537261311E+02 0.  0.
         -6    2    1    2    0  502  0.28155644753E+02 -0.62899014825E+02  0.14155189258E+03  0.23279962936E+03  0.17149257342E+03 0.  0.
        -24    2    5    5    0    0 -0.31811097005E+02 -0.77610714630E+02  0.60667251636E+02  0.13093275855E+03  0.80171708987E+02 0.  0.
          5    1    3    3  501    0  0.14863069832E+02  0.19307394514E+01  0.10671556735E+03  0.10786538330E+03  0.47000000000E+01 0. -1.
        -13    1    4    4    0    0  0.73491373470E+01  0.56973672388E+02  0.14229190031E+02  0.59181745615E+02  0.00000000000E+00 0.  1.
         14    1    4    4    0    0 -0.50367851933E+02  0.39946029849E+01 -0.61853187745E+01  0.50903197637E+02  0.00000000000E+00 0. -1.
         -5    1    5    5    0  502  0.59966741758E+02  0.14711699806E+02  0.80884640939E+02  0.10186687081E+03  0.47000000000E+01 0.  1.
         11    1    6    6    0    0 -0.38200813532E+02 -0.91709545936E+02  0.45534867710E+02  0.10928571337E+03  0.00000000000E+00 0. -1.
        -12    1    6    6    0    0  0.63897165266E+01  0.14098831306E+02  0.15132383926E+02  0.21647045174E+02  0.00000000000E+00 0.  1.
</event>
<event>
12    1  0.1593360E-001  0.1833896E+03  0.7818608E-02  0.1164687E+00
         21   -1    0    0  501  502  0.00000000000E+00  0.00000000000E+00  0.45754842906E+03  0.45754842906E+03  0.00000000000E+00 0. -1.
         21   -1    0    0  502  503 -0.00000000000E+00 -0.00000000000E+00 -0.21411011469E+03  0.21411011469E+03  0.00000000000E+00 0. -1.
         -6    2    1    2    0  503 -0.50597623855E+02 -0.20584839430E+02  0.39412946525E+03  0.43470654101E+03  0.17506537712E+03 0.  0.
        -24    2    3    3    0    0  0.61301551393E+01 -0.70835820867E+02  0.25502992815E+03  0.27623265273E+03  0.78796712264E+02 0.  0.
          6    2    1    2  501    0  0.50597623855E+02  0.20584839430E+02 -0.15069115088E+03  0.23695200274E+03  0.17451238780E+03 0.  0.
         24    2    5    5    0    0 -0.29898626849E+02 -0.20873613558E+02 -0.76745187010E+02  0.11995394603E+03  0.84672839849E+02 0.  0.
          5    1    5    5  501    0  0.80496250703E+02  0.41458452988E+02 -0.73945963866E+02  0.11699805671E+03  0.47000000000E+01 0. -1.
        -13    1    6    6    0    0 -0.37067061663E+02  0.95977347890E+01 -0.13439507746E+01  0.38313049698E+02  0.00000000000E+00 0.  1.
         14    1    6    6    0    0  0.71684348149E+01 -0.30471348347E+02 -0.75401236235E+02  0.81640896330E+02  0.00000000000E+00 0. -1.
         -5    1    3    3    0  503 -0.56727778994E+02  0.50250981437E+02  0.13909953710E+03  0.15847388828E+03  0.47000000000E+01 0.  1.
         11    1    4    4    0    0 -0.13635556175E+02 -0.36442926627E+02  0.34002610706E+02  0.51673908582E+02  0.00000000000E+00 0. -1.
        -12    1    4    4    0    0  0.19765711314E+02 -0.34392894241E+02  0.22102731745E+03  0.22455874415E+03  0.00000000000E+00 0.  1.
</event>
<event>
12    1  0.1593360E-001  0.1912910E+03  0.7818608E-02  0.1157324E+00
         21   -1    0    0  503  502  0.00000000000E+00  0.00000000000E+00  0.43628561062E+03  0.43628561062E+03  0.00000000000E+00 0. -1.
         21   -1    0    0  501  503 -0.00000000000E+00 -0.00000000000E+00 -0.85496271745E+02  0.85496271745E+02  0.00000000000E+00 0. -1.
          6    2    1    2  501    0  0.82106499907E+02  0.18606658099E+02  0.21178147394E+03  0.28531745002E+03  0.17165945802E+03 0.  0.
         24    2    3    3    0    0  0.11318589620E+03  0.48223831851E+02  0.17853499480E+03  0.23081493420E+03  0.79146727180E+02 0.  0.
         -6    2    1    2    0  502 -0.82106499907E+02 -0.18606658099E+02  0.13900786494E+03  0.23646443235E+03  0.17176890347E+03 0.  0.
        -24    2    5    5    0    0 -0.11820118901E+03 -0.44826481122E+02  0.12371155089E+03  0.18906851560E+03  0.66793871545E+02 0.  0.
          5    1    3    3  501    0 -0.31079396298E+02 -0.29617173753E+02  0.33246479141E+02  0.54502515819E+02  0.47000000000E+01 0. -1.
        -11    1    4    4    0    0  0.28173978290E+02  0.53144767108E+02  0.60940585811E+02  0.85626481433E+02  0.00000000000E+00 0.  1.
         12    1    4    4    0    0  0.85011917915E+02 -0.49209352562E+01  0.11759440899E+03  0.14518845276E+03  0.00000000000E+00 0. -1.
         -5    1    5    5    0  502  0.36094689103E+02  0.26219823023E+02  0.15296314046E+02  0.47395916746E+02  0.47000000000E+01 0.  1.
         13    1    6    6    0    0 -0.36715972845E+02 -0.49059307476E+02  0.49492937895E+02  0.78768199252E+02  0.00000000000E+00 0. -1.
        -14    1    6    6    0    0 -0.81485216164E+02  0.42328263542E+01  0.74218612997E+02  0.11030031635E+03  0.00000000000E+00 0.  1.
</event>
<event>
12    1  0.1593360E-001  0.2055848E+03  0.7818608E-02  0.1145116E+00
         21   -1    0    0  501  502  0.00000000000E+00  0.00000000000E+00  0.12966546851E+04  0.12966546851E+04  0.00000000000E+00 0.  1.
         21   -1    0    0  502  503 -0.00000000000E+00 -0.00000000000E+00 -0.38411908815E+02  0.38411908815E+02  0.00000000000E+00 0.  1.
         -6    2    1    2    0  503  0.42704815304E+02 -0.10542262177E+03  0.36923834854E+03  0.42260072349E+03  0.17122144442E+03 0.  0.
        -24    2    3    3    0    0  0.27277698115E+02 -0.36762949839E+02  0.72069646148E+02  0.11717728926E+03  0.80255192527E+02 0.  0.
          6    2    1    2  501    0 -0.42704815304E+02  0.10542262177E+03  0.88900442779E+03  0.91246587047E+03  0.17125262541E+03 0.  0.
         24    2    5    5    0    0  0.12021001737E+02  0.58975393530E+02  0.74392839183E+03  0.75053561922E+03  0.79067452272E+02 0.  0.
          5    1    5    5  501    0 -0.54725817041E+02  0.46447228244E+02  0.14507603595E+03  0.16193025125E+03  0.47000000000E+01 0. -1.
        -13    1    6    6    0    0 -0.20128311976E+02  0.16863298564E+02  0.74098104997E+02  0.78613287335E+02  0.00000000000E+00 0.  1.
         14    1    6    6    0    0  0.32149313713E+02  0.42112094966E+02  0.66983028684E+03  0.67192233188E+03  0.00000000000E+00 0. -1.
         -5    1    3    3    0  503  0.15427117189E+02 -0.68659671936E+02  0.29716870239E+03  0.30542343423E+03  0.47000000000E+01 0.  1.
         13    1    4    4    0    0  0.48555488495E+02  0.42317703452E+00  0.29691659881E+02  0.56915808070E+02  0.00000000000E+00 0. -1.
        -14    1    4    4    0    0 -0.21277790380E+02 -0.37186126873E+02  0.42377986268E+02  0.60261481191E+02  0.00000000000E+00 0.  1.
</event>
<event>
12    1  0.1593360E-001  0.1815986E+03  0.7818608E-02  0.1167451E+00
         21   -1    0    0  503  502  0.00000000000E+00  0.00000000000E+00  0.97311938283E+03  0.97311938283E+03  0.00000000000E+00 0. -1.
         21   -1    0    0  501  503 -0.00000000000E+00 -0.00000000000E+00 -0.79782459055E+02  0.79782459055E+02  0.00000000000E+00 0.  1.
          6    2    1    2  501    0 -0.52536492745E+01 -0.56394633244E+02  0.45999676127E+02  0.18733400964E+03  0.17254015612E+03 0.  0.
         24    2    3    3    0    0 -0.69082516348E+02 -0.48057349941E+02  0.31384906291E+02  0.12115760854E+03  0.81315747647E+02 0.  0.
         -6    2    1    2    0  502  0.52536492745E+01  0.56394633244E+02  0.84733724765E+03  0.86556783225E+03  0.16738968153E+03 0.  0.
        -24    2    5    5    0    0  0.64841007265E+02  0.48638730645E+02  0.47732759874E+03  0.49068113264E+03  0.79726125392E+02 0.  0.
          5    1    3    3  501    0  0.63828867074E+02 -0.83372833028E+01  0.14614769836E+02  0.66176401097E+02  0.47000000000E+01 0. -1.
        -11    1    4    4    0    0  0.32034010428E+01 -0.32790328194E+02  0.33849216660E+02  0.47235970084E+02  0.00000000000E+00 0.  1.
         12    1    4    4    0    0 -0.72285917391E+02 -0.15267021748E+02 -0.24643103695E+01  0.73921638454E+02  0.00000000000E+00 0. -1.
         -5    1    5    5    0  502 -0.59587357991E+02  0.77559025990E+01  0.37000964891E+03  0.37488669961E+03  0.47000000000E+01 0.  1.
         13    1    6    6    0    0 -0.13670743671E+02  0.21307549484E+02  0.18631830798E+03  0.18803035071E+03  0.00000000000E+00 0. -1.
        -14    1    6    6    0    0  0.78511750936E+02  0.27331181161E+02  0.29100929076E+03  0.30265078193E+03  0.00000000000E+00 0.  1.
</event>
<event>
12    1  0.1593360E-001  0.2778716E+03  0.7818608E-02  0.1096896E+00
         21   -1    0    0  503  502  0.00000000000E+00  0.00000000000E+00  0.13492240453E+03  0.13492240453E+03  0.00000000000E+00 0. -1.
         21   -1    0    0  501  503 -0.00000000000E+00 -0.00000000000E+00 -0.57853688771E+03  0.57853688771E+03  0.00000000000E+00 0. -1.
          6    2    1    2  501    0 -0.19877152237E+03  0.89114370514E+02 -0.26070923206E+03  0.38102744284E+03  0.17251411355E+03 0.  0.
         24    2    3    3    0    0 -0.11076160916E+03  0.59369306799E+02 -0.61586539871E+02  0.16124925879E+03  0.80097271564E+02 0.  0.
         -6    2    1    2    0  502  0.19877152237E+03 -0.89114370514E+02 -0.18290525112E+03  0.33243184940E+03  0.17206136832E+03 0.  0.
        -24    2    5    5    0    0  0.51707489470E+02 -0.63772000180E+02 -0.28921081590E+02  0.11794809716E+03  0.79591407764E+02 0.  0.
          5    1    3    3  501    0 -0.88009913210E+02  0.29745063714E+02 -0.19912269219E+03  0.21977818405E+03  0.47000000000E+01 0. -1.
        -11    1    4    4    0    0  0.15111869860E+01 -0.13934769804E+02 -0.82771044041E+00  0.14040890291E+02  0.00000000000E+00 0.  1.
         12    1    4    4    0    0 -0.11227279615E+03  0.73304076603E+02 -0.60758829431E+02  0.14720836850E+03  0.00000000000E+00 0. -1.
         -5    1    5    5    0  502  0.14706403290E+03 -0.25342370334E+02 -0.15398416953E+03  0.21448375223E+03  0.47000000000E+01 0.  1.
         13    1    6    6    0    0  0.49087237815E+02 -0.57471683201E+02 -0.53395758959E+02  0.92540036531E+02  0.00000000000E+00 0. -1.
        -14    1    6    6    0    0  0.26202516556E+01 -0.63003169786E+01  0.24474677369E+02  0.25408060632E+02  0.00000000000E+00 0.  1.
</event>
<event>
12    1  0.1593360E-001  0.2309497E+03  0.7818608E-02  0.1126355E+00
         21   -1    0    0  501  502  0.00000000000E+00  0.00000000000E+00  0.30375471980E+03  0.30375471980E+03  0.00000000000E+00 0.  1.
         21   -1    0    0  502  503 -0.00000000000E+00 -0.00000000000E+00 -0.19581518149E+03  0.19581518149E+03  0.00000000000E+00 0.  1.
         -6    2    1    2    0  503 -0.74729140599E+02  0.13158091063E+03 -0.29273169464E+02  0.23279755082E+03  0.17447005680E+03 0.  0.
        -24    2    3    3    0    0  0.71057982255E+01  0.75588864234E+02  0.22716547262E+02  0.12073914142E+03  0.91091876618E+02 0.  0.
          6    2    1    2  501    0  0.74729140599E+02 -0.13158091063E+03  0.13721270777E+03  0.26677235047E+03  0.17158723526E+03 0.  0.
         24    2    5    5    0    0 -0.71724516974E+01 -0.17509990847E+02  0.80264357305E+02  0.11516347810E+03  0.80387908238E+02 0.  0.
          5    1    5    5  501    0  0.81901592297E+02 -0.11407091978E+03  0.56948350465E+02  0.15160887237E+03  0.47000000000E+01 0. -1.
        -13    1    6    6    0    0 -0.10051823906E+01 -0.38426029029E+02  0.84606389282E+02  0.92929065453E+02  0.00000000000E+00 0.  1.
         14    1    6    6    0    0 -0.61672693068E+01  0.20916038182E+02 -0.43420319770E+01  0.22234412644E+02  0.00000000000E+00 0. -1.
         -5    1    3    3    0  503 -0.81834938825E+02  0.55992046398E+02 -0.51989716726E+02  0.11205840940E+03  0.47000000000E+01 0.  1.
         13    1    4    4    0    0 -0.99920230927E+01  0.81365016025E+02 -0.10788152489E+02  0.82683073192E+02  0.00000000000E+00 0. -1.
        -14    1    4    4    0    0  0.17097821318E+02 -0.57761517916E+01  0.33504699750E+02  0.38056068224E+02  0.00000000000E+00 0.  1.
</event>
<event>
12    1  0.1593360E-001  0.1805673E+03  0.7818608E-02  0.1168461E+00
         21   -1    0    0  501  502  0.00000000000E+00  0.00000000000E+00  0.67923288650E+03  0.67923288650E+03  0.00000000000E+00 0. -1.
         21   -1    0    0  502  503 -0.00000000000E+00 -0.00000000000E+00 -0.18791590333E+03  0.18791590333E+03  0.00000000000E+00 0. -1.
         -6    2    1    2    0  503 -0.34984728556E+02 -0.24768579411E+01 -0.13103427635E+03  0.21913208162E+03  0.17210119570E+03 0.  0.
        -24    2    3    3    0    0  0.26411292631E+02 -0.28878040655E+02 -0.22885039751E+02  0.91912424168E+02  0.79954181013E+02 0.  0.
          6    2    1    2  501    0  0.34984728556E+02  0.24768579411E+01  0.62235125951E+03  0.64801670821E+03  0.17712847835E+03 0.  0.
         24    2    5    5    0    0  0.41804920916E+02  0.61523647702E+02  0.28111054978E+03  0.30160604096E+03  0.80064050021E+02 0.  0.
          5    1    5    5  501    0 -0.68201923601E+01 -0.59046789761E+02  0.34124070973E+03  0.34641066724E+03  0.47000000000E+01 0. -1.
        -11    1    6    6    0    0  0.51784596339E+00  0.19668264821E+02  0.64225418766E+01  0.20696807717E+02  0.00000000000E+00 0.  1.
         12    1    6    6    0    0  0.41287074952E+02  0.41855382881E+02  0.27468800791E+03  0.28090923325E+03  0.00000000000E+00 0. -1.
         -5    1    3    3    0  503 -0.61396021187E+02  0.26401182714E+02 -0.10814923660E+03  0.12721965745E+03  0.47000000000E+01 0.  1.
         11    1    4    4    0    0  0.83493339017E+01  0.50595902381E+01 -0.46019547034E+02  0.47043698188E+02  0.00000000000E+00 0. -1.
        -12    1    4    4    0    0  0.18061958729E+02 -0.33937630893E+02  0.23134507283E+02  0.44868725980E+02  0.00000000000E+00 0.  1.
</event>
<event>
12    1  0.1593360E-001  0.1852080E+03  0.7818608E-02  0.1162883E+00
         21   -1    0    0  501  502  0.00000000000E+00  0.00000000000E+00  0.79052245592E+03  0.79052245592E+03  0.00000000000E+00 0.  1.
         21   -1    0    0  502  503 -0.00000000000E+00 -0.00000000000E+00 -0.28953674624E+03  0.28953674624E+03  0.00000000000E+00 0.  1.
         -6    2    1    2    0  503 -0.21791829253E+02 -0.64586903032E+02 -0.24744532903E+03  0.30908121504E+03  0.17220817276E+03 0.  0.
        -24    2    3    3    0    0  0.28910874528E+02  0.57035772406E+01 -0.64651416882E+02  0.10672702035E+03  0.79639699329E+02 0.  0.
          6    2    1    2  501    0  0.21791829253E+02  0.64586903032E+02  0.74843103871E+03  0.77097798712E+03  0.17208046100E+03 0.  0.
         24    2    5    5    0    0  0.83594542076E+01  0.68466862394E+02  0.74879727864E+03  0.75622309249E+03  0.80114976063E+02 0.  0.
          5    1    5    5  501    0  0.13432375045E+02 -0.38799593618E+01 -0.36623993310E+00  0.14754894635E+02  0.47000000000E+01 0. -1.
        -11    1    6    6    0    0 -0.30114725165E+02  0.50299913568E+02  0.53727227577E+03  0.54046135504E+03  0.00000000000E+00 0.  1.
         12    1    6    6    0    0  0.38474179373E+02  0.18166948826E+02  0.21152500287E+03  0.21576173745E+03  0.00000000000E+00 0. -1.
         -5    1    3    3    0  503 -0.50702703780E+02 -0.70290480273E+02 -0.18279391215E+03  0.20235419468E+03  0.47000000000E+01 0.  1.
         11    1    4    4    0    0 -0.80176053201E+01 -0.24328186694E+02  0.10016069101E+01  0.25634856725E+02  0.00000000000E+00 0. -1.
        -12    1    4    4    0    0  0.36928479848E+02  0.30031763935E+02 -0.65653023792E+02  0.81092163628E+02  0.00000000000E+00 0.  1.
</event>
<event>
12    1  0.1593360E-001  0.1805609E+03  0.7818608E-02  0.1167449E+00
         21   -1    0    0  501  502  0.00000000000E+00  0.00000000000E+00  0.19869300260E+03  0.19869300260E+03  0.00000000000E+00 0. -1.
         21   -1    0    0  502  503 -0.00000000000E+00 -0.00000000000E+00 -0.23976930115E+03  0.23976930115E+03  0.00000000000E+00 0. -1.
         -6    2    1    2    0  503  0.36446520550E+02  0.38268958249E+02 -0.14431213496E+03  0.23114548839E+03  0.17265393851E+03 0.  0.
        -24    2    3    3    0    0 -0.35459068112E+02  0.38266460046E+02 -0.38083628632E+02  0.10278272415E+03  0.79951598722E+02 0.  0.
          6    2    1    2  501    0 -0.36446520550E+02 -0.38268958249E+02  0.10323583641E+03  0.20731681536E+03  0.17184225902E+03 0.  0.
         24    2    5    5    0    0 -0.14399500372E+02  0.38166715295E+02  0.17211957678E+02  0.90053517603E+02  0.78417732549E+02 0.  0.
          5    1    5    5  501    0 -0.22047020178E+02 -0.76435673544E+02  0.86023878731E+02  0.11726329776E+03  0.47000000000E+01 0. -1.
        -11    1    6    6    0    0 -0.43526478992E+02  0.18219446434E+02 -0.63484802412E+01  0.47610984060E+02  0.00000000000E+00 0.  1.
         12    1    6    6    0    0  0.29126978620E+02  0.19947268862E+02  0.23560437919E+02  0.42442533542E+02  0.00000000000E+00 0. -1.
         -5    1    3    3    0  503  0.71905588662E+02  0.24982030837E-02 -0.10622850633E+03  0.12836276424E+03  0.47000000000E+01 0.  1.
         11    1    4    4    0    0 -0.18256794195E+02  0.98033031520E+00 -0.55309430366E+02  0.58252937001E+02  0.00000000000E+00 0. -1.
        -12    1    4    4    0    0 -0.17202273916E+02  0.37286129731E+02  0.17225801734E+02  0.44529787149E+02  0.00000000000E+00 0.  1.
</event>
<event>
12    1  0.1593360E-001  0.2509377E+03  0.7818608E-02  0.1113072E+00
         21   -1    0    0  503  502  0.00000000000E+00  0.00000000000E+00  0.74872836172E+02  0.74872836172E+02  0.00000000000E+00 0. -1.
         21   -1    0    0  501  503 -0.00000000000E+00 -0.00000000000E+00 -0.16506912548E+04  0.16506912548E+04  0.00000000000E+00 0.  1.
          6    2    1    2  501    0 -0.13399902506E+03 -0.12024202158E+03 -0.13931798901E+04  0.14151988852E+04  0.17153365861E+03 0.  0.
         24    2    3    3    0    0 -0.21978960117E+02  0.42907469294E+00 -0.40985903094E+03  0.41817731548E+03  0.80028639569E+02 0.  0.
         -6    2    1    2    0  502  0.13399902506E+03  0.12024202158E+03 -0.18263852857E+03  0.31036520581E+03  0.17480230659E+03 0.  0.
        -24    2    5    5    0    0  0.45251600577E+02  0.72777825797E+02 -0.20286490195E+02  0.11929132063E+03  0.80464639500E+02 0.  0.
          5    1    3    3  501    0 -0.11202006495E+03 -0.12067109627E+03 -0.98332085913E+03  0.99702156969E+03  0.47000000000E+01 0. -1.
        -13    1    4    4    0    0 -0.43431205352E+02 -0.10879199200E+02 -0.35956830935E+03  0.36234513335E+03  0.00000000000E+00 0.  1.
         14    1    4    4    0    0  0.21452245235E+02  0.11308273893E+02 -0.50290721588E+02  0.55832182135E+02  0.00000000000E+00 0. -1.
         -5    1    5    5    0  502  0.88747424486E+02  0.47464195781E+02 -0.16235203838E+03  0.19107388518E+03  0.47000000000E+01 0.  1.
         13    1    6    6    0    0  0.54978280472E+02  0.84804592281E+02 -0.12092736517E+02  0.10178734927E+03  0.00000000000E+00 0. -1.
        -14    1    6    6    0    0 -0.97266798952E+01 -0.12026766483E+02 -0.81937536780E+01  0.17503971354E+02  0.00000000000E+00 0.  1.
</event>
<event>
12    1  0.1593360E-001  0.1749680E+03  0.7818608E-02  0.1172806E+00
         21   -1    0    0  503  502  0.00000000000E+00  0.00000000000E+00  0.37183466157E+03  0.37183466157E+03  0.00000000000E+00 0. -1.
         21   -1    0    0  501  503 -0.00000000000E+00 -0.00000000000E+00 -0.15868736450E+03  0.15868736450E+03  0.00000000000E+00 0. -1.
          6    2    1    2  501    0  0.32083145746E+02  0.12440740940E+02 -0.77496392193E+02  0.19136218812E+03  0.17155085532E+03 0.  0.
         24    2    3    3    0    0  0.26677771043E+02 -0.21396081360E+02 -0.11309387098E+03  0.14172934501E+03  0.78278271677E+02 0.  0.
         -6    2    1    2    0  502 -0.32083145746E+02 -0.12440740940E+02  0.29064368926E+03  0.33915983794E+03  0.17138127462E+03 0.  0.
        -24    2    5    5    0    0  0.19049294264E+02  0.37538474442E+02  0.93169112149E+02  0.12908664356E+03  0.78809043971E+02 0.  0.
          5    1    3    3  501    0  0.54053747035E+01  0.33836822300E+02  0.35597478791E+02  0.49632843111E+02  0.47000000000E+01 0. -1.
        -11    1    4    4    0    0  0.31887612448E+02  0.12007069372E+02 -0.13666905067E+02  0.36712039397E+02  0.00000000000E+00 0.  1.
         12    1    4    4    0    0 -0.52098414057E+01 -0.33403150731E+02 -0.99426965917E+02  0.10501730561E+03  0.00000000000E+00 0. -1.
         -5    1    5    5    0  502 -0.51132440011E+02 -0.49979215383E+02  0.19747457711E+03  0.21007319438E+03  0.47000000000E+01 0.  1.
         11    1    6    6    0    0  0.47586639119E+02  0.29517009328E+02  0.42177857488E+02  0.70105019254E+02  0.00000000000E+00 0. -1.
        -12    1    6    6    0    0 -0.28537344855E+02  0.80214651142E+01  0.50991254661E+02  0.58981624306E+02  0.00000000000E+00 0.  1.
</event>
<event>
12    1  0.1593360E-001  0.2487122E+03  0.7818608E-02  0.1114523E+00
         21   -1    0    0  501  502  0.00000000000E+00  0.00000000000E+00  0.78370591134E+03  0.78370591134E+03  0.00000000000E+00 0.  1.
         21   -1    0    0  502  503 -0.00000000000E+00 -0.00000000000E+00 -0.83477864165E+02  0.83477864165E+02  0.00000000000E+00 0.  1.
         -6    2    1    2    0  503  0.14618764224E+03  0.10025073028E+03  0.46146317661E+03  0.52421946243E+03  0.17446130161E+03 0.  0.
        -24    2    3    3    0    0  0.81798461804E+02 -0.10880020049E+02  0.16133863368E+03  0.19773387087E+03  0.79114889769E+02 0.  0.
          6    2    1    2  501    0 -0.14618764224E+03 -0.10025073028E+03  0.23876487056E+03  0.34296431307E+03  0.17086492022E+03 0.  0.
         24    2    5    5    0    0 -0.10943537540E+03  0.66616366879E+00  0.16914701403E+03  0.21488744338E+03  0.74761994385E+02 0.  0.
          5    1    5    5  501    0 -0.36752266836E+02 -0.10091689395E+03  0.69617856539E+02  0.12807686970E+03  0.47000000000E+01 0. -1.
        -11    1    6    6    0    0 -0.10521696507E+03 -0.21406036406E+02  0.15419468824E+03  0.18789579563E+03  0.00000000000E+00 0.  1.
         12    1    6    6    0    0 -0.42184103335E+01  0.22072200075E+02  0.14952325783E+02  0.26991647749E+02  0.00000000000E+00 0. -1.
         -5    1    3    3    0  503  0.64389180434E+02  0.11113075033E+03  0.30012454293E+03  0.32648559155E+03  0.47000000000E+01 0.  1.
         11    1    4    4    0    0  0.94540612390E+01 -0.12340849427E+02 -0.50065338025E+01  0.16332214155E+02  0.00000000000E+00 0. -1.
        -12    1    4    4    0    0  0.72344400565E+02  0.14608293772E+01  0.16634516748E+03  0.18140165672E+03  0.00000000000E+00 0.  1.
</event>
<event>
12    1  0.1593360E-001  0.2214048E+03  0.7818608E-02  0.1132873E+00
         21   -1    0    0  503  502  0.00000000000E+00  0.00000000000E+00  0.10248714796E+04  0.10248714796E+04  0.00000000000E+00 0.  1.
         21   -1    0    0  501  503 -0.00000000000E+00 -0.00000000000E+00 -0.19005555890E+03  0.19005555890E+03  0.00000000000E+00 0.  1.
          6    2    1    2  501    0 -0.10917543682E+03 -0.86405325352E+02 -0.10811476570E+03  0.24639176151E+03  0.17214802154E+03 0.  0.
         24    2    3    3    0    0 -0.94144649692E+02  0.44396044038E+01 -0.38600388499E+02  0.13092287192E+03  0.82267145612E+02 0.  0.
         -6    2    1    2    0  502  0.10917543682E+03  0.86405325352E+02  0.94293068644E+03  0.96853527704E+03  0.17192192175E+03 0.  0.
        -24    2    5    5    0    0  0.17849890766E+02  0.55652487310E+02  0.24120352071E+03  0.26020682389E+03  0.78183341275E+02 0.  0.
          5    1    3    3  501    0 -0.15030787129E+02 -0.90844929755E+02 -0.69514377205E+02  0.11546888959E+03  0.47000000000E+01 0. -1.
        -13    1    4    4    0    0 -0.47571436312E+02 -0.22664160506E+02 -0.53420390741E+02  0.75036283698E+02  0.00000000000E+00 0.  1.
         14    1    4    4    0    0 -0.46573213380E+02  0.27103764910E+02  0.14820002243E+02  0.55886588224E+02  0.00000000000E+00 0. -1.
         -5    1    5    5    0  502  0.91325546054E+02  0.30752838042E+02  0.70172716574E+03  0.70832845315E+03  0.47000000000E+01 0.  1.
         11    1    6    6    0    0  0.38969239576E+02  0.79974238163E+01  0.14972555348E+03  0.15492030786E+03  0.00000000000E+00 0. -1.
        -12    1    6    6    0    0 -0.21119348809E+02  0.47655063494E+02  0.91477967224E+02  0.10528651603E+03  0.00000000000E+00 0.  1.
</event>
<event>
12    1  0.1593360E-001  0.1833759E+03  0.7818608E-02  0.1164762E+00
         21   -1    0    0  503  502  0.00000000000E+00  0.00000000000E+00  0.19500747597E+03  0.19500747597E+03  0.00000000000E+00 0.  1.
         21   -1    0    0  501  503 -0.00000000000E+00 -0.00000000000E+00 -0.18619168118E+03  0.18619168118E+03  0.00000000000E+00 0.  1.
          6    2    1    2  501    0  0.43301579734E+02 -0.43452743985E+02 -0.48780312564E+02  0.18899084860E+03  0.17197341130E+03 0.  0.
         24    2    3    3    0    0  0.50751626062E+02  0.37489361292E+02 -0.31156048596E+02  0.10568519286E+03  0.78851004233E+02 0.  0.
         -6    2    1    2    0  502 -0.43301579734E+02  0.43452743985E+02  0.57596107351E+02  0.19220830855E+03  0.17281074772E+03 0.  0.
        -24    2    5    5    0    0 -0.36307438098E+02 -0.42460594527E+02  0.44081021763E+02  0.10483115313E+03  0.76975983512E+02 0.  0.
          5    1    3    3  501    0 -0.74500463280E+01 -0.80942105277E+02 -0.17624263968E+02  0.83305655735E+02  0.47000000000E+01 0. -1.
        -13    1    4    4    0    0  0.20891004709E+02  0.57970020864E+02 -0.32067836687E+02  0.69464404888E+02  0.00000000000E+00 0.  1.
         14    1    4    4    0    0  0.29860621353E+02 -0.20480659571E+02  0.91178809114E+00  0.36220787976E+02  0.00000000000E+00 0. -1.
         -5    1    5    5    0  502 -0.69941416363E+01  0.85913338512E+02  0.13515085588E+02  0.87377155424E+02  0.47000000000E+01 0.  1.
         13    1    6    6    0    0 -0.40427290068E+02  0.10115067533E+02  0.13180466225E+02  0.43708180737E+02  0.00000000000E+00 0. -1.
        -14    1    6    6    0    0  0.41198519703E+01 -0.52575662060E+02  0.30900555538E+02  0.61122972391E+02  0.00000000000E+00 0.  1.
</event>
<event>
12    1  0.1593360E-001  0.1732058E+03  0.7818608E-02  0.1174578E+00
         21   -1    0    0  503  502  0.00000000000E+00  0.00000000000E+00  0.45010822922E+03  0.45010822922E+03  0.00000000000E+00 0.  1.
         21   -1    0    0  501  503 -0.00000000000E+00 -0.00000000000E+00 -0.13525908788E+03  0.13525908788E+03  0.00000000000E+00 0.  1.
          6    2    1    2  501    0 -0.19426866741E+02 -0.96640945760E+01 -0.51129945612E+02  0.18047111199E+03  0.17171124905E+03 0.  0.
         24    2    3    3    0    0 -0.11988850870E+02 -0.72444968955E+02 -0.24345848191E+02  0.11165076513E+03  0.80505695190E+02 0.  0.
         -6    2    1    2    0  502  0.19426866741E+02  0.96640945760E+01  0.36597908695E+03  0.40489620511E+03  0.17184134238E+03 0.  0.
        -24    2    5    5    0    0  0.78336693188E+02  0.16538978055E+02  0.25437724191E+03  0.27842607626E+03  0.80019519148E+02 0.  0.
          5    1    3    3  501    0 -0.74380158718E+01  0.62780874379E+02 -0.26784097421E+02  0.68820346864E+02  0.47000000000E+01 0. -1.
        -13    1    4    4    0    0  0.15355769141E+02 -0.47632660413E+02 -0.46730090023E+02  0.68471682450E+02  0.00000000000E+00 0.  1.
         14    1    4    4    0    0 -0.27344620011E+02 -0.24812308541E+02  0.22384241832E+02  0.43179082680E+02  0.00000000000E+00 0. -1.
         -5    1    5    5    0  502 -0.58909826447E+02 -0.68748834785E+01  0.11160184504E+03  0.12647012885E+03  0.47000000000E+01 0.  1.
         11    1    6    6    0    0  0.16999647489E+02 -0.25532415553E+02  0.12943915860E+03  0.13302401302E+03  0.00000000000E+00 0. -1.
        -12    1    6    6    0    0  0.61337045699E+02  0.42071393608E+02  0.12493808330E+03  0.14540206324E+03  0.00000000000E+00 0.  1.
</event>
<event>
12    1  0.1593360E-001  0.2053923E+03  0.7818608E-02  0.1145496E+00
         21   -1    0    0  503  502  0.00000000000E+00  0.00000000000E+00  0.36079236041E+02  0.36079236041E+02  0.00000000000E+00 0.  1.
         21   -1    0    0  501  503 -0.00000000000E+00 -0.00000000000E+00 -0.13835700688E+04  0.13835700688E+04  0.00000000000E+00 0.  1.
          6    2    1    2  501    0 -0.91489438351E+02 -0.63177559109E+02 -0.95877076591E+03  0.98052403868E+03  0.17269709770E+03 0.  0.
         24    2    3    3    0    0 -0.79779459148E+02  0.28264697741E+01 -0.34804883545E+03  0.36611617594E+03  0.80810342139E+02 0.  0.
         -6    2    1    2    0  502  0.91489438351E+02  0.63177559109E+02 -0.38872006682E+03  0.43912526614E+03  0.17136507143E+03 0.  0.
        -24    2    5    5    0    0 -0.27885989194E+02  0.18504199501E+02 -0.15550755605E+03  0.17331261230E+03  0.68808631732E+02 0.  0.
          5    1    3    3  501    0 -0.11709979203E+02 -0.66004028883E+02 -0.61072193046E+03  0.61440786274E+03  0.47000000000E+01 0. -1.
        -11    1    4    4    0    0 -0.22532950270E+02 -0.69951466123E+00 -0.26037017249E+03  0.26134431291E+03  0.00000000000E+00 0.  1.
         12    1    4    4    0    0 -0.57246508878E+02  0.35259844353E+01 -0.87678662961E+02  0.10477186303E+03  0.00000000000E+00 0. -1.
         -5    1    5    5    0  502  0.11937542754E+03  0.44673359608E+02 -0.23321251077E+03  0.26581265384E+03  0.47000000000E+01 0.  1.
         11    1    6    6    0    0 -0.32932088636E+02  0.40253165197E+02 -0.88121832557E+02  0.10232446992E+03  0.00000000000E+00 0. -1.
        -12    1    6    6    0    0  0.50460994422E+01 -0.21748965696E+02 -0.67385723492E+02  0.70988142383E+02  0.00000000000E+00 0.  1.
</event>
<event>
12    1  0.1593360E-001  0.1958348E+03  0.7818608E-02  0.1153685E+00
         21   -1    0    0  501  502  0.00000000000E+00  0.00000000000E+00  0.11749395525E+03  0.11749395525E+03  0.00000000000E+00 0.  1.
         21   -1    0    0  502  503 -0.00000000000E+00 -0.00000000000E+00 -0.79562996439E+03  0.79562996439E+03  0.00000000000E+00 0.  1.
         -6    2    1    2    0  503 -0.83191707383E+02 -0.43262093621E+02 -0.69139895467E+03  0.71859848337E+03  0.17192671946E+03 0.  0.
        -24    2    3    3    0    0 -0.12641460893E+02  0.13595761594E+02 -0.19233465950E+03  0.21135355861E+03  0.85633254212E+02 0.  0.
          6    2    1    2  501    0  0.83191707383E+02  0.43262093621E+02  0.13262945522E+02  0.19452543627E+03  0.16991695240E+03 0.  0.
         24    2    5    5    0    0  0.54003476880E+01 -0.31745688365E+02  0.86159469108E+01  0.86260263676E+02  0.79559072791E+02 0.  0.
          5    1    5    5  501    0  0.77791359695E+02  0.75007781985E+02  0.46469986111E+01  0.10826517260E+03  0.47000000000E+01 0. -1.
        -13    1    6    6    0    0  0.36220298018E+02 -0.38545164275E+02  0.12809719860E+02  0.54421765870E+02  0.00000000000E+00 0.  1.
         14    1    6    6    0    0 -0.30819950330E+02  0.67994759102E+01 -0.41937729492E+01  0.31838497806E+02  0.00000000000E+00 0. -1.
         -5    1    3    3    0  503 -0.70550246490E+02 -0.56857855215E+02 -0.49906429517E+03  0.50724492476E+03  0.47000000000E+01 0.  1.
         13    1    4    4    0    0  0.13982539157E+02 -0.31906988619E+02 -0.72516418871E+02  0.80449974082E+02  0.00000000000E+00 0. -1.
        -14    1    4    4    0    0 -0.26624000051E+02  0.45502750213E+02 -0.11981824063E+03  0.13090358453E+03  0.00000000000E+00 0.  1.
</event>
<event>
12    1  0.1593360E-001  0.1820430E+03  0.7818608E-02  0.1166089E+00
         21   -1    0    0  501  502  0.00000000000E+00  0.00000000000E+00  0.59584905712E+03  0.59584905712E+03  0.00000000000E+00 0. -1.
         21   -1    0    0  502  503 -0.00000000000E+00 -0.00000000000E+00 -0.55799622433E+02  0.55799622433E+02  0.00000000000E+00 0. -1.
         -6    2    1    2    0  503 -0.42815343333E+02 -0.37727218612E+02  0.30159140487E+03  0.35227407043E+03  0.17286743060E+03 0.  0.
        -24    2    3    3    0    0 -0.78672703157E+02  0.12897071668E+02  0.23817973740E+03  0.26343883761E+03  0.79465119223E+02 0.  0.
          6    2    1    2  501    0  0.42815343333E+02  0.37727218612E+02  0.23845802983E+03  0.29937460913E+03  0.17177435185E+03 0.  0.
         24    2    5    5    0    0  0.22944572268E+02  0.82926035972E+02  0.11119706147E+03  0.16279047864E+03  0.82053474136E+02 0.  0.
          5    1    5    5  501    0  0.19870771065E+02 -0.45198817360E+02  0.12726096836E+03  0.13658413049E+03  0.47000000000E+01 0. -1.
        -13    1    6    6    0    0 -0.22085727348E+02  0.10191513705E+02  0.24763950368E+01  0.24449516079E+02  0.00000000000E+00 0.  1.
         14    1    6    6    0    0  0.45030299616E+02  0.72734522267E+02  0.10872066643E+03  0.13834096256E+03  0.00000000000E+00 0. -1.
         -5    1    3    3    0  503  0.35857359824E+02 -0.50624290280E+02  0.63411667462E+02  0.88835232820E+02  0.47000000000E+01 0.  1.
         11    1    4    4    0    0 -0.26611631931E+02  0.41150154113E+02  0.14469399881E+03  0.15276736376E+03  0.00000000000E+00 0. -1.
        -12    1    4    4    0    0 -0.52061071226E+02 -0.28253082445E+02  0.93485738590E+02  0.11067147385E+03  0.00000000000E+00 0.  1.
</event>
<event>
12    1  0.1593360E-001  0.2725957E+03  0.7818608E-02  0.1100411E+00
         21   -1    0    0  501  502  0.00000000000E+00  0.00000000000E+00  0.17509966574E+03  0.17509966574E+03  0.00000000000E+00 0.  1.
         21   -1    0    0  502  503 -0.00000000000E+00 -0.00000000000E+00 -0.68264351169E+03  0.68264351169E+03  0.00000000000E+00 0.  1.
         -6    2    1    2    0  503  0.17530337436E+03 -0.11828291137E+03 -0.52213754774E+03  0.58901275821E+03  0.17200665799E+03 0.  0.
        -24    2    3    3    0    0  0.17495489268E+03 -0.48576062964E+02 -0.32642093495E+03  0.38119974448E+03  0.76116818453E+02 0.  0.
          6    2    1    2  501    0 -0.17530337436E+03  0.11828291137E+03  0.14593701791E+02  0.26873041921E+03  0.16516943390E+03 0.  0.
         24    2    5    5    0    0 -0.99573078437E+02  0.12414091115E+03 -0.29733670854E+02  0.18065999371E+03  0.80175921421E+02 0.  0.
          5    1    5    5  501    0 -0.75730295921E+02 -0.58579997789E+01  0.44327372645E+02  0.88070425497E+02  0.47000000000E+01 0. -1.
        -13    1    6    6    0    0 -0.43075435553E+02  0.62226940302E+01 -0.24178570056E+02  0.49787732615E+02  0.00000000000E+00 0.  1.
         14    1    6    6    0    0 -0.56497642884E+02  0.11791821712E+03 -0.55551007980E+01  0.13087226110E+03  0.00000000000E+00 0. -1.
         -5    1    3    3    0  503  0.34848167830E+00 -0.69706848405E+02 -0.19571661279E+03  0.20781301374E+03  0.47000000000E+01 0.  1.
         11    1    4    4    0    0  0.40370587699E+02  0.78475022568E+01 -0.30334913287E+02  0.51103567458E+02  0.00000000000E+00 0. -1.
        -12    1    4    4    0    0  0.13458430498E+03 -0.56423565221E+02 -0.29608602166E+03  0.33009617702E+03  0.00000000000E+00 0.  1.
</event>
<event>
12    1  0.1593360E-001  0.1765394E+03  0.7818608E-02  0.1171264E+00
         21   -1    0    0  501  502  0.00000000000E+00  0.00000000000E+00  0.33423739467E+03  0.33423739467E+03  0.00000000000E+00 0.  1.
         21   -1    0    0  502  503 -0.00000000000E+00 -0.00000000000E+00 -0.20310942562E+03  0.20310942562E+03  0.00000000000E+00 0.  1.
         -6    2    1    2    0  503  0.32321800843E+02 -0.13009575591E+02 -0.13219150921E+03  0.22032427649E+03  0.17278380664E+03 0.  0.
        -24    2    3    3    0    0 -0.26363482544E+02 -0.32424921828E+02 -0.20235822312E+02  0.92351295024E+02  0.79830222476E+02 0.  0.
          6    2    1    2  501    0 -0.32321800843E+02  0.13009575591E+02  0.26331947827E+03  0.31702254380E+03  0.17306703260E+03 0.  0.
         24    2    5    5    0    0 -0.32283827215E+02  0.23258526152E+02  0.28177596055E+03  0.29539445632E+03  0.79227446888E+02 0.  0.
          5    1    5    5  501    0 -0.37973627561E-01 -0.10248950561E+02 -0.18456482285E+02  0.21628087478E+02  0.47000000000E+01 0. -1.
        -13    1    6    6    0    0 -0.51355524997E+02  0.38384085881E+02  0.19506149966E+03  0.20532831428E+03  0.00000000000E+00 0.  1.
         14    1    6    6    0    0  0.19071697782E+02 -0.15125559729E+02  0.86714460893E+02  0.90066142037E+02  0.00000000000E+00 0. -1.
         -5    1    3    3    0  503  0.58685283386E+02  0.19415346237E+02 -0.11195568690E+03  0.12797298147E+03  0.47000000000E+01 0.  1.
         11    1    4    4    0    0 -0.50845436426E+01  0.26251736180E+02 -0.83447659661E-02  0.26739601832E+02  0.00000000000E+00 0. -1.
        -12    1    4    4    0    0 -0.21278938901E+02 -0.58676658007E+02 -0.20227477546E+02  0.65611693192E+02  0.00000000000E+00 0.  1.
</event>
<event>
12    1  0.1593360E-001  0.2047730E+03  0.7818608E-02  0.1148295E+00
         21   -1    0    0  501  502  0.00000000000E+00  0.00000000000E+00  0.51791181415E+03  0.51791181415E+03  0.00000000000E+00 0.  1.
         21   -1    0    0  502  503 -0.00000000000E+00 -0.00000000000E+00 -0.76535102263E+02  0.76535102263E+02  0.00000000000E+00 0. -1.
         -6    2    1    2    0  503  0.47500881627E+02  0.10000107118E+03  0.21126016814E+03  0.29421562566E+03  0.17226557332E+03 0.  0.
        -24    2    3    3    0    0  0.20576081663E+01  0.31528821529E+02  0.25230193201E+02  0.90788042356E+02  0.81287180093E+02 0.  0.
          6    2    1    2  501    0 -0.47500881627E+02 -0.10000107118E+03  0.23011654374E+03  0.30023129074E+03  0.15788811306E+03 0.  0.
         24    2    5    5    0    0 -0.32659181330E+02 -0.35967637954E+01  0.15281894393E+03  0.17568782248E+03  0.80206125134E+02 0.  0.
          5    1    5    5  501    0 -0.14841700298E+02 -0.96404307385E+02  0.77297599811E+02  0.12454346826E+03  0.47000000000E+01 0. -1.
        -11    1    6    6    0    0  0.25304608897E+02  0.96331164678E+01  0.52617103501E+02  0.59174992566E+02  0.00000000000E+00 0.  1.
         12    1    6    6    0    0 -0.57963790227E+02 -0.13229880263E+02  0.10020184043E+03  0.11651282992E+03  0.00000000000E+00 0. -1.
         -5    1    3    3    0  503  0.45443273461E+02  0.68472249651E+02  0.18602997494E+03  0.20342758331E+03  0.47000000000E+01 0.  1.
         11    1    4    4    0    0  0.23159859237E+02  0.52067026005E+02  0.22308151686E+02  0.61196469739E+02  0.00000000000E+00 0. -1.
        -12    1    4    4    0    0 -0.21102251070E+02 -0.20538204476E+02  0.29220415151E+01  0.29591572617E+02  0.00000000000E+00 0.  1.
</event>
<event>
12    1  0.1593360E-001  0.3488716E+03  0.7818608E-02  0.1063273E+00
         21   -1    0    0  503  502  0.00000000000E+00  0.00000000000E+00  0.36230038524E+03  0.36230038524E+03  0.00000000000E+00 0. -1.
         21   -1    0    0  501  503 -0.00000000000E+00 -0.00000000000E+00 -0.33497332205E+03  0.33497332205E+03  0.00000000000E+00 0. -1.
          6    2    1    2  501    0  0.17483087979E+03 -0.24798199972E+03  0.31081259465E+02  0.35025340388E+03  0.17219318666E+03 0.  0.
         24    2    3    3    0    0  0.66482017390E+02 -0.35265578235E+02  0.11969307656E+01  0.10962315838E+03  0.79701220599E+02 0.  0.
         -6    2    1    2    0  502 -0.17483087979E+03  0.24798199972E+03 -0.37541962723E+01  0.34702030340E+03  0.16836890531E+03 0.  0.
        -24    2    5    5    0    0 -0.18510555170E+03  0.20547763090E+03  0.32957667925E+02  0.28973120126E+03  0.79830063511E+02 0.  0.
          5    1    3    3  501    0  0.10834886240E+03 -0.21271642148E+03  0.29884328699E+02  0.24063024551E+03  0.47000000000E+01 0. -1.
        -11    1    4    4    0    0 -0.35670100418E+01 -0.29594080012E+01 -0.27072596067E+02  0.27466472547E+02  0.00000000000E+00 0.  1.
         12    1    4    4    0    0  0.70049027432E+02 -0.32306170234E+02  0.28269526833E+02  0.82156685831E+02  0.00000000000E+00 0. -1.
         -5    1    5    5    0  502  0.10274671909E+02  0.42504368816E+02 -0.36711864197E+02  0.57289102141E+02  0.47000000000E+01 0.  1.
         11    1    6    6    0    0 -0.17496510695E+02  0.63124816088E+02 -0.81813497596E+01  0.66013671134E+02  0.00000000000E+00 0. -1.
        -12    1    6    6    0    0 -0.16760904100E+03  0.14235281481E+03  0.41139017685E+02  0.22371753013E+03  0.00000000000E+00 0.  1.
</event>
<event>
12    1  0.1593360E-001  0.2959252E+03  0.7818608E-02  0.1087628E+00
         21   -1    0    0  503  502  0.00000000000E+00  0.00000000000E+00  0.35671029443E+03  0.35671029443E+03  0.00000000000E+00 0. -1.
         21   -1    0    0  501  503 -0.00000000000E+00 -0.00000000000E+00 -0.25675266468E+03  0.25675266468E+03  0.00000000000E+00 0.  1.
          6    2    1    2  501    0  0.17770277322E+03  0.15916674230E+03 -0.20329320864E+02  0.29402489051E+03  0.17066056219E+03 0.  0.
         24    2    3    3    0    0  0.10142310041E+03  0.11436371397E+03 -0.80158341993E+02  0.18712539752E+03  0.72283125530E+02 0.  0.
         -6    2    1    2    0  502 -0.17770277322E+03 -0.15916674230E+03  0.12028695061E+03  0.31943806860E+03  0.17509826304E+03 0.  0.
        -24    2    5    5    0    0 -0.14409365734E+03 -0.40705739396E+02  0.89638233239E+02  0.19245769312E+03  0.81148083637E+02 0.  0.
          5    1    3    3  501    0  0.76279672804E+02  0.44803028331E+02  0.59829021129E+02  0.10689949298E+03  0.47000000000E+01 0. -1.
        -11    1    4    4    0    0  0.25804036150E+02  0.12509214048E+02 -0.48556202180E+02  0.56391785642E+02  0.00000000000E+00 0.  1.
         12    1    4    4    0    0  0.75619064263E+02  0.10185449992E+03 -0.31602139812E+02  0.13073361188E+03  0.00000000000E+00 0. -1.
         -5    1    5    5    0  502 -0.33609115874E+02 -0.11846100291E+03  0.30648717376E+02  0.12698037548E+03  0.47000000000E+01 0.  1.
         13    1    6    6    0    0 -0.86490597527E+02 -0.26012873601E+02  0.97021416898E+02  0.13255356800E+03  0.00000000000E+00 0. -1.
        -14    1    6    6    0    0 -0.57603059815E+02 -0.14692865795E+02 -0.73831836593E+01  0.59904125119E+02  0.00000000000E+00 0.  1.
</event>
<event>
12    1  0.1593360E-001  0.1861345E+03  0.7818608E-02  0.1162370E+00
         21   -1    0    0  501  502  0.00000000000E+00  0.00000000000E+00  0.17108972644E+03  0.17108972644E+03  0.00000000000E+00 0. -1.
         21   -1    0    0  502  503 -0.00000000000E+00 -0.00000000000E+00 -0.38963317217E+03  0.38963317217E+03  0.00000000000E+00 0. -1.
         -6    2    1    2    0  503 -0.62275142165E+02  0.19675306584E+02  0.85684854485E+02  0.20490964277E+03  0.17430076417E+03 0.  0.
        -24    2    3    3    0    0 -0.45854485983E+01 -0.50573859425E+02  0.43570479514E+02  0.10461628981E+03  0.80420394256E+02 0.  0.
          6    2    1    2  501    0  0.62275142165E+02 -0.19675306584E+02 -0.30422830021E+03  0.35581325584E+03  0.17257723882E+03 0.  0.
         24    2    5    5    0    0  0.47078837597E+02 -0.31693629035E+02 -0.69139619998E+02  0.11988075424E+03  0.79813564713E+02 0.  0.
          5    1    5    5  501    0  0.15196304568E+02  0.12018322451E+02 -0.23508868022E+03  0.23593250160E+03  0.47000000000E+01 0. -1.
        -13    1    6    6    0    0  0.42104912351E+02 -0.55752890930E+02 -0.64069346710E+02  0.94794987626E+02  0.00000000000E+00 0.  1.
         14    1    6    6    0    0  0.49739252456E+01  0.24059261895E+02 -0.50702732881E+01  0.25085766611E+02  0.00000000000E+00 0. -1.
         -5    1    3    3    0  503 -0.57689693566E+02  0.70249166009E+02  0.42114374972E+02  0.10029335296E+03  0.47000000000E+01 0.  1.
         11    1    4    4    0    0 -0.13260606891E+02  0.18797219288E+02  0.21011166220E+02  0.31155228358E+02  0.00000000000E+00 0. -1.
        -12    1    4    4    0    0  0.86751582923E+01 -0.69371078713E+02  0.22559313294E+02  0.73461061451E+02  0.00000000000E+00 0.  1.
</event>
<event>
12    1  0.1593360E-001  0.1808151E+03  0.7818608E-02  0.1167785E+00
         21   -1    0    0  501  502  0.00000000000E+00  0.00000000000E+00  0.25547006350E+03  0.25547006350E+03  0.00000000000E+00 0.  1.
         21   -1    0    0  502  503 -0.00000000000E+00 -0.00000000000E+00 -0.20560087701E+03  0.20560087701E+03  0.00000000000E+00 0.  1.
         -6    2    1    2    0  503 -0.52449874667E+02 -0.14703386192E+02 -0.11887063041E+03  0.21375087047E+03  0.16909177666E+03 0.  0.
        -24    2    3    3    0    0 -0.46891753568E+01 -0.42055431007E+02 -0.13028748027E+03  0.15734472529E+03  0.77407282725E+02 0.  0.
          6    2    1    2  501    0  0.52449874667E+02  0.14703386192E+02  0.16873981691E+03  0.24732007004E+03  0.17241494226E+03 0.  0.
         24    2    5    5    0    0  0.38656436247E+02 -0.31376341158E+02  0.17361859684E+03  0.19874546032E+03  0.82930971172E+02 0.  0.
          5    1    5    5  501    0  0.13793438420E+02  0.46079727349E+02 -0.48787799279E+01  0.48574609722E+02  0.47000000000E+01 0. -1.
        -11    1    6    6    0    0  0.21299045612E+02  0.19956370257E+02  0.11613845862E+03  0.11974993791E+03  0.00000000000E+00 0.  1.
         12    1    6    6    0    0  0.17357390636E+02 -0.51332711415E+02  0.57480138218E+02  0.78995522407E+02  0.00000000000E+00 0. -1.
         -5    1    3    3    0  503 -0.47760699310E+02  0.27352044815E+02  0.11416849852E+02  0.56406145186E+02  0.47000000000E+01 0.  1.
         11    1    4    4    0    0 -0.16922922084E+02  0.33607420306E+01  0.15939284322E+01  0.17326871809E+02  0.00000000000E+00 0. -1.
        -12    1    4    4    0    0  0.12233746727E+02 -0.45416173038E+02 -0.13188140870E+03  0.14001785348E+03  0.00000000000E+00 0.  1.
</event>
<event>
12    1  0.1593360E-001  0.1999889E+03  0.7818608E-02  0.1152507E+00
         21   -1    0    0  501  502  0.00000000000E+00  0.00000000000E+00  0.87853040764E+03  0.87853040764E+03  0.00000000000E+00 0.  1.
         21   -1    0    0  502  503 -0.00000000000E+00 -0.00000000000E+00 -0.16640086557E+03  0.16640086557E+03  0.00000000000E+00 0.  1.
         -6    2    1    2    0  503 -0.45569328074E+02  0.78503813200E+02 -0.97330378651E+02  0.21113219282E+03  0.16390298316E+03 0.  0.
        -24    2    3    3    0    0 -0.14670785845E+02 -0.22382266899E+02 -0.47236680910E+02  0.94238268155E+02  0.77028237241E+02 0.  0.
          6    2    1    2  501    0  0.45569328074E+02 -0.78503813200E+02  0.80945992072E+03  0.83379908039E+03  0.17820249957E+03 0.  0.
         24    2    5    5    0    0  0.73667736243E+02  0.35237200191E+01  0.52271277382E+03  0.53419258346E+03  0.81815159593E+02 0.  0.
          5    1    5    5  501    0 -0.28098408169E+02 -0.82027533219E+02  0.28674714690E+03  0.29960649693E+03  0.47000000000E+01 0. -1.
        -11    1    6    6    0    0  0.25888458879E+02  0.50776887769E+01  0.42078599022E+03  0.42161219715E+03  0.00000000000E+00 0.  1.
         12    1    6    6    0    0  0.47779277364E+02 -0.15539687578E+01  0.10192678361E+03  0.11258038631E+03  0.00000000000E+00 0. -1.
         -5    1    3    3    0  503 -0.30898542230E+02  0.10088608010E+03 -0.50093697741E+02  0.11689392466E+03  0.47000000000E+01 0.  1.
         11    1    4    4    0    0 -0.35653843761E+02 -0.36901058689E+02 -0.45639407540E+02  0.68671975564E+02  0.00000000000E+00 0. -1.
        -12    1    4    4    0    0  0.20983057917E+02  0.14518791790E+02 -0.15972733703E+01  0.25566292590E+02  0.00000000000E+00 0.  1.
</event>
<event>
12    1  0.1593360E-001  0.1908610E+03  0.7818608E-02  0.1159457E+00
         21   -1    0    0  501  502  0.00000000000E+00  0.00000000000E+00  0.13135735406E+03  0.13135735406E+03  0.00000000000E+00 0. -1.
         21   -1    0    0  502  503 -0.00000000000E+00 -0.00000000000E+00 -0.46185926937E+03  0.46185926937E+03  0.00000000000E+00 0.  1.
         -6    2    1    2    0  503  0.47833762539E+02 -0.42422114425E+02 -0.35630850924E+03  0.40061888175E+03  0.17161593758E+03 0.  0.
        -24    2    3    3    0    0  0.53755926797E+02 -0.58837858074E+00 -0.34204978487E+03  0.35577989531E+03  0.81799955552E+02 0.  0.
          6    2    1    2  501    0 -0.47833762539E+02  0.42422114425E+02  0.25806593927E+02  0.19259774168E+03  0.17983382657E+03 0.  0.
         24    2    5    5    0    0 -0.38444459123E+01  0.63133447110E+02 -0.40109888539E+02  0.11055450954E+03  0.81319644079E+02 0.  0.
          5    1    5    5  501    0 -0.43989316627E+02 -0.20711332685E+02  0.65916482466E+02  0.82043232138E+02  0.47000000000E+01 0. -1.
        -11    1    6    6    0    0 -0.32233997149E+02  0.17515949063E+02 -0.43273635343E+02  0.56731354290E+02  0.00000000000E+00 0.  1.
         12    1    6    6    0    0  0.28389551237E+02  0.45617498047E+02  0.31637468038E+01  0.53823155252E+02  0.00000000000E+00 0. -1.
         -5    1    3    3    0  503 -0.59221642580E+01 -0.41833735844E+02 -0.14258724373E+02  0.44838986439E+02  0.47000000000E+01 0.  1.
         13    1    4    4    0    0  0.75369162790E+02  0.53678577540E+00 -0.24427977657E+03  0.25564312641E+03  0.00000000000E+00 0. -1.
        -14    1    4    4    0    0 -0.21613235993E+02 -0.11251643561E+01 -0.97770008291E+02  0.10013676890E+03  0.00000000000E+00 0.  1.
</event>
<event>
12    1  0.1593360E-001  0.2666662E+03  0.7818608E-02  0.1103385E+00
         21   -1    0    0  503  502  0.00000000000E+00  0.00000000000E+00  0.42157597839E+03  0.42157597839E+03  0.00000000000E+00 0. -1.
         21   -1    0    0  501  503 -0.00000000000E+00 -0.00000000000E+00 -0.26138618863E+03  0.26138618863E+03  0.00000000000E+00 0.  1.
          6    2    1    2  501    0  0.89855648930E+02  0.18166519487E+03 -0.12401590232E+03  0.29409320518E+03  0.17330490076E+03 0.  0.
         24    2    3    3    0    0  0.13079312256E+03  0.14367084684E+03 -0.10515417859E+03  0.23495521525E+03  0.79989991611E+02 0.  0.
         -6    2    1    2    0  502 -0.89855648930E+02 -0.18166519487E+03  0.28420569208E+03  0.38886896184E+03  0.17137652524E+03 0.  0.
        -24    2    5    5    0    0  0.10586287535E+02 -0.98781642739E+02  0.85671990477E+02  0.15139057023E+03  0.75561447677E+02 0.  0.
          5    1    3    3  501    0 -0.40937473634E+02  0.37994348031E+02 -0.18861723734E+02  0.59137989922E+02  0.47000000000E+01 0. -1.
        -11    1    4    4    0    0  0.23846073080E+02  0.35567211036E+02 -0.64722738188E+02  0.77606021292E+02  0.00000000000E+00 0.  1.
         12    1    4    4    0    0  0.10694704948E+03  0.10810363580E+03 -0.40431440403E+02  0.15734919396E+03  0.00000000000E+00 0. -1.
         -5    1    5    5    0  502 -0.10044193646E+03 -0.82883552133E+02  0.19853370160E+03  0.23747839162E+03  0.47000000000E+01 0.  1.
         13    1    6    6    0    0  0.18353195469E+02 -0.77899828294E+02  0.97520410646E+02  0.12615646446E+03  0.00000000000E+00 0. -1.
        -14    1    6    6    0    0 -0.77669079344E+01 -0.20881814445E+02 -0.11848420169E+02  0.25234105767E+02  0.00000000000E+00 0.  1.
</event>
<event>
12    1  0.1593360E-001  0.1779526E+03  0.7818608E-02  0.1170108E+00
         21   -1    0    0  503  502  0.00000000000E+00  0.00000000000E+00  0.45677155312E+03  0.45677155312E+03  0.00000000000E+00 0. -1.
         21   -1    0    0  501  503 -0.00000000000E+00 -0.00000000000E+00 -0.72209679542E+02  0.72209679542E+02  0.00000000000E+00 0. -1.
          6    2    1    2  501    0 -0.35906093826E+02 -0.25186758201E+02  0.25004804764E+03  0.30690574878E+03  0.17246301675E+03 0.  0.
         24    2    3    3    0    0 -0.23357826637E+02 -0.67536349336E+02  0.81821303484E+02  0.13291358135E+03  0.76580335966E+02 0.  0.
         -6    2    1    2    0  502  0.35906093826E+02  0.25186758201E+02  0.13451382594E+03  0.22207548388E+03  0.17117222558E+03 0.  0.
        -24    2    5    5    0    0  0.30675600213E+02  0.25250361257E+02  0.25953299979E+01  0.89969686580E+02  0.80679833748E+02 0.  0.
          5    1    3    3  501    0 -0.12548267189E+02  0.42349591136E+02  0.16822674415E+03  0.17399216743E+03  0.47000000000E+01 0. -1.
        -13    1    4    4    0    0 -0.36116607192E+02 -0.31227258760E+02  0.63091568814E+01  0.48159697520E+02  0.00000000000E+00 0.  1.
         14    1    4    4    0    0  0.12758780555E+02 -0.36309090576E+02  0.75512146603E+02  0.84753883830E+02  0.00000000000E+00 0. -1.
         -5    1    5    5    0  502  0.52304936134E+01 -0.63603056265E-01  0.13191849594E+03  0.13210579730E+03  0.47000000000E+01 0.  1.
         11    1    6    6    0    0  0.22497505896E+02  0.51242355659E+02 -0.14488772372E+02  0.57808661201E+02  0.00000000000E+00 0. -1.
        -12    1    6    6    0    0  0.81780943166E+01 -0.25991994402E+02  0.17084102370E+02  0.32161025379E+02  0.00000000000E+00 0.  1.
</event>
<event>
12    1  0.1593360E-001  0.1935713E+03  0.7818608E-02  0.1155579E+00
         21   -1    0    0  501  502  0.00000000000E+00  0.00000000000E+00  0.27388757586E+03  0.27388757586E+03  0.00000000000E+00 0.  1.
         21   -1    0    0  502  503 -0.00000000000E+00 -0.00000000000E+00 -0.22194790042E+03  0.22194790042E+03  0.00000000000E+00 0.  1.
         -6    2    1    2    0  503 -0.58416929473E+02  0.63293356552E+02 -0.12849604988E+03  0.23120954796E+03  0.17183722996E+03 0.  0.
        -24    2    3    3    0    0 -0.41302714991E+02  0.75109258120E+02 -0.15694082001E+03  0.19566089376E+03  0.79406860160E+02 0.  0.
          6    2    1    2  501    0  0.58416929473E+02 -0.63293356552E+02  0.18043572532E+03  0.26462592831E+03  0.17335294728E+03 0.  0.
         24    2    5    5    0    0  0.31742952538E+02 -0.10239109355E+03  0.91163619539E+02  0.16347389939E+03  0.83194706450E+02 0.  0.
          5    1    5    5  501    0  0.26673976936E+02  0.39097737000E+02  0.89272105779E+02  0.10115202892E+03  0.47000000000E+01 0. -1.
        -11    1    6    6    0    0  0.44896186359E+02 -0.66821239070E+02  0.95950901485E+02  0.12524903607E+03  0.00000000000E+00 0.  1.
         12    1    6    6    0    0 -0.13153233821E+02 -0.35569854482E+02 -0.47872819461E+01  0.38224863325E+02  0.00000000000E+00 0. -1.
         -5    1    3    3    0  503 -0.17114214482E+02 -0.11815901568E+02  0.28444770136E+02  0.35548654198E+02  0.47000000000E+01 0.  1.
         13    1    4    4    0    0  0.69681780114E+00 -0.94556918189E+00  0.86140436196E+01  0.86937565877E+01  0.00000000000E+00 0. -1.
        -14    1    4    4    0    0 -0.41999532792E+02  0.76054827302E+02 -0.16555486363E+03  0.18696713718E+03  0.00000000000E+00 0.  1.
</event>
<event>
12    1  0.1593360E-001  0.1871668E+03  0.7818608E-02  0.1162083E+00
         21   -1    0    0  501  502  0.00000000000E+00  0.00000000000E+00  0.34199180857E+03  0.34199180857E+03  0.00000000000E+00 0.  1.
         21   -1    0    0  502  503 -0.00000000000E+00 -0.00000000000E+00 -0.21312586276E+03  0.21312586276E+03  0.00000000000E+00 0. -1.
         -6    2    1    2    0  503 -0.73993784073E+02  0.11209226117E+02 -0.13741079911E+03  0.23219202837E+03  0.17155373356E+03 0.  0.
        -24    2    3    3    0    0 -0.51044159221E+02 -0.27165508470E+02 -0.15557731051E+03  0.18370060983E+03  0.78728288858E+02 0.  0.
          6    2    1    2  501    0  0.73993784073E+02 -0.11209226117E+02  0.26627674492E+03  0.32292564296E+03  0.16666415080E+03 0.  0.
         24    2    5    5    0    0 -0.24341753965E+02 -0.10510011841E+02  0.11055309117E+03  0.13869124530E+03  0.79437360362E+02 0.  0.
          5    1    5    5  501    0  0.98335538038E+02 -0.69921427675E+00  0.15572365376E+03  0.18423439766E+03  0.47000000000E+01 0. -1.
        -13    1    6    6    0    0 -0.27071606790E+02 -0.41368963942E+02  0.85851300409E+02  0.99069212441E+02  0.00000000000E+00 0.  1.
         14    1    6    6    0    0  0.27298528244E+01  0.30858952101E+02  0.24701790758E+02  0.39622032859E+02  0.00000000000E+00 0. -1.
         -5    1    3    3    0  503 -0.22949624852E+02  0.38374734587E+02  0.18166511402E+02  0.48491418540E+02  0.47000000000E+01 0.  1.
         13    1    4    4    0    0 -0.10255777556E+02  0.22496297976E+02 -0.83737171972E+02  0.87310814713E+02  0.00000000000E+00 0. -1.
        -14    1    4    4    0    0 -0.40788381665E+02 -0.49661806445E+02 -0.71840138539E+02  0.96389795122E+02  0.00000000000E+00 0.  1.
</event>
<event>
12    1  0.1593360E-001  0.1738271E+03  0.7818608E-02  0.1174151E+00
         21   -1    0    0  501  502  0.00000000000E+00  0.00000000000E+00  0.12046253676E+03  0.12046253676E+03  0.00000000000E+00 0. -1.
         21   -1    0    0  502  503 -0.00000000000E+00 -0.00000000000E+00 -0.19095974384E+04  0.19095974384E+04  0.00000000000E+00 0. -1.
         -6    2    1    2    0  503 -0.64615028948E+01  0.12638849428E+02 -0.18412831659E+04  0.18494700780E+04  0.17324659019E+03 0.  0.
        -24    2    3    3    0    0 -0.56554822734E+02 -0.33011841677E+02 -0.95479412072E+03  0.96038164402E+03  0.80080331794E+02 0.  0.
          6    2    1    2  501    0  0.64615028948E+01 -0.12638849428E+02  0.52148264304E+02  0.18058989708E+03  0.17231302308E+03 0.  0.
         24    2    5    5    0    0  0.45199349243E+02 -0.47483055899E+02 -0.38606637468E+01  0.10394898447E+03  0.80578315188E+02 0.  0.
          5    1    5    5  501    0 -0.38737846348E+02  0.34844206472E+02  0.56008928051E+02  0.76640912610E+02  0.47000000000E+01 0. -1.
        -11    1    6    6    0    0  0.29152589501E+02  0.16306457780E+02  0.13326900224E+02  0.35963597005E+02  0.00000000000E+00 0.  1.
         12    1    6    6    0    0  0.16046759742E+02 -0.63789513680E+02 -0.17187563971E+02  0.67985387467E+02  0.00000000000E+00 0. -1.
         -5    1    3    3    0  503  0.50093319839E+02  0.45650691105E+02 -0.88648904518E+03  0.88908843402E+03  0.47000000000E+01 0.  1.
         13    1    4    4    0    0 -0.88807751427E+01 -0.17691911412E+02 -0.72160821794E+03  0.72187969365E+03  0.00000000000E+00 0. -1.
        -14    1    4    4    0    0 -0.47674047591E+02 -0.15319930265E+02 -0.23318590278E+03  0.23850195037E+03  0.00000000000E+00 0.  1.
</event>
<event>
12    1  0.1593360E-001  0.2012135E+03  0.7818608E-02  0.1151012E+00
         21   -1    0    0  503  502  0.00000000000E+00  0.00000000000E+00  0.18644144111E+03  0.18644144111E+03  0.00000000000E+00 0. -1.
         21   -1    0    0  501  503 -0.00000000000E+00 -0.00000000000E+00 -0.22931437364E+03  0.22931437364E+03  0.00000000000E+00 0. -1.
          6    2    1    2  501    0 -0.69747796173E+02  0.42857540946E+02 -0.87429290969E+02  0.20966808389E+03  0.17209096605E+03 0.  0.
         24    2    3    3    0    0 -0.72883565435E+01  0.79226973683E+00 -0.88015268737E+02  0.13421543642E+03  0.10106111028E+03 0.  0.
         -6    2    1    2    0  502  0.69747796173E+02 -0.42857540946E+02  0.44556358434E+02  0.20608773086E+03  0.18380794282E+03 0.  0.
        -24    2    5    5    0    0 -0.21322618545E+01 -0.40360588864E+02 -0.37239098518E+02  0.97066795757E+02  0.80010553716E+02 0.  0.
          5    1    3    3  501    0 -0.62459439630E+02  0.42065271209E+02  0.58597776829E+00  0.75452647473E+02  0.47000000000E+01 0. -1.
        -11    1    4    4    0    0  0.66096188037E+01  0.10519002668E+02 -0.10759468246E+03  0.10830952022E+03  0.00000000000E+00 0.  1.
         12    1    4    4    0    0 -0.13897975347E+02 -0.97267329308E+01  0.19579413722E+02  0.25905916196E+02  0.00000000000E+00 0. -1.
         -5    1    5    5    0  502  0.71880058028E+02 -0.24969520822E+01  0.81795456952E+02  0.10902093510E+03  0.47000000000E+01 0.  1.
         13    1    6    6    0    0  0.14762539857E+01 -0.55187312722E+02  0.17116978791E+01  0.55233583271E+02  0.00000000000E+00 0. -1.
        -14    1    6    6    0    0 -0.36085158402E+01  0.14826723858E+02 -0.38950796397E+02  0.41833212486E+02  0.00000000000E+00 0.  1.
</event>
<event>
12    1  0.1593360E-001  0.2280210E+03  0.7818608E-02  0.1128558E+00
         21   -1    0    0  503  502  0.00000000000E+00  0.00000000000E+00  0.68871156486E+03  0.68871156486E+03  0.00000000000E+00 0.  1.
         21   -1    0    0  501  503 -0.00000000000E+00 -0.00000000000E+00 -0.24298963805E+03  0.24298963805E+03  0.00000000000E+00 0.  1.
          6    2    1    2  501    0  0.14169046157E+03 -0.27561985462E+02 -0.16457124877E+03  0.28120677666E+03  0.17651545364E+03 0.  0.
         24    2    3    3    0    0  0.58183819623E+02 -0.74832789360E+02 -0.66187922368E+02  0.14369584231E+03  0.85336690822E+02 0.  0.
         -6    2    1    2    0  502 -0.14169046157E+03  0.27561985462E+02  0.61029317559E+03  0.65049442626E+03  0.17276975568E+03 0.  0.
        -24    2    5    5    0    0 -0.77392938056E+02 -0.15265311148E+02  0.18861919753E+03  0.22177612407E+03  0.85934573609E+02 0.  0.
          5    1    3    3  501    0  0.83506641947E+02  0.47270803898E+02 -0.98383326406E+02  0.13751093435E+03  0.47000000000E+01 0. -1.
        -11    1    4    4    0    0  0.23219431026E+02  0.44940797193E+01 -0.50270643489E+02  0.55556064714E+02  0.00000000000E+00 0.  1.
         12    1    4    4    0    0  0.34964388597E+02 -0.79326869079E+02 -0.15917278880E+02  0.88139777597E+02  0.00000000000E+00 0. -1.
         -5    1    5    5    0  502 -0.64297523514E+02  0.42827296610E+02  0.42167397805E+03  0.42871830219E+03  0.47000000000E+01 0.  1.
         11    1    6    6    0    0  0.42779279727E+01  0.24972939792E+02  0.35089995582E+02  0.43281129601E+02  0.00000000000E+00 0. -1.
        -12    1    6    6    0    0 -0.81670866029E+02 -0.40238250940E+02  0.15352920195E+03  0.17849499446E+03  0.00000000000E+00 0.  1.
</event>
<event>
12    1  0.1593360E-001  0.2097361E+03  0.7818608E-02  0.1142180E+00
         21   -1    0    0  503  502  0.00000000000E+00  0.00000000000E+00  0.20587797852E+03  0.20587797852E+03  0.00000000000E+00 0.  1.
         21   -1    0    0  501  503 -0.00000000000E+00 -0.00000000000E+00 -0.22897825239E+03  0.22897825239E+03  0.00000000000E+00 0.  1.
          6    2    1    2  501    0 -0.75048794038E+02  0.93689544749E+02 -0.71496806480E+02  0.22158749594E+03  0.17198596669E+03 0.  0.
         24    2    3    3    0    0  0.61383512196E+01  0.97012981716E+02 -0.63895912826E+02  0.13984239595E+03  0.77614496400E+02 0.  0.
         -6    2    1    2    0  502  0.75048794038E+02 -0.93689544749E+02  0.48396532610E+02  0.21326873498E+03  0.16950302849E+03 0.  0.
        -24    2    5    5    0    0  0.83149676893E+02 -0.12559268654E+03  0.28819890847E+02  0.17468415694E+03  0.83645543199E+02 0.  0.
          5    1    3    3  501    0 -0.81187145258E+02 -0.33234369664E+01 -0.76008936541E+01  0.81745099992E+02  0.47000000000E+01 0. -1.
        -11    1    4    4    0    0  0.28168628466E+02  0.12270675415E+02  0.11810285848E+01  0.30747941936E+02  0.00000000000E+00 0.  1.
         12    1    4    4    0    0 -0.22030277246E+02  0.84742306300E+02 -0.65076941411E+02  0.10909445401E+03  0.00000000000E+00 0. -1.
         -5    1    5    5    0  502 -0.81008828548E+01  0.31903141796E+02  0.19576641762E+02  0.38584578035E+02  0.47000000000E+01 0.  1.
         13    1    6    6    0    0  0.75301659765E+02 -0.57360070482E+02  0.43933649822E+02  0.10435843634E+03  0.00000000000E+00 0. -1.
        -14    1    6    6    0    0  0.78480171279E+01 -0.68232616062E+02 -0.15113758974E+02  0.70325720600E+02  0.00000000000E+00 0.  1.
</event>
<event>
12    1  0.1593360E-001  0.2273237E+03  0.7818608E-02  0.1128578E+00
         21   -1    0    0  501  502  0.00000000000E+00  0.00000000000E+00  0.18598145609E+03  0.18598145609E+03  0.00000000000E+00 0. -1.
         21   -1    0    0  502  503 -0.00000000000E+00 -0.00000000000E+00 -0.28679541104E+03  0.28679541104E+03  0.00000000000E+00 0. -1.
         -6    2    1    2    0  503 -0.21848347260E+02 -0.14612372726E+03 -0.92800576413E+02  0.24553621244E+03  0.17276165862E+03 0.  0.
        -24    2    3    3    0    0 -0.66747352279E+02 -0.14489341253E+03 -0.52378944117E+02  0.18492736256E+03  0.77493648813E+02 0.  0.
          6    2    1    2  501    0  0.21848347260E+02  0.14612372726E+03 -0.80133785439E+01  0.22724065469E+03  0.17246624876E+03 0.  0.
         24    2    5    5    0    0 -0.48348433112E+02  0.45625484315E+02  0.37899745214E+01  0.10399742383E+03  0.79886447242E+02 0.  0.
          5    1    5    5  501    0  0.70196780372E+02  0.10049824295E+03 -0.11803353065E+02  0.12324323086E+03  0.47000000000E+01 0. -1.
        -11    1    6    6    0    0  0.27486789581E+01  0.36284173443E+02 -0.25435111802E+02  0.44396411914E+02  0.00000000000E+00 0.  1.
         12    1    6    6    0    0 -0.51097112070E+02  0.93413108718E+01  0.29225086324E+02  0.59601011915E+02  0.00000000000E+00 0. -1.
         -5    1    3    3    0  503  0.44899005019E+02 -0.12303147288E+01 -0.40421632295E+02  0.60608849878E+02  0.47000000000E+01 0.  1.
         13    1    4    4    0    0 -0.27167068458E+01 -0.35914112715E+02 -0.45926726871E+02  0.58364957203E+02  0.00000000000E+00 0. -1.
        -14    1    4    4    0    0 -0.64030645434E+02 -0.10897929982E+03 -0.64522172464E+01  0.12656240536E+03  0.00000000000E+00 0.  1.
</event>
<event>
12    1  0.1593360E-001  0.2186591E+03  0.7818608E-02  0.1134891E+00
         21   -1    0    0  503  502  0.00000000000E+00  0.00000000000E+00  0.79824186077E+03  0.79824186077E+03  0.00000000000E+00 0. -1.
         21   -1    0    0  501  503 -0.00000000000E+00 -0.00000000000E+00 -0.11308589496E+03  0.11308589496E+03  0.00000000000E+00 0. -1.
          6    2    1    2  501    0  0.43777824254E+01 -0.13356658542E+03  0.30066713524E+02  0.22071653433E+03  0.17306814711E+03 0.  0.
         24    2    3    3    0    0  0.10950950142E+02 -0.50417074313E+02  0.80028093789E+02  0.12337549854E+03  0.78455166516E+02 0.  0.
         -6    2    1    2    0  502 -0.43777824254E+01  0.13356658542E+03  0.65508925229E+03  0.69061122140E+03  0.17303968601E+03 0.  0.
        -24    2    5    5    0    0 -0.56969271169E+02  0.33440020594E+02  0.28157395104E+03  0.30032035045E+03  0.80899259320E+02 0.  0.
          5    1    3    3  501    0 -0.65731677163E+01 -0.83149511108E+02 -0.49961380265E+02  0.97341035793E+02  0.47000000000E+01 0. -1.
        -13    1    4    4    0    0  0.74031932901E-02  0.18888859003E+02  0.29045699325E+01  0.19110875850E+02  0.00000000000E+00 0.  1.
         14    1    4    4    0    0  0.10943546948E+02 -0.69305933316E+02  0.77123523856E+02  0.10426462269E+03  0.00000000000E+00 0. -1.
         -5    1    5    5    0  502  0.52591488744E+02  0.10012656483E+03  0.37351530126E+03  0.39029087095E+03  0.47000000000E+01 0.  1.
         13    1    6    6    0    0 -0.67781582571E+01 -0.19017440049E+01  0.18967243221E+03  0.18980303370E+03  0.00000000000E+00 0. -1.
        -14    1    6    6    0    0 -0.50191112912E+02  0.35341764598E+02  0.91901518822E+02  0.11051731675E+03  0.00000000000E+00 0.  1.
</event>
<event>
12    1  0.1593360E-001  0.3574078E+03  0.7818608E-02  0.1059627E+00
         21   -1    0    0  501  502  0.00000000000E+00  0.00000000000E+00  0.10636597507E+04  0.10636597507E+04  0.00000000000E+00 0. -1.
         21   -1    0    0  502  503 -0.00000000000E+00 -0.00000000000E+00 -0.12434035536E+03  0.12434035536E+03  0.00000000000E+00 0. -1.
         -6    2    1    2    0  503  0.25950140320E+03  0.17522992249E+03  0.35944489515E+03  0.50689348200E+03  0.17231908032E+03 0.  0.
        -24    2    3    3    0    0  0.23116617789E+03  0.16193617658E+03  0.37118781330E+03  0.47313559699E+03  0.80098522515E+02 0.  0.
          6    2    1    2  501    0 -0.25950140320E+03 -0.17522992249E+03  0.57987450024E+03  0.68110662410E+03  0.17206188818E+03 0.  0.
         24    2    5    5    0    0 -0.48280952729E+02 -0.45055580029E+02  0.11487444301E+03  0.15403302264E+03  0.78542846385E+02 0.  0.
          5    1    5    5  501    0 -0.21122045047E+03 -0.13017434246E+03  0.46500005723E+03  0.52707360146E+03  0.47000000000E+01 0. -1.
        -13    1    6    6    0    0 -0.58124722923E+02 -0.25629332127E+02  0.37753983174E+02  0.73896612410E+02  0.00000000000E+00 0.  1.
         14    1    6    6    0    0  0.98437701941E+01 -0.19426247902E+02  0.77120459833E+02  0.80136410227E+02  0.00000000000E+00 0. -1.
         -5    1    3    3    0  503  0.28335225317E+02  0.13293745912E+02 -0.11742918147E+02  0.33757885015E+02  0.47000000000E+01 0.  1.
         11    1    4    4    0    0  0.13961116692E+03  0.53975592609E+02  0.16210847523E+03  0.22064405785E+03  0.00000000000E+00 0. -1.
        -12    1    4    4    0    0  0.91555010971E+02  0.10796058397E+03  0.20907933807E+03  0.25249153913E+03  0.00000000000E+00 0.  1.
</event>
<event>
12    1  0.1593360E-001  0.1740551E+03  0.7818608E-02  0.1173907E+00
         21   -1    0    0  501  502  0.00000000000E+00  0.00000000000E+00  0.11775642790E+03  0.11775642790E+03  0.00000000000E+00 0.  1.
         21   -1    0    0  502  503 -0.00000000000E+00 -0.00000000000E+00 -0.41913919755E+03  0.41913919755E+03  0.00000000000E+00 0.  1.
         -6    2    1    2    0  503  0.14560685632E+02  0.10298343134E+02 -0.31841933979E+03  0.36288570753E+03  0.17313893652E+03 0.  0.
        -24    2    3    3    0    0  0.54119980362E+02  0.52258027880E+02 -0.15784419792E+03  0.19220466251E+03  0.79799547112E+02 0.  0.
          6    2    1    2  501    0 -0.14560685632E+02 -0.10298343134E+02  0.17036570144E+02  0.17400991793E+03  0.17225312008E+03 0.  0.
         24    2    5    5    0    0 -0.47720766046E+02 -0.12184453901E+02 -0.44658579146E+02  0.10378506625E+03  0.79694534674E+02 0.  0.
          5    1    5    5  501    0  0.33160080414E+02  0.18861107669E+01  0.61695149290E+02  0.70224851675E+02  0.47000000000E+01 0. -1.
        -11    1    6    6    0    0 -0.15069773507E+02 -0.11668628699E+02  0.22271670290E+02  0.29313516793E+02  0.00000000000E+00 0.  1.
         12    1    6    6    0    0 -0.32650992539E+02 -0.51582520171E+00 -0.66930249436E+02  0.74471549460E+02  0.00000000000E+00 0. -1.
         -5    1    3    3    0  503 -0.39559294730E+02 -0.41959684746E+02 -0.16057514187E+03  0.17068104502E+03  0.47000000000E+01 0.  1.
         13    1    4    4    0    0 -0.11024476248E+02  0.34360125029E+02 -0.27418352961E+02  0.45320231107E+02  0.00000000000E+00 0. -1.
        -14    1    4    4    0    0  0.65144456610E+02  0.17897902851E+02 -0.13042584496E+03  0.14688443140E+03  0.00000000000E+00 0.  1.
</event>
<event>
12    1  0.1593360E-001  0.1778928E+03  0.7818608E-02  0.1169932E+00
         21   -1    0    0  503  502  0.00000000000E+00  0.00000000000E+00  0.21592314496E+03  0.21592314496E+03  0.00000000000E+00 0. -1.
         21   -1    0    0  501  503 -0.00000000000E+00 -0.00000000000E+00 -0.14912195887E+03  0.14912195887E+03  0.00000000000E+00 0. -1.
          6    2    1    2  501    0  0.18306108469E+02 -0.45586310763E+02  0.83742909829E+01  0.17808982449E+03  0.17097552895E+03 0.  0.
         24    2    3    3    0    0  0.50635430202E+02  0.17830810539E+02 -0.24846588489E+02  0.99396539191E+02  0.79877621693E+02 0.  0.
         -6    2    1    2    0  502 -0.18306108469E+02  0.45586310763E+02  0.58426895106E+02  0.18695527934E+03  0.17066150434E+03 0.  0.
        -24    2    5    5    0    0  0.96890090310E+01 -0.54863488151E+01  0.92028546706E+02  0.11955124273E+03  0.75493505089E+02 0.  0.
          5    1    3    3  501    0 -0.32329321733E+02 -0.63417121301E+02  0.33220879472E+02  0.78693285296E+02  0.47000000000E+01 0. -1.
        -13    1    4    4    0    0  0.10763481938E+02  0.41278281741E+02  0.70125459626E+01  0.43231063922E+02  0.00000000000E+00 0.  1.
         14    1    4    4    0    0  0.39871948264E+02 -0.23447471203E+02 -0.31859134452E+02  0.56165475269E+02  0.00000000000E+00 0. -1.
         -5    1    5    5    0  502 -0.27995117500E+02  0.51072659578E+02 -0.33601651600E+02  0.67404036603E+02  0.47000000000E+01 0.  1.
         13    1    6    6    0    0  0.11315185014E+01  0.33375918557E+02  0.59176910306E+02  0.67949532648E+02  0.00000000000E+00 0. -1.
        -14    1    6    6    0    0  0.85574905296E+01 -0.38862267372E+02  0.32851636400E+02  0.51601710084E+02  0.00000000000E+00 0.  1.
</event>
<event>
12    1  0.1593360E-001  0.1806490E+03  0.7818608E-02  0.1167832E+00
         21   -1    0    0  501  502  0.00000000000E+00  0.00000000000E+00  0.10770394229E+03  0.10770394229E+03  0.00000000000E+00 0.  1.
         21   -1    0    0  502  503 -0.00000000000E+00 -0.00000000000E+00 -0.84473601766E+03  0.84473601766E+03  0.00000000000E+00 0.  1.
         -6    2    1    2    0  503 -0.14779704829E+01 -0.54403331746E+02 -0.75048262150E+03  0.77129088078E+03  0.16942122270E+03 0.  0.
        -24    2    3    3    0    0  0.12152434414E+02  0.34501252447E+02 -0.43925679184E+03  0.44729486217E+03  0.76079868976E+02 0.  0.
          6    2    1    2  501    0  0.14779704829E+01  0.54403331746E+02  0.13450546128E+02  0.18114907917E+03  0.17225610233E+03 0.  0.
         24    2    5    5    0    0 -0.15570607850E+01  0.63530350923E+02  0.69856953430E+02  0.12373578211E+03  0.79950108857E+02 0.  0.
          5    1    5    5  501    0  0.30350312680E+01 -0.91270191772E+01 -0.56406407301E+02  0.57413297053E+02  0.47000000000E+01 0. -1.
        -11    1    6    6    0    0  0.31817043945E+02  0.60504636491E+02  0.42679749760E+02  0.80589679004E+02  0.00000000000E+00 0.  1.
         12    1    6    6    0    0 -0.33374104730E+02  0.30257144318E+01  0.27177203670E+02  0.43146103111E+02  0.00000000000E+00 0. -1.
         -5    1    3    3    0  503 -0.13630404897E+02 -0.88904584193E+02 -0.31122582966E+03  0.32399601861E+03  0.47000000000E+01 0.  1.
         11    1    4    4    0    0  0.36279618009E+02 -0.64811773753E+01 -0.19431524959E+03  0.19777925211E+03  0.00000000000E+00 0. -1.
        -12    1    4    4    0    0 -0.24127183595E+02  0.40982429822E+02 -0.24494154225E+03  0.24951561006E+03  0.00000000000E+00 0.  1.
</event>
<event>
12    1  0.1593360E-001  0.1773274E+03  0.7818608E-02  0.1170497E+00
         21   -1    0    0  501  502  0.00000000000E+00  0.00000000000E+00  0.13495704311E+02  0.13495704311E+02  0.00000000000E+00 0. -1.
         21   -1    0    0  502  503 -0.00000000000E+00 -0.00000000000E+00 -0.23972650563E+04  0.23972650563E+04  0.00000000000E+00 0. -1.
         -6    2    1    2    0  503  0.41046711770E+01  0.43480045710E+02 -0.13991787823E+04  0.14103290592E+04  0.17152092490E+03 0.  0.
        -24    2    3    3    0    0 -0.25348861518E+01  0.20372699125E+02 -0.13694429094E+04  0.13718018568E+04  0.77749467179E+02 0.  0.
          6    2    1    2  501    0 -0.41046711770E+01 -0.43480045710E+02 -0.98459056967E+03  0.10004317014E+04  0.17186516974E+03 0.  0.
         24    2    5    5    0    0 -0.15308491218E+02 -0.83002214930E+02 -0.47029951640E+03  0.48448121451E+03  0.80104272664E+02 0.  0.
          5    1    5    5  501    0  0.11203820041E+02  0.39522169220E+02 -0.51429105327E+03  0.51595048688E+03  0.47000000000E+01 0. -1.
        -11    1    6    6    0    0 -0.45443108807E+02 -0.57407140253E+02 -0.35840166757E+03  0.36580378786E+03  0.00000000000E+00 0.  1.
         12    1    6    6    0    0  0.30134617589E+02 -0.25595074677E+02 -0.11189784883E+03  0.11867742665E+03  0.00000000000E+00 0. -1.
         -5    1    3    3    0  503  0.66395573288E+01  0.23107346585E+02 -0.29735872836E+02  0.38527202351E+02  0.47000000000E+01 0.  1.
         11    1    4    4    0    0 -0.38094439731E+02  0.65558546295E+00 -0.52504069832E+03  0.52642126764E+03  0.00000000000E+00 0. -1.
        -12    1    4    4    0    0  0.35559553579E+02  0.19717113662E+02 -0.84440221112E+03  0.84538058919E+03  0.00000000000E+00 0.  1.
</event>
<event>
12    1  0.1593360E-001  0.2554796E+03  0.7818608E-02  0.1110398E+00
         21   -1    0    0  501  502  0.00000000000E+00  0.00000000000E+00  0.67225866828E+03  0.67225866828E+03  0.00000000000E+00 0. -1.
         21   -1    0    0  502  503 -0.00000000000E+00 -0.00000000000E+00 -0.97478350310E+02  0.97478350310E+02  0.00000000000E+00 0. -1.
         -6    2    1    2    0  503 -0.17917102319E+03  0.47819700255E+02  0.23577061581E+03  0.34524034058E+03  0.17092141526E+03 0.  0.
        -24    2    3    3    0    0 -0.21219668644E+02  0.14990086887E+02  0.11961897509E+03  0.14639440131E+03  0.80297225933E+02 0.  0.
          6    2    1    2  501    0  0.17917102319E+03 -0.47819700255E+02  0.33900970215E+03  0.42449667801E+03  0.17572954277E+03 0.  0.
         24    2    5    5    0    0  0.16646895238E+03 -0.55369205267E+02  0.17598695275E+03  0.26073818372E+03  0.78964117889E+02 0.  0.
          5    1    5    5  501    0  0.12702070814E+02  0.75495050124E+01  0.16302274940E+03  0.16375849429E+03  0.47000000000E+01 0. -1.
        -13    1    6    6    0    0  0.10660956141E+03  0.35591244165E+01  0.11554471327E+03  0.15725408330E+03  0.00000000000E+00 0.  1.
         14    1    6    6    0    0  0.59859390976E+02 -0.58928329684E+02  0.60442239489E+02  0.10348410043E+03  0.00000000000E+00 0. -1.
         -5    1    3    3    0  503 -0.15795135455E+03  0.32829613368E+02  0.11615164072E+03  0.19884593926E+03  0.47000000000E+01 0.  1.
         11    1    4    4    0    0 -0.48719569431E+02  0.83408721680E+01  0.45982193922E+02  0.67509471572E+02  0.00000000000E+00 0. -1.
        -12    1    4    4    0    0  0.27499900788E+02  0.66492147191E+01  0.73636781168E+02  0.78884929742E+02  0.00000000000E+00 0.  1.
</event>
<event>
12    1  0.1593360E-001  0.2533221E+03  0.7818608E-02  0.1111388E+00
         21   -1    0    0  503  502  0.00000000000E+00  0.00000000000E+00  0.28911003097E+03  0.28911003097E+03  0.00000000000E+00 0.  1.
         21   -1    0    0  501  503 -0.00000000000E+00 -0.00000000000E+00 -0.30211691096E+03  0.30211691096E+03  0.00000000000E+00 0. -1.
          6    2    1    2  501    0  0.92471908203E+02 -0.16280127463E+03 -0.15965684704E+03  0.29943677838E+03  0.17063635783E+03 0.  0.
         24    2    3    3    0    0 -0.21376353288E+02 -0.62388652268E+02 -0.60294414383E+02  0.11794544416E+03  0.76983238313E+02 0.  0.
         -6    2    1    2    0  502 -0.92471908203E+02  0.16280127463E+03  0.14664996704E+03  0.29179016355E+03  0.16905613826E+03 0.  0.
        -24    2    5    5    0    0 -0.12171282402E+03  0.13190718831E+03  0.78651729146E+02  0.21144511962E+03  0.79431896967E+02 0.  0.
          5    1    3    3  501    0  0.11384826149E+03 -0.10041262236E+03 -0.99362432652E+02  0.18149133422E+03  0.47000000000E+01 0. -1.
        -11    1    4    4    0    0  0.15371475642E+02 -0.11239836365E+02  0.11653910429E+02  0.22325541722E+02  0.00000000000E+00 0.  1.
         12    1    4    4    0    0 -0.36747828930E+02 -0.51148815903E+02 -0.71948324812E+02  0.95619902440E+02  0.00000000000E+00 0. -1.
         -5    1    5    5    0  502  0.29240915813E+02  0.30894086320E+02  0.67998237898E+02  0.80345043931E+02  0.47000000000E+01 0.  1.
         13    1    6    6    0    0 -0.44572573315E+02  0.45785865307E+01  0.42292985762E+01  0.45006274151E+02  0.00000000000E+00 0. -1.
        -14    1    6    6    0    0 -0.77140250701E+02  0.12732860178E+03  0.74422430570E+02  0.16643884547E+03  0.00000000000E+00 0.  1.
</event>
<event>
12    1  0.1593360E-001  0.2185170E+03  0.7818608E-02  0.1136136E+00
         21   -1    0    0  503  502  0.00000000000E+00  0.00000000000E+00  0.10573002838E+04  0.10573002838E+04  0.00000000000E+00 0.  1.
         21   -1    0    0  501  503 -0.00000000000E+00 -0.00000000000E+00 -0.55601202940E+02  0.55601202940E+02  0.00000000000E+00 0. -1.
          6    2    1    2  501    0 -0.53475829716E+02  0.12121026438E+03  0.24046452986E+03  0.32092440210E+03  0.16618570692E+03 0.  0.
         24    2    3    3    0    0 -0.57500195696E+01  0.11777327023E+03  0.23176794532E+03  0.27206453650E+03  0.79994535063E+02 0.  0.
         -6    2    1    2    0  502  0.53475829716E+02 -0.12121026438E+03  0.76123455097E+03  0.79197708462E+03  0.17377591435E+03 0.  0.
        -24    2    5    5    0    0  0.26285096324E+02 -0.67526700914E+02  0.19837391405E+03  0.22588924023E+03  0.80143480393E+02 0.  0.
          5    1    3    3  501    0 -0.47725810146E+02  0.34369941512E+01  0.86965845375E+01  0.48859865591E+02  0.47000000000E+01 0. -1.
        -13    1    4    4    0    0 -0.26545383021E+02  0.77392776509E+01  0.26831764878E+02  0.38529175760E+02  0.00000000000E+00 0.  1.
         14    1    4    4    0    0  0.20795363452E+02  0.11003399258E+03  0.20493618044E+03  0.23353536074E+03  0.00000000000E+00 0. -1.
         -5    1    5    5    0  502  0.27190733392E+02 -0.53683563464E+02  0.56286063692E+03  0.56608784439E+03  0.47000000000E+01 0.  1.
         13    1    6    6    0    0  0.31434080243E+02  0.31983463384E+01  0.31699714691E+02  0.44757152854E+02  0.00000000000E+00 0. -1.
        -14    1    6    6    0    0 -0.51489839190E+01 -0.70725047252E+02  0.16667419936E+03  0.18113208737E+03  0.00000000000E+00 0.  1.
</event>
<event>
12    1  0.1593360E-001  0.1897649E+03  0.7818608E-02  0.1160069E+00
         21   -1    0    0  501  502  0.00000000000E+00  0.00000000000E+00  0.98842998752E+02  0.98842998752E+02  0.00000000000E+00 0.  1.
         21   -1    0    0  502  503 -0.00000000000E+00 -0.00000000000E+00 -0.38543777960E+03  0.38543777960E+03  0.00000000000E+00 0.  1.
         -6    2    1    2    0  503  0.34764827444E+02 -0.55509901419E+02 -0.21592812900E+03  0.28746424304E+03  0.17810331763E+03 0.  0.
        -24    2    3    3    0    0 -0.41074470968E+02  0.51363295853E+01 -0.85916607853E+02  0.12512308945E+03  0.80997715778E+02 0.  0.
          6    2    1    2  501    0 -0.34764827444E+02  0.55509901419E+02 -0.70666651850E+02  0.19681653531E+03  0.17161885242E+03 0.  0.
         24    2    5    5    0    0 -0.76853023890E+02  0.24746180976E+02 -0.85355774764E+02  0.14245034078E+03  0.80546449644E+02 0.  0.
          5    1    5    5  501    0  0.42088196446E+02  0.30763720443E+02  0.14689122913E+02  0.54366194528E+02  0.47000000000E+01 0. -1.
        -13    1    6    6    0    0  0.12455356696E+01  0.34799413891E+02 -0.32344050228E+02  0.47525657822E+02  0.00000000000E+00 0.  1.
         14    1    6    6    0    0 -0.78098559560E+02 -0.10053232915E+02 -0.53011724536E+02  0.94924682963E+02  0.00000000000E+00 0. -1.
         -5    1    3    3    0  503  0.75839298412E+02 -0.60646231004E+02 -0.13001152114E+03  0.16234115359E+03  0.47000000000E+01 0.  1.
         13    1    4    4    0    0  0.41456449022E+01  0.34505729302E+02 -0.47764198453E+02  0.59069877096E+02  0.00000000000E+00 0. -1.
        -14    1    4    4    0    0 -0.45220115870E+02 -0.29369399716E+02 -0.38152409401E+02  0.66053212353E+02  0.00000000000E+00 0.  1.
</event>
<event>
12    1  0.1593360E-001  0.2568762E+03  0.7818608E-02  0.1109721E+00
         21   -1    0    0  501  502  0.00000000000E+00  0.00000000000E+00  0.62174871723E+03  0.62174871723E+03  0.00000000000E+00 0.  1.
         21   -1    0    0  502  503 -0.00000000000E+00 -0.00000000000E+00 -0.12653891726E+03  0.12653891726E+03  0.00000000000E+00 0.  1.
         -6    2    1    2    0  503 -0.18196541455E+03 -0.27712674901E+02  0.92530993670E+02  0.27303361788E+03  0.17918138090E+03 0.  0.
        -24    2    3    3    0    0 -0.48611498955E+02 -0.12822647006E+02 -0.20811701883E+02  0.97324664293E+02  0.80693650541E+02 0.  0.
          6    2    1    2  501    0  0.18196541455E+03  0.27712674901E+02  0.40267880630E+03  0.47525401661E+03  0.17273318968E+03 0.  0.
         24    2    5    5    0    0  0.10718165388E+03  0.30038215622E+02  0.36768504891E+03  0.39252148337E+03  0.80564374182E+02 0.  0.
          5    1    5    5  501    0  0.74783760673E+02 -0.23255407215E+01  0.34993757388E+02  0.82732533239E+02  0.47000000000E+01 0. -1.
        -13    1    6    6    0    0  0.82300532874E+02 -0.16088669747E+02  0.25012477909E+03  0.26380793794E+03  0.00000000000E+00 0.  1.
         14    1    6    6    0    0  0.24881121008E+02  0.46126885370E+02  0.11756026982E+03  0.12871354543E+03  0.00000000000E+00 0. -1.
         -5    1    3    3    0  503 -0.13335391560E+03 -0.14890027895E+02  0.11334269555E+03  0.17570895359E+03  0.47000000000E+01 0.  1.
         13    1    4    4    0    0 -0.51991926216E+00  0.29699180981E+01 -0.42247307542E+02  0.42354760347E+02  0.00000000000E+00 0. -1.
        -14    1    4    4    0    0 -0.48091579692E+02 -0.15792565104E+02  0.21435605659E+02  0.54969903946E+02  0.00000000000E+00 0.  1.
</event>
<event>
12    1  0.1593360E-001  0.1986279E+03  0.7818608E-02  0.1150951E+00
         21   -1    0    0  501  502  0.00000000000E+00  0.00000000000E+00  0.16081987522E+02  0.16081987522E+02  0.00000000000E+00 0. -1.
         21   -1    0    0  502  503 -0.00000000000E+00 -0.00000000000E+00 -0.28548640015E+04  0.28548640015E+04  0.00000000000E+00 0.  1.
         -6    2    1    2    0  503 -0.21676688581E+02  0.96597271886E+02 -0.19590018380E+04  0.19690223769E+04  0.17193024109E+03 0.  0.
        -24    2    3    3    0    0 -0.75474817677E+02  0.83521554523E+02 -0.11914189077E+04  0.11994310191E+04  0.80519922421E+02 0.  0.
          6    2    1    2  501    0  0.21676688581E+02 -0.96597271886E+02 -0.87978017600E+03  0.90192361212E+03  0.17219794494E+03 0.  0.
         24    2    5    5    0    0 -0.66449385517E+01  0.46404920503E+01 -0.57566842018E+03  0.58012048994E+03  0.71273862576E+02 0.  0.
          5    1    5    5  501    0  0.28321627132E+02 -0.10123776394E+03 -0.30411175583E+03  0.32180312218E+03  0.47000000000E+01 0. -1.
        -13    1    6    6    0    0 -0.19526947752E+02  0.24044879487E+01 -0.55689726244E+03  0.55724468967E+03  0.00000000000E+00 0.  1.
         14    1    6    6    0    0  0.12882009200E+02  0.22360041016E+01 -0.18771157739E+02  0.22875800275E+02  0.00000000000E+00 0. -1.
         -5    1    3    3    0  503  0.53798129096E+02  0.13075717363E+02 -0.76758293035E+03  0.76959135782E+03  0.47000000000E+01 0.  1.
         13    1    4    4    0    0 -0.50815247255E+02  0.97566876560E+02 -0.93905645620E+03  0.94547792819E+03  0.00000000000E+00 0. -1.
        -14    1    4    4    0    0 -0.24659570422E+02 -0.14045322037E+02 -0.25236245147E+03  0.25395309094E+03  0.00000000000E+00 0.  1.
</event>
<event>
12    1  0.1593360E-001  0.2297097E+03  0.7818608E-02  0.1127509E+00
         21   -1    0    0  501  502  0.00000000000E+00  0.00000000000E+00  0.33185109934E+03  0.33185109934E+03  0.00000000000E+00 0.  1.
         21   -1    0    0  502  503 -0.00000000000E+00 -0.00000000000E+00 -0.15914512912E+03  0.15914512912E+03  0.00000000000E+00 0.  1.
         -6    2    1    2    0  503 -0.79378969539E+02  0.12403771386E+03  0.11773593416E+03  0.25480088075E+03  0.17139242508E+03 0.  0.
        -24    2    3    3    0    0 -0.11973701358E+03  0.10376901551E+03  0.11040063003E+03  0.20880644045E+03  0.79415801072E+02 0.  0.
          6    2    1    2  501    0  0.79378969539E+02 -0.12403771386E+03  0.54970036063E+02  0.23619534771E+03  0.17629566686E+03 0.  0.
         24    2    5    5    0    0  0.70499443694E+02 -0.75208242046E+02  0.98238119134E+02  0.17018489166E+03  0.93197199874E+02 0.  0.
          5    1    5    5  501    0  0.88795258449E+01 -0.48829471810E+02 -0.43268083070E+02  0.66010456058E+02  0.47000000000E+01 0. -1.
        -13    1    6    6    0    0  0.50723231736E+02 -0.22032081751E+01  0.75906532257E+02  0.91320873864E+02  0.00000000000E+00 0.  1.
         14    1    6    6    0    0  0.19776211959E+02 -0.73005033871E+02  0.22331586876E+02  0.78864017793E+02  0.00000000000E+00 0. -1.
         -5    1    3    3    0  503  0.40358044044E+02  0.20268698345E+02  0.73353041256E+01  0.45994440297E+02  0.47000000000E+01 0.  1.
         13    1    4    4    0    0 -0.18299266300E+01 -0.11899519548E+02  0.83772434217E+01  0.14667153926E+02  0.00000000000E+00 0. -1.
        -14    1    4    4    0    0 -0.11790708695E+03  0.11566853506E+03  0.10202338661E+03  0.19413928652E+03  0.00000000000E+00 0.  1.
</event>
<event>
12    1  0.1593360E-001  0.1834566E+03  0.7818608E-02  0.1165354E+00
         21   -1    0    0  503  502  0.00000000000E+00  0.00000000000E+00  0.21096791512E+03  0.21096791512E+03  0.00000000000E+00 0. -1.
         21   -1    0    0  501  503 -0.00000000000E+00 -0.00000000000E+00 -0.36203920074E+03  0.36203920074E+03  0.00000000000E+00 0. -1.
          6    2    1    2  501    0 -0.39650409267E+02 -0.50362686716E+02 -0.29176178054E+03  0.34464655241E+03  0.17189460240E+03 0.  0.
         24    2    3    3    0    0  0.16922228222E+02  0.94004272032E+01 -0.60346269572E+02  0.98989633487E+02  0.76043049959E+02 0.  0.
         -6    2    1    2    0  502  0.39650409267E+02  0.50362686716E+02  0.14069049493E+03  0.22836056345E+03  0.16806598825E+03 0.  0.
        -24    2    5    5    0    0  0.36380161352E+02 -0.32651789300E+02  0.97560836670E+02  0.13463567257E+03  0.78860585791E+02 0.  0.
          5    1    3    3  501    0 -0.56572637490E+02 -0.59763113919E+02 -0.23141551097E+03  0.24565691892E+03  0.47000000000E+01 0. -1.
        -13    1    4    4    0    0 -0.17958021432E+02  0.27477518462E+02 -0.47338486130E+02  0.57605874905E+02  0.00000000000E+00 0.  1.
         14    1    4    4    0    0  0.34880249654E+02 -0.18077091258E+02 -0.13007783443E+02  0.41383758582E+02  0.00000000000E+00 0. -1.
         -5    1    5    5    0  502  0.32702479153E+01  0.83014476016E+02  0.43129658257E+02  0.93724890883E+02  0.47000000000E+01 0.  1.
         11    1    6    6    0    0 -0.20372459880E+02 -0.79698079436E+01  0.36675657251E+01  0.22181208231E+02  0.00000000000E+00 0. -1.
        -12    1    6    6    0    0  0.56752621232E+02 -0.24681981356E+02  0.93893270945E+02  0.11245446434E+03  0.00000000000E+00 0.  1.
</event>
<event>
12    1  0.1593360E-001  0.2049107E+03  0.7818608E-02  0.1145677E+00
         21   -1    0    0  501  502  0.00000000000E+00  0.00000000000E+00  0.16472295818E+03  0.16472295818E+03  0.00000000000E+00 0. -1.
         21   -1    0    0  502  503 -0.00000000000E+00 -0.00000000000E+00 -0.25629521563E+03  0.25629521563E+03  0.00000000000E+00 0. -1.
         -6    2    1    2    0  503  0.79706520911E+02  0.76070233911E+02 -0.61837986083E+02  0.21403818918E+03  0.17276747362E+03 0.  0.
        -24    2    3    3    0    0  0.82255561298E+02  0.97233103439E+02 -0.15781176542E+01  0.14994679821E+03  0.79128364499E+02 0.  0.
          6    2    1    2  501    0 -0.79706520911E+02 -0.76070233911E+02 -0.29734271360E+02  0.20697998463E+03  0.17267535198E+03 0.  0.
         24    2    5    5    0    0 -0.22060670639E+01  0.14840382157E+02  0.80970405002E+00  0.83585961703E+02  0.82224410601E+02 0.  0.
          5    1    5    5  501    0 -0.77500453847E+02 -0.90910616068E+02 -0.30543975410E+02  0.12339402293E+03  0.47000000000E+01 0. -1.
        -13    1    6    6    0    0  0.15215070137E+02 -0.28139458176E+01  0.36775002908E+02  0.39897587511E+02  0.00000000000E+00 0.  1.
         14    1    6    6    0    0 -0.17421137201E+02  0.17654327975E+02 -0.35965298858E+02  0.43688374192E+02  0.00000000000E+00 0. -1.
         -5    1    3    3    0  503 -0.25490403865E+01 -0.21162869528E+02 -0.60259868429E+02  0.64091390971E+02  0.47000000000E+01 0.  1.
         13    1    4    4    0    0  0.56890477371E+02  0.89783533270E+02 -0.30680649850E+02  0.11062961420E+03  0.00000000000E+00 0. -1.
        -14    1    4    4    0    0  0.25365083927E+02  0.74495701692E+01  0.29102532196E+02  0.39317184011E+02  0.00000000000E+00 0.  1.
</event>
<event>
12    1  0.1593360E-001  0.2072440E+03  0.7818608E-02  0.1144535E+00
         21   -1    0    0  501  502  0.00000000000E+00  0.00000000000E+00  0.26909974963E+03  0.26909974963E+03  0.00000000000E+00 0.  1.
         21   -1    0    0  502  503 -0.00000000000E+00 -0.00000000000E+00 -0.16688541290E+03  0.16688541290E+03  0.00000000000E+00 0. -1.
         -6    2    1    2    0  503  0.27967724187E+02 -0.10603514353E+03 -0.22740572868E+01  0.20725646067E+03  0.17585341593E+03 0.  0.
        -24    2    3    3    0    0  0.19232532764E+02 -0.39861048943E+02  0.66315871339E+02  0.11143379805E+03  0.77851801624E+02 0.  0.
          6    2    1    2  501    0 -0.27967724187E+02  0.10603514353E+03  0.10448839402E+03  0.22872870185E+03  0.17138654937E+03 0.  0.
         24    2    5    5    0    0  0.86172277141E+00  0.13674901437E+03  0.66305955826E+02  0.17168076183E+03  0.79854672429E+02 0.  0.
          5    1    5    5  501    0 -0.28829446959E+02 -0.30713870835E+02  0.38182438190E+02  0.57047940013E+02  0.47000000000E+01 0. -1.
        -11    1    6    6    0    0 -0.24436515550E+02  0.48743509186E+02  0.58202542418E+02  0.79753425782E+02  0.00000000000E+00 0.  1.
         12    1    6    6    0    0  0.25298238322E+02  0.88005505184E+02  0.81034134077E+01  0.91927336052E+02  0.00000000000E+00 0. -1.
         -5    1    3    3    0  503  0.87351914231E+01 -0.66174094592E+02 -0.68589928626E+02  0.95822662628E+02  0.47000000000E+01 0.  1.
         13    1    4    4    0    0  0.80365129525E+00  0.49833617745E+01 -0.15516618180E+02  0.16317021472E+02  0.00000000000E+00 0. -1.
        -14    1    4    4    0    0  0.18428881469E+02 -0.44844410718E+02  0.81832489519E+02  0.95116776574E+02  0.00000000000E+00 0.  1.
</event>
<event>
12    1  0.1593360E-001  0.1982941E+03  0.7818608E-02  0.1151418E+00
         21   -1    0    0  503  502  0.00000000000E+00  0.00000000000E+00  0.10189182532E+03  0.10189182532E+03  0.00000000000E+00 0. -1.
         21   -1    0    0  501  503 -0.00000000000E+00 -0.00000000000E+00 -0.51626785336E+03  0.51626785336E+03  0.00000000000E+00 0. -1.
          6    2    1    2  501    0 -0.99681080387E+02  0.33163736623E+01 -0.36416898187E+03  0.41465598951E+03  0.17138619011E+03 0.  0.
         24    2    3    3    0    0 -0.68020455983E+01  0.24204439589E+02 -0.25965849123E+03  0.27320861748E+03  0.81168305854E+02 0.  0.
         -6    2    1    2    0  502  0.99681080387E+02 -0.33163736623E+01 -0.50207046162E+02  0.20350368917E+03  0.17013432311E+03 0.  0.
        -24    2    5    5    0    0  0.80663179227E+02 -0.16768929791E+02  0.30546692059E+02  0.11932585320E+03  0.80732975652E+02 0.  0.
          5    1    3    3  501    0 -0.92879034789E+02 -0.20888065927E+02 -0.10451049064E+03  0.14144737203E+03  0.47000000000E+01 0. -1.
        -13    1    4    4    0    0  0.12148164650E+02 -0.25541314175E+02 -0.56392167589E+02  0.63087345796E+02  0.00000000000E+00 0.  1.
         14    1    4    4    0    0 -0.18950210248E+02  0.49745753764E+02 -0.20326632364E+03  0.21012127168E+03  0.00000000000E+00 0. -1.
         -5    1    5    5    0  502  0.19017901160E+02  0.13452556129E+02 -0.80753738221E+02  0.84177835964E+02  0.47000000000E+01 0.  1.
         13    1    6    6    0    0  0.15573540767E+02  0.10431316732E+02 -0.23785572491E+02  0.30283675463E+02  0.00000000000E+00 0. -1.
        -14    1    6    6    0    0  0.65089638460E+02 -0.27200246524E+02  0.54332264550E+02  0.89042177741E+02  0.00000000000E+00 0.  1.
</event>
<event>
12    1  0.1593360E-001  0.1966092E+03  0.7818608E-02  0.1155455E+00
         21   -1    0    0  501  502  0.00000000000E+00  0.00000000000E+00  0.23128395153E+03  0.23128395153E+03  0.00000000000E+00 0. -1.
         21   -1    0    0  502  503 -0.00000000000E+00 -0.00000000000E+00 -0.23482176912E+03  0.23482176912E+03  0.00000000000E+00 0. -1.
         -6    2    1    2    0  503 -0.42763273734E+02 -0.84817260373E+02 -0.13621927709E+03  0.22891476589E+03  0.15755511212E+03 0.  0.
        -24    2    3    3    0    0 -0.77133730145E+02 -0.95383065934E+02 -0.12374645308E+03  0.19056602589E+03  0.77166598868E+02 0.  0.
          6    2    1    2  501    0  0.42763273734E+02  0.84817260373E+02  0.13268145949E+03  0.23719095476E+03  0.17214097156E+03 0.  0.
         24    2    5    5    0    0 -0.10873885428E+01  0.11130100492E+03  0.67587392610E+02  0.15422351024E+03  0.82630135913E+02 0.  0.
          5    1    5    5  501    0  0.43850662277E+02 -0.26483744543E+02  0.65094066883E+02  0.82967444522E+02  0.47000000000E+01 0. -1.
        -11    1    6    6    0    0 -0.16554618266E+01 -0.13091845395E+02  0.12734363278E+01  0.13257398304E+02  0.00000000000E+00 0.  1.
         12    1    6    6    0    0  0.56807328377E+00  0.12439285031E+03  0.66313956283E+02  0.14096611193E+03  0.00000000000E+00 0. -1.
         -5    1    3    3    0  503  0.34370456411E+02  0.10565805561E+02 -0.12472824006E+02  0.38348740002E+02  0.47000000000E+01 0.  1.
         13    1    4    4    0    0  0.66018127437E+01 -0.30491191322E+02 -0.58077768993E+02  0.65926655693E+02  0.00000000000E+00 0. -1.
        -14    1    4    4    0    0 -0.83735542889E+02 -0.64891874612E+02 -0.65668684090E+02  0.12463937020E+03  0.00000000000E+00 0.  1.
</event>
<event>
12    1  0.1593360E-001  0.1740481E+03  0.7818608E-02  0.1174357E+00
         21   -1    0    0  501  502  0.00000000000E+00  0.00000000000E+00  0.58039992044E+03  0.58039992044E+03  0.00000000000E+00 0. -1.
         21   -1    0    0  502  503 -0.00000000000E+00 -0.00000000000E+00 -0.76664329071E+02  0.76664329071E+02  0.00000000000E+00 0. -1.
         -6    2    1    2    0  503  0.59235064048E+01  0.71377428987E+01  0.64597535608E+02  0.18564909270E+03  0.17380077305E+03 0.  0.
        -24    2    3    3    0    0 -0.95639337378E+01  0.17691309068E+02  0.10929684117E+03  0.13695251707E+03  0.80035874436E+02 0.  0.
          6    2    1    2  501    0 -0.59235064048E+01 -0.71377428987E+01  0.43913805576E+03  0.47141515681E+03  0.17118406102E+03 0.  0.
         24    2    5    5    0    0 -0.66451458191E+02  0.13519219936E+02  0.29067528341E+03  0.30969432377E+03  0.82582614342E+02 0.  0.
          5    1    5    5  501    0  0.60527951786E+02 -0.20656962834E+02  0.14846277236E+03  0.16172083303E+03  0.47000000000E+01 0. -1.
        -11    1    6    6    0    0 -0.68321626489E+02 -0.86100479489E+01  0.12654239113E+03  0.14406579860E+03  0.00000000000E+00 0.  1.
         12    1    6    6    0    0  0.18701682975E+01  0.22129267885E+02  0.16413289227E+03  0.16562852518E+03  0.00000000000E+00 0. -1.
         -5    1    3    3    0  503  0.15487440143E+02 -0.10553566170E+02 -0.44699305561E+02  0.48696575637E+02  0.47000000000E+01 0.  1.
         13    1    4    4    0    0  0.11647525681E+02 -0.23349575784E+02  0.10954897396E+02  0.28299775984E+02  0.00000000000E+00 0. -1.
        -14    1    4    4    0    0 -0.21211459419E+02  0.41040884852E+02  0.98341943773E+02  0.10865274108E+03  0.00000000000E+00 0.  1.
</event>
<event>
12    1  0.1593360E-001  0.3055594E+03  0.7818608E-02  0.1082505E+00
         21   -1    0    0  503  502  0.00000000000E+00  0.00000000000E+00  0.16928749686E+03  0.16928749686E+03  0.00000000000E+00 0.  1.
         21   -1    0    0  501  503 -0.00000000000E+00 -0.00000000000E+00 -0.11316376110E+04  0.11316376110E+04  0.00000000000E+00 0.  1.
          6    2    1    2  501    0 -0.18436650712E+03  0.17213248474E+03 -0.94699455336E+03  0.99507046778E+03  0.17247014386E+03 0.  0.
         24    2    3    3    0    0 -0.83890088821E+02  0.79226614758E+02 -0.26813920307E+03  0.30254343732E+03  0.79495256181E+02 0.  0.
         -6    2    1    2    0  502  0.18436650712E+03 -0.17213248474E+03 -0.15355560797E+02  0.30585464010E+03  0.17230979767E+03 0.  0.
        -24    2    5    5    0    0  0.96385271453E+02 -0.15137941679E+03  0.38891987533E+02  0.20032609345E+03  0.80075643251E+02 0.  0.
          5    1    3    3  501    0 -0.10047641829E+03  0.92905869979E+02 -0.67885535028E+03  0.69252703046E+03  0.47000000000E+01 0. -1.
        -13    1    4    4    0    0 -0.85205905735E+02  0.83512648518E+02 -0.27174990238E+03  0.29678682295E+03  0.00000000000E+00 0.  1.
         14    1    4    4    0    0  0.13158169134E+01 -0.42860337605E+01  0.36106993073E+01  0.57566143724E+01  0.00000000000E+00 0. -1.
         -5    1    5    5    0  502  0.87981235662E+02 -0.20753067949E+02 -0.54247548331E+02  0.10552854665E+03  0.47000000000E+01 0.  1.
         11    1    6    6    0    0  0.29126121676E+02  0.13540775792E+01  0.10787019099E+02  0.31088973463E+02  0.00000000000E+00 0. -1.
        -12    1    6    6    0    0  0.67259149778E+02 -0.15273349437E+03  0.28104968434E+02  0.16923711999E+03  0.00000000000E+00 0.  1.
</event>
<event>
12    1  0.1593360E-001  0.1969068E+03  0.7818608E-02  0.1152465E+00
         21   -1    0    0  501  502  0.00000000000E+00  0.00000000000E+00  0.62731146768E+02  0.62731146768E+02  0.00000000000E+00 0. -1.
         21   -1    0    0  502  503 -0.00000000000E+00 -0.00000000000E+00 -0.22967086852E+04  0.22967086852E+04  0.00000000000E+00 0. -1.
         -6    2    1    2    0  503  0.95098659972E+02 -0.63421055017E+01 -0.21256298081E+04  0.21346921761E+04  0.17182732050E+03 0.  0.
        -24    2    3    3    0    0  0.34269296377E+02 -0.24065748026E+02 -0.51979189356E+03  0.52759795458E+03  0.80140153256E+02 0.  0.
          6    2    1    2  501    0 -0.95098659972E+02  0.63421055017E+01 -0.10834773035E+03  0.22474765592E+03  0.17230293305E+03 0.  0.
         24    2    5    5    0    0 -0.45366394158E+01  0.54737289519E+02 -0.53817767888E+02  0.10838967291E+03  0.76388592682E+02 0.  0.
          5    1    5    5  501    0 -0.90562020556E+02 -0.48395184017E+02 -0.54529962467E+02  0.11635798301E+03  0.47000000000E+01 0. -1.
        -11    1    6    6    0    0  0.26195237401E+02  0.73317871193E+01  0.40674914608E+01  0.27504364229E+02  0.00000000000E+00 0.  1.
         12    1    6    6    0    0 -0.30731876817E+02  0.47405502400E+02 -0.57885259349E+02  0.80885308680E+02  0.00000000000E+00 0. -1.
         -5    1    3    3    0  503  0.60829363595E+02  0.17723642525E+02 -0.16058379146E+04  0.16070942215E+04  0.47000000000E+01 0.  1.
         13    1    4    4    0    0  0.16738022568E+02 -0.72107878750E+01 -0.48389874307E+03  0.48424183050E+03  0.00000000000E+00 0. -1.
        -14    1    4    4    0    0  0.17531273809E+02 -0.16854960151E+02 -0.35893150485E+02  0.43356124075E+02  0.00000000000E+00 0.  1.
</event>
<event>
12    1  0.1593360E-001  0.1970244E+03  0.7818608E-02  0.1152894E+00
         21   -1    0    0  501  502  0.00000000000E+00  0.00000000000E+00  0.12633021461E+04  0.12633021461E+04  0.00000000000E+00 0.  1.
         21   -1    0    0  502  503 -0.00000000000E+00 -0.00000000000E+00 -0.30723601579E+02  0.30723601579E+02  0.00000000000E+00 0. -1.
         -6    2    1    2    0  503  0.42636121032E+02 -0.84694060935E+02  0.53443951987E+03  0.56861779043E+03  0.16943927650E+03 0.  0.
        -24    2    3    3    0    0  0.10753411234E+02 -0.68128194024E+02  0.15332910293E+03  0.18578861830E+03  0.79060168299E+02 0.  0.
          6    2    1    2  501    0 -0.42636121032E+02  0.84694060935E+02  0.69813902468E+03  0.72540795727E+03  0.17270693075E+03 0.  0.
         24    2    5    5    0    0  0.40781797240E+02  0.67388799136E+02  0.37710156415E+03  0.39322553415E+03  0.78843679422E+02 0.  0.
          5    1    5    5  501    0 -0.83417918272E+02  0.17305261799E+02  0.32103746053E+03  0.33218242313E+03  0.47000000000E+01 0. -1.
        -11    1    6    6    0    0  0.20697597030E+02  0.23993829264E+01  0.23241174317E+03  0.23334387912E+03  0.00000000000E+00 0.  1.
         12    1    6    6    0    0  0.20084200210E+02  0.64989416210E+02  0.14468982098E+03  0.15988165502E+03  0.00000000000E+00 0. -1.
         -5    1    3    3    0  503  0.31882709798E+02 -0.16565866911E+02  0.38111041694E+03  0.38282917212E+03  0.47000000000E+01 0.  1.
         11    1    4    4    0    0  0.34912420956E+02 -0.59809957401E+02  0.14169511833E+03  0.15771371120E+03  0.00000000000E+00 0. -1.
        -12    1    4    4    0    0 -0.24159009722E+02 -0.83182366232E+01  0.11633984599E+02  0.28074907104E+02  0.00000000000E+00 0.  1.
</event>
<event>
12    1  0.1593360E-001  0.2958847E+03  0.7818608E-02  0.1087462E+00
         21   -1    0    0  501  502  0.00000000000E+00  0.00000000000E+00  0.45540174593E+03  0.45540174593E+03  0.00000000000E+00 0.  1.
         21   -1    0    0  502  503 -0.00000000000E+00 -0.00000000000E+00 -0.22180601908E+03  0.22180601908E+03  0.00000000000E+00 0.  1.
         -6    2    1    2    0  503  0.66497058671E+02  0.22965007275E+03  0.24176618254E+03  0.38121032304E+03  0.17236417449E+03 0.  0.
        -24    2    3    3    0    0 -0.22041928358E+02  0.55437736228E+02  0.75100354789E+02  0.12432770674E+03  0.79108319213E+02 0.  0.
          6    2    1    2  501    0 -0.66497058671E+02 -0.22965007275E+03 -0.81704556877E+01  0.29599744197E+03  0.17431785504E+03 0.  0.
         24    2    5    5    0    0 -0.93218067117E+02 -0.22278012486E+03  0.21463372514E+02  0.25523640359E+03  0.79776896967E+02 0.  0.
          5    1    5    5  501    0  0.26721008447E+02 -0.68699478909E+01 -0.29633828202E+02  0.40761038386E+02  0.47000000000E+01 0. -1.
        -13    1    6    6    0    0 -0.97464345944E+01 -0.12179136331E+03 -0.16575867565E+01  0.12219196683E+03  0.00000000000E+00 0.  1.
         14    1    6    6    0    0 -0.83471632523E+02 -0.10098876154E+03  0.23120959271E+02  0.13304443676E+03  0.00000000000E+00 0. -1.
         -5    1    3    3    0  503  0.88538987028E+02  0.17421233652E+03  0.16666582775E+03  0.25688261630E+03  0.47000000000E+01 0.  1.
         13    1    4    4    0    0 -0.43240835196E+02  0.22152201131E+02  0.69010766043E+02  0.84397723152E+02  0.00000000000E+00 0. -1.
        -14    1    4    4    0    0  0.21198906838E+02  0.33285535097E+02  0.60895887457E+01  0.39929983583E+02  0.00000000000E+00 0.  1.
</event>
<event>
12    1  0.1593360E-001  0.1715483E+03  0.7818608E-02  0.1176568E+00
         21   -1    0    0  501  502  0.00000000000E+00  0.00000000000E+00  0.91340292893E+02  0.91340292893E+02  0.00000000000E+00 0.  1.
         21   -1    0    0  502  503 -0.00000000000E+00 -0.00000000000E+00 -0.33248603644E+03  0.33248603644E+03  0.00000000000E+00 0.  1.
         -6    2    1    2    0  503  0.55183241420E+01 -0.19847788950E+00 -0.16149274511E+03  0.23468773161E+03  0.17019968669E+03 0.  0.
        -24    2    3    3    0    0 -0.94254924243E+01 -0.34246712800E+02 -0.28380956790E+02  0.96400211770E+02  0.85004969713E+02 0.  0.
          6    2    1    2  501    0 -0.55183241420E+01  0.19847788950E+00 -0.79652998439E+02  0.18913859772E+03  0.17145937622E+03 0.  0.
         24    2    5    5    0    0 -0.22979626688E+02 -0.69550253557E+02 -0.46379921070E+02  0.10977254514E+03  0.67332113997E+02 0.  0.
          5    1    5    5  501    0  0.17461302546E+02  0.69748731447E+02 -0.33273077369E+02  0.79366052583E+02  0.47000000000E+01 0. -1.
        -11    1    6    6    0    0 -0.26396743042E+02 -0.17421360434E+02 -0.48027343282E+02  0.57505804449E+02  0.00000000000E+00 0.  1.
         12    1    6    6    0    0  0.34171163538E+01 -0.52128893124E+02  0.16474222120E+01  0.52266740691E+02  0.00000000000E+00 0. -1.
         -5    1    3    3    0  503  0.14943816566E+02  0.34048234911E+02 -0.13311178832E+03  0.13828751984E+03  0.47000000000E+01 0.  1.
         11    1    4    4    0    0 -0.19025252061E+02 -0.48396498573E+02 -0.47725030691E+02  0.70582291296E+02  0.00000000000E+00 0. -1.
        -12    1    4    4    0    0  0.95997596364E+01  0.14149785773E+02  0.19344073901E+02  0.25817920474E+02  0.00000000000E+00 0.  1.
</event>
<event>
12    1  0.1593360E-001  0.2430773E+03  0.7818608E-02  0.1117763E+00
         21   -1    0    0  501  502  0.00000000000E+00  0.00000000000E+00  0.16600433395E+03  0.16600433395E+03  0.00000000000E+00 0.  1.
         21   -1    0    0  502  503 -0.00000000000E+00 -0.00000000000E+00 -0.37036030431E+03  0.37036030431E+03  0.00000000000E+00 0.  1.
         -6    2    1    2    0  503  0.67311167748E+02 -0.15777531428E+03 -0.49197961172E+02  0.24798888286E+03  0.17220395913E+03 0.  0.
        -24    2    3    3    0    0 -0.71488465877E+01 -0.12795499538E+03  0.45740997661E+01  0.15130863828E+03  0.80310614378E+02 0.  0.
          6    2    1    2  501    0 -0.67311167748E+02  0.15777531428E+03 -0.15515800918E+03  0.28837575540E+03  0.17222870083E+03 0.  0.
         24    2    5    5    0    0 -0.72520533738E+02  0.19936779117E+02 -0.80604847591E+02  0.13151000652E+03  0.71701027774E+02 0.  0.
          5    1    5    5  501    0  0.52093659905E+01  0.13783853516E+03 -0.74553161590E+02  0.15686574888E+03  0.47000000000E+01 0. -1.
        -13    1    6    6    0    0 -0.12683210878E+02  0.33112265962E+02 -0.54253417121E+02  0.64812955994E+02  0.00000000000E+00 0.  1.
         14    1    6    6    0    0 -0.59837322860E+02 -0.13175486845E+02 -0.26351430469E+02  0.66697050523E+02  0.00000000000E+00 0. -1.
         -5    1    3    3    0  503  0.74460014335E+02 -0.29820318903E+02 -0.53772060939E+02  0.96680244579E+02  0.47000000000E+01 0.  1.
         13    1    4    4    0    0 -0.59776784513E+01 -0.34531581984E+02  0.38358697173E+02  0.51957217427E+02  0.00000000000E+00 0. -1.
        -14    1    4    4    0    0 -0.11711681364E+01 -0.93423413391E+02 -0.33784597406E+02  0.99351420857E+02  0.00000000000E+00 0.  1.
</event>
<event>
12    1  0.1593360E-001  0.2276462E+03  0.7818608E-02  0.1128385E+00
         21   -1    0    0  501  502  0.00000000000E+00  0.00000000000E+00  0.28142782189E+03  0.28142782189E+03  0.00000000000E+00 0. -1.
         21   -1    0    0  502  503 -0.00000000000E+00 -0.00000000000E+00 -0.26674748575E+03  0.26674748575E+03  0.00000000000E+00 0.  1.
         -6    2    1    2    0  503 -0.14260694531E+03  0.46086997430E+02 -0.14550379884E+03  0.27017430970E+03  0.17135358170E+03 0.  0.
        -24    2    3    3    0    0 -0.12682424771E+03  0.66831020114E+02 -0.50308220413E+02  0.17136289248E+03  0.79268838913E+02 0.  0.
          6    2    1    2  501    0  0.14260694531E+03 -0.46086997430E+02  0.16018413498E+03  0.27800099794E+03  0.17077718106E+03 0.  0.
         24    2    5    5    0    0  0.16824811737E+03 -0.11394164223E+02  0.13591035425E+03  0.22827807755E+03  0.72124893921E+02 0.  0.
          5    1    5    5  501    0 -0.25641172057E+02 -0.34692833208E+02  0.24273780731E+02  0.49722920383E+02  0.47000000000E+01 0. -1.
        -11    1    6    6    0    0  0.17341152570E+03 -0.13763066574E+02  0.11985987018E+03  0.21125190585E+03  0.00000000000E+00 0.  1.
         12    1    6    6    0    0 -0.51634083300E+01  0.23689023517E+01  0.16050484071E+02  0.17026171703E+02  0.00000000000E+00 0. -1.
         -5    1    3    3    0  503 -0.15782697606E+02 -0.20744022683E+02 -0.95195578425E+02  0.98811417217E+02  0.47000000000E+01 0.  1.
         11    1    4    4    0    0 -0.12858181077E+02  0.12618634516E+02  0.19982882716E+02  0.26904987629E+02  0.00000000000E+00 0. -1.
        -12    1    4    4    0    0 -0.11396606663E+03  0.54212385598E+02 -0.70291103129E+02  0.14445790485E+03  0.00000000000E+00 0.  1.
</event>
<event>
12    1  0.1593360E-001  0.2146144E+03  0.7818608E-02  0.1138251E+00
         21   -1    0    0  501  502  0.00000000000E+00  0.00000000000E+00  0.11084297932E+04  0.11084297932E+04  0.00000000000E+00 0. -1.
         21   -1    0    0  502  503 -0.00000000000E+00 -0.00000000000E+00 -0.80105767781E+02  0.80105767781E+02  0.00000000000E+00 0. -1.
         -6    2    1    2    0  503  0.70121833929E+02  0.10273475272E+03  0.10128674860E+03  0.23731485340E+03  0.17489377689E+03 0.  0.
        -24    2    3    3    0    0  0.65400235803E+02  0.13377195450E+03  0.11290799941E+03  0.20351034404E+03  0.80598493452E+02 0.  0.
          6    2    1    2  501    0 -0.70121833929E+02 -0.10273475272E+03  0.92703727682E+03  0.95122070758E+03  0.17306421034E+03 0.  0.
         24    2    5    5    0    0 -0.48671662896E+02 -0.12935098942E+03  0.87050130969E+03  0.88498673236E+03  0.79551097168E+02 0.  0.
          5    1    5    5  501    0 -0.21450171033E+02  0.26616236694E+02  0.56535967134E+02  0.66233975216E+02  0.47000000000E+01 0. -1.
        -13    1    6    6    0    0 -0.37328172360E+02 -0.13028545051E+02  0.30357461985E+03  0.30613834333E+03  0.00000000000E+00 0.  1.
         14    1    6    6    0    0 -0.11343490536E+02 -0.11632244437E+03  0.56692668983E+03  0.57884838903E+03  0.00000000000E+00 0. -1.
         -5    1    3    3    0  503  0.47215981262E+01 -0.31037201774E+02 -0.11621250814E+02  0.33804509363E+02  0.47000000000E+01 0.  1.
         13    1    4    4    0    0  0.33574126216E+02  0.40299957103E+02 -0.13850764631E+01  0.52471200963E+02  0.00000000000E+00 0. -1.
        -14    1    4    4    0    0  0.31826109587E+02  0.93471997392E+02  0.11429307588E+03  0.15103914308E+03  0.00000000000E+00 0.  1.
</event>
<event>
12    1  0.1593360E-001  0.2352043E+03  0.7818608E-02  0.1123317E+00
         21   -1    0    0  503  502  0.00000000000E+00  0.00000000000E+00  0.20060616592E+03  0.20060616592E+03  0.00000000000E+00 0. -1.
         21   -1    0    0  501  503 -0.00000000000E+00 -0.00000000000E+00 -0.41493738080E+03  0.41493738080E+03  0.00000000000E+00 0.  1.
          6    2    1    2  501    0  0.96406675455E+02 -0.12465987394E+03  0.72074434128E+02  0.24599957972E+03  0.17460451863E+03 0.  0.
         24    2    3    3    0    0  0.81096857470E+01 -0.46448886753E+02 -0.25868500998E+02  0.92610448915E+02  0.75393964087E+02 0.  0.
         -6    2    1    2    0  502 -0.96406675455E+02  0.12465987394E+03 -0.28640564901E+03  0.36954396700E+03  0.17233750759E+03 0.  0.
        -24    2    5    5    0    0 -0.35277427383E+00  0.67517597474E+02 -0.67753791426E+02  0.12393794811E+03  0.78811726990E+02 0.  0.
          5    1    3    3  501    0  0.88296989708E+02 -0.78210987186E+02  0.97942935126E+02  0.15338913081E+03  0.47000000000E+01 0. -1.
        -13    1    4    4    0    0  0.33695871869E+02  0.14871778668E+01 -0.37217644386E+01  0.33933390776E+02  0.00000000000E+00 0.  1.
         14    1    4    4    0    0 -0.25586186122E+02 -0.47936064620E+02 -0.22146736559E+02  0.58677058138E+02  0.00000000000E+00 0. -1.
         -5    1    5    5    0  502 -0.96053901181E+02  0.57142276465E+02 -0.21865185758E+03  0.24560601889E+03  0.47000000000E+01 0.  1.
         13    1    6    6    0    0  0.37241312898E+02  0.26766518193E+02 -0.17433687014E+02  0.49064195963E+02  0.00000000000E+00 0. -1.
        -14    1    6    6    0    0 -0.37594087172E+02  0.40751079280E+02 -0.50320104412E+02  0.74873752149E+02  0.00000000000E+00 0.  1.
</event>
<event>
12    1  0.1593360E-001  0.1873148E+03  0.7818608E-02  0.1161185E+00
         21   -1    0    0  503  502  0.00000000000E+00  0.00000000000E+00  0.10142192275E+03  0.10142192275E+03  0.00000000000E+00 0. -1.
         21   -1    0    0  501  503 -0.00000000000E+00 -0.00000000000E+00 -0.36406367431E+03  0.36406367431E+03  0.00000000000E+00 0. -1.
          6    2    1    2  501    0  0.51912567036E+02  0.50881167303E+02 -0.76701422549E+02  0.20241034805E+03  0.17263554956E+03 0.  0.
         24    2    3    3    0    0  0.65771670920E+02  0.80325008004E+02 -0.97214994746E+02  0.16365584947E+03  0.80959633497E+02 0.  0.
         -6    2    1    2    0  502 -0.51912567036E+02 -0.50881167303E+02 -0.18594032901E+03  0.26307524902E+03  0.17132125639E+03 0.  0.
        -24    2    5    5    0    0  0.43245014620E+01  0.28264692436E+02 -0.11755247306E+03  0.14422381306E+03  0.78513248439E+02 0.  0.
          5    1    3    3  501    0 -0.13859103883E+02 -0.29443840701E+02  0.20513572197E+02  0.38754498577E+02  0.47000000000E+01 0. -1.
        -11    1    4    4    0    0  0.50774688743E+02  0.77910683075E+02 -0.34598116220E+02  0.99222846160E+02  0.00000000000E+00 0.  1.
         12    1    4    4    0    0  0.14996982176E+02  0.24143249295E+01 -0.62616878525E+02  0.64433003310E+02  0.00000000000E+00 0. -1.
         -5    1    5    5    0  502 -0.56237068498E+02 -0.79145859739E+02 -0.68387855953E+02  0.11885143596E+03  0.47000000000E+01 0.  1.
         11    1    6    6    0    0  0.28776875537E+02  0.33025090345E+02 -0.29738517838E+02  0.52944731571E+02  0.00000000000E+00 0. -1.
        -12    1    6    6    0    0 -0.24452374075E+02 -0.47603979091E+01 -0.87813955222E+02  0.91279081491E+02  0.00000000000E+00 0.  1.
</event>
<event>
12    1  0.1593360E-001  0.2322331E+03  0.7818608E-02  0.1125198E+00
         21   -1    0    0  501  502  0.00000000000E+00  0.00000000000E+00  0.63191963500E+03  0.63191963500E+03  0.00000000000E+00 0.  1.
         21   -1    0    0  502  503 -0.00000000000E+00 -0.00000000000E+00 -0.18485134907E+03  0.18485134907E+03  0.00000000000E+00 0. -1.
         -6    2    1    2    0  503  0.15157580701E+03  0.34352674073E+02 -0.76627395972E+02  0.24389283749E+03  0.17162932989E+03 0.  0.
        -24    2    3    3    0    0  0.13043668658E+03 -0.24593219056E+02 -0.85108684259E+02  0.18052484099E+03  0.87904348289E+02 0.  0.
          6    2    1    2  501    0 -0.15157580701E+03 -0.34352674073E+02  0.52369568190E+03  0.57287814658E+03  0.17255976386E+03 0.  0.
         24    2    5    5    0    0 -0.70982535536E+02  0.37063788971E+02  0.35574360016E+03  0.37331467708E+03  0.79988088240E+02 0.  0.
          5    1    5    5  501    0 -0.80593271473E+02 -0.71416463045E+02  0.16795208174E+03  0.19956346951E+03  0.47000000000E+01 0. -1.
        -13    1    6    6    0    0 -0.10728518540E+02 -0.24397784878E+02  0.99185028181E+02  0.10270356777E+03  0.00000000000E+00 0.  1.
         14    1    6    6    0    0 -0.60254016996E+02  0.61461573849E+02  0.25655857198E+03  0.27061110931E+03  0.00000000000E+00 0. -1.
         -5    1    3    3    0  503  0.21139120432E+02  0.58945893129E+02  0.84812882872E+01  0.63367996500E+02  0.47000000000E+01 0.  1.
         11    1    4    4    0    0  0.13025520863E+03 -0.16033726664E+02 -0.43824317703E+02  0.13836209954E+03  0.00000000000E+00 0. -1.
        -12    1    4    4    0    0  0.18147794199E+00 -0.85594923919E+01 -0.41284366556E+02  0.42162741445E+02  0.00000000000E+00 0.  1.
</event>
<event>
12    1  0.1593360E-001  0.2109527E+03  0.7818608E-02  0.1143439E+00
         21   -1    0    0  503  502  0.00000000000E+00  0.00000000000E+00  0.57947852245E+03  0.57947852245E+03  0.00000000000E+00 0.  1.
         21   -1    0    0  501  503 -0.00000000000E+00 -0.00000000000E+00 -0.26833726695E+03  0.26833726695E+03  0.00000000000E+00 0. -1.
          6    2    1    2  501    0  0.95583517199E+02 -0.74422289158E+02 -0.20814563792E+03  0.28731609748E+03  0.15668773853E+03 0.  0.
         24    2    3    3    0    0 -0.91490075273E+01 -0.13157595737E+02 -0.49312221079E+02  0.87385087630E+02  0.70339403808E+02 0.  0.
         -6    2    1    2    0  502 -0.95583517199E+02  0.74422289158E+02  0.51928689341E+03  0.56049969192E+03  0.17270246404E+03 0.  0.
        -24    2    5    5    0    0  0.90231822710E+01  0.19264161531E+02  0.20065011025E+03  0.22059313093E+03  0.89153445992E+02 0.  0.
          5    1    3    3  501    0  0.10473252473E+03 -0.61264693422E+02 -0.15883341684E+03  0.19993100985E+03  0.47000000000E+01 0. -1.
        -11    1    4    4    0    0 -0.18617357111E+02  0.25640227500E+02 -0.27054394965E+02  0.41664943765E+02  0.00000000000E+00 0.  1.
         12    1    4    4    0    0  0.94683495835E+01 -0.38797823236E+02 -0.22257826114E+02  0.45720143865E+02  0.00000000000E+00 0. -1.
         -5    1    5    5    0  502 -0.10460669947E+03  0.55158127627E+02  0.31863678317E+03  0.33990656099E+03  0.47000000000E+01 0.  1.
         11    1    6    6    0    0 -0.20128125324E+02 -0.85190273631E+01  0.16610231683E+03  0.16753416044E+03  0.00000000000E+00 0. -1.
        -12    1    6    6    0    0  0.29151307595E+02  0.27783188894E+02  0.34547793416E+02  0.53058970491E+02  0.00000000000E+00 0.  1.
</event>
<event>
12    1  0.1593360E-001  0.1876944E+03  0.7818608E-02  0.1160728E+00
         21   -1    0    0  501  502  0.00000000000E+00  0.00000000000E+00  0.19437373330E+03  0.19437373330E+03  0.00000000000E+00 0.  1.
         21   -1    0    0  502  503 -0.00000000000E+00 -0.00000000000E+00 -0.20797739386E+03  0.20797739386E+03  0.00000000000E+00 0.  1.
         -6    2    1    2    0  503  0.14578813208E+02 -0.71953904576E+02 -0.79878796338E+02  0.20329940925E+03  0.17193057180E+03 0.  0.
        -24    2    3    3    0    0 -0.12654916582E+02  0.24273437299E+02 -0.54395997494E+02  0.99989969220E+02  0.79307772187E+02 0.  0.
          6    2    1    2  501    0 -0.14578813208E+02  0.71953904576E+02  0.66275135778E+02  0.19905171790E+03  0.17274051812E+03 0.  0.
         24    2    5    5    0    0 -0.48388367381E+01  0.70755144616E+00  0.91482535080E+02  0.12270767455E+03  0.81634577227E+02 0.  0.
          5    1    5    5  501    0 -0.97399764697E+01  0.71246353129E+02 -0.25207399301E+02  0.76344043352E+02  0.47000000000E+01 0. -1.
        -13    1    6    6    0    0  0.35524415235E+01  0.26118468856E+02  0.92244095307E+02  0.95936267257E+02  0.00000000000E+00 0.  1.
         14    1    6    6    0    0 -0.83912782616E+01 -0.25410917410E+02 -0.76156022760E+00  0.26771407293E+02  0.00000000000E+00 0. -1.
         -5    1    3    3    0  503  0.27233729790E+02 -0.96227341875E+02 -0.25482798844E+02  0.10330944003E+03  0.47000000000E+01 0.  1.
         11    1    4    4    0    0  0.12075500499E+02  0.18757109425E+02  0.14483817196E+02  0.26597515426E+02  0.00000000000E+00 0. -1.
        -12    1    4    4    0    0 -0.24730417081E+02  0.55163278746E+01 -0.68879814690E+02  0.73392453794E+02  0.00000000000E+00 0.  1.
</event>
<event>
12    1  0.1593360E-001  0.2564943E+03  0.7818608E-02  0.1109373E+00
         21   -1    0    0  501  502  0.00000000000E+00  0.00000000000E+00  0.19038788162E+03  0.19038788162E+03  0.00000000000E+00 0. -1.
         21   -1    0    0  502  503 -0.00000000000E+00 -0.00000000000E+00 -0.44351105250E+03  0.44351105250E+03  0.00000000000E+00 0.  1.
         -6    2    1    2    0  503 -0.18540755581E+03  0.38178599635E+02  0.22962149003E+02  0.25752002472E+03  0.17307725334E+03 0.  0.
        -24    2    3    3    0    0 -0.13457225503E+03  0.49798048916E+02 -0.47188829421E+02  0.16998437952E+03  0.77963877262E+02 0.  0.
          6    2    1    2  501    0  0.18540755581E+03 -0.38178599635E+02 -0.27608531988E+03  0.37637890941E+03  0.17205932807E+03 0.  0.
         24    2    5    5    0    0  0.19712825398E+03 -0.54191561929E+02 -0.19700015459E+03  0.29470674098E+03  0.79036247199E+02 0.  0.
          5    1    5    5  501    0 -0.11720698169E+02  0.16012962294E+02 -0.79085165290E+02  0.81672168430E+02  0.47000000000E+01 0. -1.
        -11    1    6    6    0    0  0.43266468536E+00 -0.41262185752E+01 -0.34375818508E+02  0.34625276556E+02  0.00000000000E+00 0.  1.
         12    1    6    6    0    0  0.19669558929E+03 -0.50065343354E+02 -0.16262433608E+03  0.26008146442E+03  0.00000000000E+00 0. -1.
         -5    1    3    3    0  503 -0.50835300778E+02 -0.11619449281E+02  0.70150978424E+02  0.87535645200E+02  0.47000000000E+01 0.  1.
         11    1    4    4    0    0 -0.11554157207E+03  0.62324098348E+02 -0.17317405549E+02  0.13241616459E+03  0.00000000000E+00 0. -1.
        -12    1    4    4    0    0 -0.19030682964E+02 -0.12526049432E+02 -0.29871423872E+02  0.37568214924E+02  0.00000000000E+00 0.  1.
</event>
<event>
12    1  0.1593360E-001  0.1727211E+03  0.7818608E-02  0.1175089E+00
         21   -1    0    0  501  502  0.00000000000E+00  0.00000000000E+00  0.31284766717E+04  0.31284766717E+04  0.00000000000E+00 0. -1.
         21   -1    0    0  502  503 -0.00000000000E+00 -0.00000000000E+00 -0.60511504310E+02  0.60511504310E+02  0.00000000000E+00 0. -1.
         -6    2    1    2    0  503 -0.73275466664E+01  0.25983201303E+01  0.70488999944E+02  0.18655096289E+03  0.17254598933E+03 0.  0.
        -24    2    3    3    0    0 -0.39567960253E+01 -0.56357164183E+02  0.23344853376E+01  0.96250138131E+02  0.77890006284E+02 0.  0.
          6    2    1    2  501    0  0.73275466664E+01 -0.25983201303E+01  0.29974761675E+04  0.30024372132E+04  0.17235254604E+03 0.  0.
         24    2    5    5    0    0 -0.20316370043E+02  0.57183690897E+02  0.21767445579E+04  0.21790536209E+04  0.79844117947E+02 0.  0.
          5    1    5    5  501    0  0.27643916709E+02 -0.59782011028E+02  0.82073160963E+03  0.82338359227E+03  0.47000000000E+01 0. -1.
        -13    1    6    6    0    0 -0.61808662140E+01 -0.16880676142E+02  0.18228071705E+03  0.18316500796E+03  0.00000000000E+00 0.  1.
         14    1    6    6    0    0 -0.14135503829E+02  0.74064367039E+02  0.19944638408E+04  0.19958886129E+04  0.00000000000E+00 0. -1.
         -5    1    3    3    0  503 -0.33707506410E+01  0.58955484313E+02  0.68154514606E+02  0.90300824756E+02  0.47000000000E+01 0.  1.
         11    1    4    4    0    0 -0.40390283031E+01  0.14375992811E+00 -0.30590163869E+02  0.30855996857E+02  0.00000000000E+00 0. -1.
        -12    1    4    4    0    0  0.82232277730E-01 -0.56500924111E+02  0.32924649206E+02  0.65394141273E+02  0.00000000000E+00 0.  1.
</event>
<event>
12    1  0.1593360E-001  0.2365916E+03  0.7818608E-02  0.1123630E+00
         21   -1    0    0  503  502  0.00000000000E+00  0.00000000000E+00  0.16500606786E+03  0.16500606786E+03  0.00000000000E+00 0. -1.
         21   -1    0    0  501  503 -0.00000000000E+00 -0.00000000000E+00 -0.69825840681E+03  0.69825840681E+03  0.00000000000E+00 0.  1.
          6    2    1    2  501    0  0.46622425802E+02 -0.14112152100E+03 -0.57912347740E+03  0.62226705153E+03  0.17246259614E+03 0.  0.
         24    2    3    3    0    0 -0.30642045201E+02 -0.38005238622E+02 -0.17849013226E+03  0.20139660423E+03  0.79489192879E+02 0.  0.
         -6    2    1    2    0  502 -0.46622425802E+02  0.14112152100E+03  0.45871138456E+02  0.24099742313E+03  0.18408330271E+03 0.  0.
        -24    2    5    5    0    0  0.82699653159E+01  0.15195561482E+03  0.62650003500E+02  0.18239560999E+03  0.78639903394E+02 0.  0.
          5    1    3    3  501    0  0.77264471003E+02 -0.10311628238E+03 -0.40063334515E+03  0.42087044730E+03  0.47000000000E+01 0. -1.
        -13    1    4    4    0    0 -0.40882149728E+02 -0.10958563239E+02 -0.16336707258E+03  0.16876089796E+03  0.00000000000E+00 0.  1.
         14    1    4    4    0    0  0.10240104527E+02 -0.27046675383E+02 -0.15123059676E+02  0.32635706273E+02  0.00000000000E+00 0. -1.
         -5    1    5    5    0  502 -0.54892391118E+02 -0.10834093811E+02 -0.16778865044E+02  0.58601813142E+02  0.47000000000E+01 0.  1.
         11    1    6    6    0    0  0.10124616502E+02  0.16012302147E+03  0.51612169594E+02  0.16853992380E+03  0.00000000000E+00 0. -1.
        -12    1    6    6    0    0 -0.18546511858E+01 -0.81674066565E+01  0.11037833905E+02  0.13855686191E+02  0.00000000000E+00 0.  1.
</event>
<event>
12    1  0.1593360E-001  0.2367564E+03  0.7818608E-02  0.1122037E+00
         21   -1    0    0  503  502  0.00000000000E+00  0.00000000000E+00  0.56688955917E+03  0.56688955917E+03  0.00000000000E+00 0. -1.
         21   -1    0    0  501  503 -0.00000000000E+00 -0.00000000000E+00 -0.10293023106E+03  0.10293023106E+03  0.00000000000E+00 0. -1.
          6    2    1    2  501    0 -0.24442204356E+01  0.16298347324E+03  0.16406797308E+03  0.28773545810E+03  0.17118354856E+03 0.  0.
         24    2    3    3    0    0 -0.29273191108E+02  0.11231622155E+03  0.17970714444E+03  0.22812306223E+03  0.79206189252E+02 0.  0.
         -6    2    1    2    0  502  0.24442204356E+01 -0.16298347324E+03  0.29989135503E+03  0.38208433213E+03  0.17170912984E+03 0.  0.
        -24    2    5    5    0    0  0.53908106210E+02 -0.13056320062E+03  0.26720647390E+03  0.31287452740E+03  0.80859983501E+02 0.  0.
          5    1    3    3  501    0  0.26828970672E+02  0.50667251695E+02 -0.15639171360E+02  0.59612395879E+02  0.47000000000E+01 0. -1.
        -11    1    4    4    0    0 -0.52661095049E+02  0.78262299895E+02  0.15016590343E+03  0.17733577492E+03  0.00000000000E+00 0.  1.
         12    1    4    4    0    0  0.23387903941E+02  0.34053921652E+02  0.29541241015E+02  0.50787287301E+02  0.00000000000E+00 0. -1.
         -5    1    5    5    0  502 -0.51463885774E+02 -0.32420272625E+02  0.32684881135E+02  0.69209804731E+02  0.47000000000E+01 0.  1.
         11    1    6    6    0    0 -0.20964178858E+02 -0.40700219583E+02  0.73451812819E+02  0.86551565414E+02  0.00000000000E+00 0. -1.
        -12    1    6    6    0    0  0.74872285068E+02 -0.89862981034E+02  0.19375466108E+03  0.22632296198E+03  0.00000000000E+00 0.  1.
</event>
<event>
12    1  0.1593360E-001  0.1848121E+03  0.7818608E-02  0.1163375E+00
         21   -1    0    0  503  502  0.00000000000E+00  0.00000000000E+00  0.80746690891E+02  0.80746690891E+02  0.00000000000E+00 0. -1.
         21   -1    0    0  501  503 -0.00000000000E+00 -0.00000000000E+00 -0.78831858625E+03  0.78831858625E+03  0.00000000000E+00 0. -1.
          6    2    1    2  501    0 -0.66824981706E+02  0.66285910769E+01 -0.64985755500E+03  0.67545103435E+03  0.17149268679E+03 0.  0.
         24    2    3    3    0    0 -0.86630708940E+02  0.46561729799E+02 -0.34683259925E+03  0.36912908574E+03  0.79313023022E+02 0.  0.
         -6    2    1    2    0  502  0.66824981706E+02 -0.66285910769E+01 -0.57714340359E+02  0.19361424278E+03  0.17218017751E+03 0.  0.
        -24    2    5    5    0    0  0.28791798342E+02 -0.15295323047E+02  0.35316884472E+02  0.92626451080E+02  0.79179937812E+02 0.  0.
          5    1    3    3  501    0  0.19805727234E+02 -0.39933138722E+02 -0.30302495575E+03  0.30632194862E+03  0.47000000000E+01 0. -1.
        -11    1    4    4    0    0 -0.92599341654E+02  0.48973070066E+02 -0.34722289643E+03  0.36267994081E+03  0.00000000000E+00 0.  1.
         12    1    4    4    0    0  0.59686327136E+01 -0.24113402672E+01  0.39029717540E+00  0.64491449231E+01  0.00000000000E+00 0. -1.
         -5    1    5    5    0  502  0.38033183364E+02  0.86667319703E+01 -0.93031224830E+02  0.10098779170E+03  0.47000000000E+01 0.  1.
         11    1    6    6    0    0  0.35309553991E+02  0.10262701524E+02  0.50288267009E+02  0.62297651998E+02  0.00000000000E+00 0. -1.
        -12    1    6    6    0    0 -0.65177556491E+01 -0.25558024571E+02 -0.14971382538E+02  0.30328799082E+02  0.00000000000E+00 0.  1.
</event>
<event>
12    1  0.1593360E-001  0.2002922E+03  0.7818608E-02  0.1150065E+00
         21   -1    0    0  501  502  0.00000000000E+00  0.00000000000E+00  0.64437462785E+02  0.64437462785E+02  0.00000000000E+00 0.  1.
         21   -1    0    0  502  503 -0.00000000000E+00 -0.00000000000E+00 -0.67678323500E+03  0.67678323500E+03  0.00000000000E+00 0.  1.
         -6    2    1    2    0  503  0.44158840511E+02  0.87615086377E+02 -0.42074050528E+03  0.46598233825E+03  0.17461546387E+03 0.  0.
        -24    2    3    3    0    0  0.23655056345E+02 -0.23194871039E+02 -0.20848310707E+03  0.22561897806E+03  0.79631360614E+02 0.  0.
          6    2    1    2  501    0 -0.44158840511E+02 -0.87615086377E+02 -0.19160526693E+03  0.27523835953E+03  0.17151434251E+03 0.  0.
         24    2    5    5    0    0 -0.57489848160E+02 -0.99361556627E+02 -0.74713431822E+02  0.15691048267E+03  0.76557175360E+02 0.  0.
          5    1    5    5  501    0  0.13331007648E+02  0.11746470250E+02 -0.11689183511E+03  0.11832787687E+03  0.47000000000E+01 0. -1.
        -11    1    6    6    0    0 -0.33789483978E+02 -0.68302571855E+02 -0.87284830885E+02  0.11586894430E+03  0.00000000000E+00 0.  1.
         12    1    6    6    0    0 -0.23700364182E+02 -0.31058984772E+02  0.12571399063E+02  0.41041538371E+02  0.00000000000E+00 0. -1.
         -5    1    3    3    0  503  0.20503784166E+02  0.11080995742E+03 -0.21225739820E+03  0.24036336019E+03  0.47000000000E+01 0.  1.
         13    1    4    4    0    0  0.51269261925E+02 -0.18803974532E+01 -0.11991352853E+03  0.13042747961E+03  0.00000000000E+00 0. -1.
        -14    1    4    4    0    0 -0.27614205580E+02 -0.21314473586E+02 -0.88569578541E+02  0.95191498449E+02  0.00000000000E+00 0.  1.
</event>
<event>
12    1  0.1593360E-001  0.2057817E+03  0.7818608E-02  0.1145100E+00
         21   -1    0    0  503  502  0.00000000000E+00  0.00000000000E+00  0.31785424110E+02  0.31785424110E+02  0.00000000000E+00 0. -1.
         21   -1    0    0  501  503 -0.00000000000E+00 -0.00000000000E+00 -0.13304504568E+04  0.13304504568E+04  0.00000000000E+00 0.  1.
          6    2    1    2  501    0 -0.49757313555E+02  0.10044896358E+03 -0.68261659362E+03  0.71295969133E+03  0.17256976284E+03 0.  0.
         24    2    3    3    0    0 -0.70688169527E+02  0.10521901021E+02 -0.42237279181E+03  0.43678238652E+03  0.85279248372E+02 0.  0.
         -6    2    1    2    0  502  0.49757313555E+02 -0.10044896358E+03 -0.61604843911E+03  0.64927618961E+03  0.17169189420E+03 0.  0.
        -24    2    5    5    0    0  0.80045004583E+02 -0.12102809186E+03 -0.46620338123E+03  0.49495031324E+03  0.81087718712E+02 0.  0.
          5    1    3    3  501    0  0.20930855972E+02  0.89927062562E+02 -0.26024380181E+03  0.27617730481E+03  0.47000000000E+01 0. -1.
        -13    1    4    4    0    0 -0.74461755492E+02  0.37870028933E+02 -0.32599683466E+03  0.33653027848E+03  0.00000000000E+00 0.  1.
         14    1    4    4    0    0  0.37735859650E+01 -0.27348127912E+02 -0.96375957147E+02  0.10025210804E+03  0.00000000000E+00 0. -1.
         -5    1    5    5    0  502 -0.30287691028E+02  0.20579128276E+02 -0.14984505788E+03  0.15432587637E+03  0.47000000000E+01 0.  1.
         13    1    6    6    0    0  0.20325887589E+02 -0.10106201654E+03 -0.30013797031E+03  0.31734756043E+03  0.00000000000E+00 0. -1.
        -14    1    6    6    0    0  0.59719116995E+02 -0.19966075317E+02 -0.16606541092E+03  0.17760275280E+03  0.00000000000E+00 0.  1.
</event>
<event>
12    1  0.1593360E-001  0.2033684E+03  0.7818608E-02  0.1147072E+00
         21   -1    0    0  501  502  0.00000000000E+00  0.00000000000E+00  0.20714541500E+03  0.20714541500E+03  0.00000000000E+00 0.  1.
         21   -1    0    0  502  503 -0.00000000000E+00 -0.00000000000E+00 -0.35600810722E+03  0.35600810722E+03  0.00000000000E+00 0. -1.
         -6    2    1    2    0  503 -0.49403871784E+02 -0.95190818942E+02 -0.26151130166E+03  0.33128063791E+03  0.17279081458E+03 0.  0.
        -24    2    3    3    0    0 -0.83494794702E+02 -0.10932239046E+03 -0.17436987216E+03  0.23653038159E+03  0.81357257194E+02 0.  0.
          6    2    1    2  501    0  0.49403871784E+02  0.95190818942E+02  0.11264860944E+03  0.23187288431E+03  0.17196886552E+03 0.  0.
         24    2    5    5    0    0 -0.39020019598E+02  0.56270936414E+02  0.63574905190E+02  0.12341155354E+03  0.80620485996E+02 0.  0.
          5    1    5    5  501    0  0.88423891383E+02  0.38919882528E+02  0.49073704254E+02  0.10846133077E+03  0.47000000000E+01 0. -1.
        -13    1    6    6    0    0 -0.59550118759E+02  0.17881878175E+02  0.39522765983E+02  0.73675146707E+02  0.00000000000E+00 0.  1.
         14    1    6    6    0    0  0.20530099161E+02  0.38389058239E+02  0.24052139206E+02  0.49736406830E+02  0.00000000000E+00 0. -1.
         -5    1    3    3    0  503  0.34090922917E+02  0.14131571517E+02 -0.87141429494E+02  0.94750256323E+02  0.47000000000E+01 0.  1.
         11    1    4    4    0    0 -0.25518610698E+01 -0.69548147261E+02 -0.78431749611E+02  0.10485702709E+03  0.00000000000E+00 0. -1.
        -12    1    4    4    0    0 -0.80942933632E+02 -0.39774243198E+02 -0.95938122552E+02  0.13167335450E+03  0.00000000000E+00 0.  1.
</event>
<event>
12    1  0.1593360E-001  0.1975649E+03  0.7818608E-02  0.1151836E+00
         21   -1    0    0  501  502  0.00000000000E+00  0.00000000000E+00  0.19282031060E+03  0.19282031060E+03  0.00000000000E+00 0.  1.
         21   -1    0    0  502  503 -0.00000000000E+00 -0.00000000000E+00 -0.20347164824E+03  0.20347164824E+03  0.00000000000E+00 0.  1.
         -6    2    1    2    0  503 -0.66747069583E+02  0.70897568837E+02 -0.20350147361E+02  0.19861026203E+03  0.17190192298E+03 0.  0.
        -24    2    3    3    0    0 -0.12200301302E+02  0.10066656740E+03  0.88607328817E+01  0.12978505786E+03  0.80517349133E+02 0.  0.
          6    2    1    2  501    0  0.66747069583E+02 -0.70897568837E+02  0.96988097199E+01  0.19768169681E+03  0.17176248071E+03 0.  0.
         24    2    5    5    0    0  0.71122595249E+02 -0.10720833116E+03 -0.16496742689E+02  0.15244991980E+03  0.80104841953E+02 0.  0.
          5    1    5    5  501    0 -0.43755256662E+01  0.36310762319E+02  0.26195552409E+02  0.45231777005E+02  0.47000000000E+01 0. -1.
        -13    1    6    6    0    0 -0.14963762160E+02 -0.15800855268E+02  0.10272547820E+02  0.24064630558E+02  0.00000000000E+00 0.  1.
         14    1    6    6    0    0  0.86086357409E+02 -0.91407475889E+02 -0.26769290509E+02  0.12838528925E+03  0.00000000000E+00 0. -1.
         -5    1    3    3    0  503 -0.54546768281E+02 -0.29768998565E+02 -0.29210880243E+02  0.68825204177E+02  0.47000000000E+01 0.  1.
         13    1    4    4    0    0  0.10972283513E+02 -0.10485348072E+02 -0.34922529191E+01  0.15573354171E+02  0.00000000000E+00 0. -1.
        -14    1    4    4    0    0 -0.23172584815E+02  0.11115191547E+03  0.12352985801E+02  0.11421170369E+03  0.00000000000E+00 0.  1.
</event>
<event>
12    1  0.1593360E-001  0.1997270E+03  0.7818608E-02  0.1150266E+00
         21   -1    0    0  503  502  0.00000000000E+00  0.00000000000E+00  0.36202311196E+02  0.36202311196E+02  0.00000000000E+00 0.  1.
         21   -1    0    0  501  503 -0.00000000000E+00 -0.00000000000E+00 -0.14834556324E+04  0.14834556324E+04  0.00000000000E+00 0. -1.
          6    2    1    2  501    0  0.56942095613E+01  0.99816554714E+02 -0.11147238945E+04  0.11324752613E+04  0.17290196045E+03 0.  0.
         24    2    3    3    0    0 -0.63662708276E+02  0.71005075407E+02 -0.67475432487E+03  0.68611689007E+03  0.79801796640E+02 0.  0.
         -6    2    1    2    0  502 -0.56942095613E+01 -0.99816554714E+02 -0.33252942665E+03  0.38718268222E+03  0.17128584648E+03 0.  0.
        -24    2    5    5    0    0  0.58361693827E+02 -0.27867352103E+02 -0.17045954306E+03  0.19858633103E+03  0.78723557029E+02 0.  0.
          5    1    3    3  501    0  0.69356917837E+02  0.28811479307E+02 -0.43996956965E+03  0.44635837128E+03  0.47000000000E+01 0. -1.
        -11    1    4    4    0    0 -0.67505286718E+01 -0.17537213119E+02 -0.86157123905E+02  0.88182614391E+02  0.00000000000E+00 0.  1.
         12    1    4    4    0    0 -0.56912179604E+02  0.88542288526E+02 -0.58859720096E+03  0.59793427567E+03  0.00000000000E+00 0. -1.
         -5    1    5    5    0  502 -0.64055903388E+02 -0.71949202610E+02 -0.16206988359E+03  0.18859635119E+03  0.47000000000E+01 0.  1.
         11    1    6    6    0    0  0.48471572189E+02 -0.49763758295E+02 -0.84804682247E+02  0.10962554028E+03  0.00000000000E+00 0. -1.
        -12    1    6    6    0    0  0.98901216380E+01  0.21896406191E+02 -0.85654860812E+02  0.88960790750E+02  0.00000000000E+00 0.  1.
</event>
<event>
12    1  0.1593360E-001  0.1810775E+03  0.7818608E-02  0.1167454E+00
         21   -1    0    0  501  502  0.00000000000E+00  0.00000000000E+00  0.52892666723E+03  0.52892666723E+03  0.00000000000E+00 0.  1.
         21   -1    0    0  502  503 -0.00000000000E+00 -0.00000000000E+00 -0.61148651076E+02  0.61148651076E+02  0.00000000000E+00 0.  1.
         -6    2    1    2    0  503  0.16719100336E+02 -0.41431502325E+02  0.21852448144E+03  0.28199029080E+03  0.17253833608E+03 0.  0.
        -24    2    3    3    0    0  0.42368338025E+02 -0.90620683176E+01  0.38594714244E+02  0.97321736969E+02  0.78133036354E+02 0.  0.
          6    2    1    2  501    0 -0.16719100336E+02  0.41431502325E+02  0.24925353471E+03  0.30808502750E+03  0.17547923496E+03 0.  0.
         24    2    5    5    0    0 -0.54969131785E+02  0.26264820848E+02  0.24720090305E+03  0.26661942212E+03  0.79159228884E+02 0.  0.
          5    1    5    5  501    0  0.38250031449E+02  0.15166681477E+02  0.20526316585E+01  0.41465605381E+02  0.47000000000E+01 0. -1.
        -13    1    6    6    0    0 -0.43034083850E+02  0.10528773081E+01  0.22967973996E+03  0.23367889051E+03  0.00000000000E+00 0.  1.
         14    1    6    6    0    0 -0.11935047936E+02  0.25211943540E+02  0.17521163090E+02  0.32940531603E+02  0.00000000000E+00 0. -1.
         -5    1    3    3    0  503 -0.25649237688E+02 -0.32369434007E+02  0.17992976720E+03  0.18466855384E+03  0.47000000000E+01 0.  1.
         13    1    4    4    0    0  0.43633373121E+02  0.39635877133E+01  0.58751429812E+02  0.73289233742E+02  0.00000000000E+00 0. -1.
        -14    1    4    4    0    0 -0.12650350965E+01 -0.13025656031E+02 -0.20156715568E+02  0.24032503227E+02  0.00000000000E+00 0.  1.
</event>
<event>
12    1  0.1593360E-001  0.2443796E+03  0.7818608E-02  0.1117179E+00
         21   -1    0    0  501  502  0.00000000000E+00  0.00000000000E+00  0.12782702114E+03  0.12782702114E+03  0.00000000000E+00 0.  1.
         21   -1    0    0  502  503 -0.00000000000E+00 -0.00000000000E+00 -0.47384950561E+03  0.47384950561E+03  0.00000000000E+00 0. -1.
         -6    2    1    2    0  503 -0.15451528083E+03 -0.80564841814E+02 -0.21570618007E+03  0.32472214226E+03  0.16896641030E+03 0.  0.
        -24    2    3    3    0    0 -0.20142585806E+02 -0.24389917235E+02 -0.37305961675E+02  0.94373772953E+02  0.80709865688E+02 0.  0.
          6    2    1    2  501    0  0.15451528083E+03  0.80564841814E+02 -0.13031630440E+03  0.27695438450E+03  0.17133512819E+03 0.  0.
         24    2    5    5    0    0  0.55630737991E+02  0.18813051537E+02  0.13260274308E+02  0.91946924189E+02  0.69495986039E+02 0.  0.
          5    1    5    5  501    0  0.98884542841E+02  0.61751790277E+02 -0.14357657871E+03  0.18500746031E+03  0.47000000000E+01 0. -1.
        -13    1    6    6    0    0  0.30206811152E+02  0.13871312398E+02 -0.27845796965E+02  0.43361885986E+02  0.00000000000E+00 0.  1.
         14    1    6    6    0    0  0.25423926839E+02  0.49417391389E+01  0.41106071274E+02  0.48585038203E+02  0.00000000000E+00 0. -1.
         -5    1    3    3    0  503 -0.13437269503E+03 -0.56174924579E+02 -0.17840021839E+03  0.23034836931E+03  0.47000000000E+01 0.  1.
         13    1    4    4    0    0 -0.43033661045E+02  0.10322460466E+02 -0.12625541783E+02  0.46020142094E+02  0.00000000000E+00 0. -1.
        -14    1    4    4    0    0  0.22891075240E+02 -0.34712377700E+02 -0.24680419892E+02  0.48353630859E+02  0.00000000000E+00 0.  1.
</event>
<event>
12    1  0.1593360E-001  0.1775467E+03  0.7818608E-02  0.1170450E+00
         21   -1    0    0  501  502  0.00000000000E+00  0.00000000000E+00  0.22836320507E+03  0.22836320507E+03  0.00000000000E+00 0.  1.
         21   -1    0    0  502  503 -0.00000000000E+00 -0.00000000000E+00 -0.16050295722E+03  0.16050295722E+03  0.00000000000E+00 0.  1.
         -6    2    1    2    0  503 -0.21856374444E+02 -0.32394252072E+02 -0.39995090848E+02  0.18199575715E+03  0.17319283951E+03 0.  0.
        -24    2    3    3    0    0  0.43984048200E+02 -0.24983673702E+02 -0.60856242562E+02  0.11237424053E+03  0.79785382299E+02 0.  0.
          6    2    1    2  501    0  0.21856374444E+02  0.32394252072E+02  0.10785533869E+03  0.20687040513E+03  0.17214964933E+03 0.  0.
         24    2    5    5    0    0 -0.17559189041E+02 -0.26820460962E+02  0.10450346760E+03  0.13550308821E+03  0.80077774253E+02 0.  0.
          5    1    5    5  501    0  0.39415563485E+02  0.59214713034E+02  0.33518710957E+01  0.71367316920E+02  0.47000000000E+01 0. -1.
        -13    1    6    6    0    0 -0.28952219510E+02  0.50371990996E+01  0.96306996078E+02  0.10069082323E+03  0.00000000000E+00 0.  1.
         14    1    6    6    0    0  0.11393030469E+02 -0.31857660061E+02  0.81964715200E+01  0.34812264983E+02  0.00000000000E+00 0. -1.
         -5    1    3    3    0  503 -0.65840422644E+02 -0.74105783695E+01  0.20861151714E+02  0.69621516621E+02  0.47000000000E+01 0.  1.
         13    1    4    4    0    0  0.17942706015E+02 -0.15061767855E+02  0.17479726603E+02  0.29229067590E+02  0.00000000000E+00 0. -1.
        -14    1    4    4    0    0  0.26041342185E+02 -0.99219058472E+01 -0.78335969165E+02  0.83145172941E+02  0.00000000000E+00 0.  1.
</event>
<event>
12    1  0.1593360E-001  0.1988983E+03  0.7818608E-02  0.1151509E+00
         21   -1    0    0  501  502  0.00000000000E+00  0.00000000000E+00  0.14667795176E+03  0.14667795176E+03  0.00000000000E+00 0.  1.
         21   -1    0    0  502  503 -0.00000000000E+00 -0.00000000000E+00 -0.27632684030E+03  0.27632684030E+03  0.00000000000E+00 0.  1.
         -6    2    1    2    0  503 -0.32158823203E+01  0.99907597247E+02 -0.20366963955E+02  0.19606187527E+03  0.16743230222E+03 0.  0.
        -24    2    3    3    0    0 -0.72769358722E+02  0.76845062315E+02 -0.11112786739E+02  0.12205311638E+03  0.59773957682E+02 0.  0.
          6    2    1    2  501    0  0.32158823203E+01 -0.99907597247E+02 -0.10928192458E+03  0.22694291680E+03  0.17195545515E+03 0.  0.
         24    2    5    5    0    0  0.25428659153E+02 -0.13071192579E+03 -0.64334845221E+02  0.16791204305E+03  0.79518913742E+02 0.  0.
          5    1    5    5  501    0 -0.22212776832E+02  0.30804328545E+02 -0.44947079362E+02  0.59030873743E+02  0.47000000000E+01 0. -1.
        -13    1    6    6    0    0 -0.27772102021E+02 -0.28392400233E+02 -0.14493698588E+02  0.42278662945E+02  0.00000000000E+00 0.  1.
         14    1    6    6    0    0  0.53200761174E+02 -0.10231952556E+03 -0.49841146633E+02  0.12563338011E+03  0.00000000000E+00 0. -1.
         -5    1    3    3    0  503  0.69553476401E+02  0.23062534931E+02 -0.92541772154E+01  0.74008758893E+02  0.47000000000E+01 0.  1.
         13    1    4    4    0    0 -0.32448392020E+02  0.73535139012E+02 -0.13606941589E+02  0.81519713405E+02  0.00000000000E+00 0. -1.
        -14    1    4    4    0    0 -0.40320966701E+02  0.33099233035E+01  0.24941548494E+01  0.40533402971E+02  0.00000000000E+00 0.  1.
</event>
<event>
12    1  0.1593360E-001  0.2305038E+03  0.7818608E-02  0.1129354E+00
         21   -1    0    0  501  502  0.00000000000E+00  0.00000000000E+00  0.49544953405E+03  0.49544953405E+03  0.00000000000E+00 0.  1.
         21   -1    0    0  502  503 -0.00000000000E+00 -0.00000000000E+00 -0.13389612004E+03  0.13389612004E+03  0.00000000000E+00 0.  1.
         -6    2    1    2    0  503  0.51390542172E+02 -0.11650904305E+03  0.26614503767E+02  0.23203517577E+03  0.19213705017E+03 0.  0.
        -24    2    3    3    0    0 -0.44283587200E+02 -0.49634206098E+02 -0.29116981822E+02  0.10259842931E+03  0.72484816041E+02 0.  0.
          6    2    1    2  501    0 -0.51390542172E+02  0.11650904305E+03  0.33493891024E+03  0.39731047832E+03  0.17162807944E+03 0.  0.
         24    2    5    5    0    0 -0.55989448816E+02  0.11222695317E+03  0.34880233238E+03  0.38138029598E+03  0.89767230599E+02 0.  0.
          5    1    5    5  501    0  0.45989066438E+01  0.42820898781E+01 -0.13863422140E+02  0.15930182342E+02  0.47000000000E+01 0. -1.
        -11    1    6    6    0    0 -0.23371615837E+02  0.33178686470E+02  0.27823599379E+02  0.49205795849E+02  0.00000000000E+00 0.  1.
         12    1    6    6    0    0 -0.32617832979E+02  0.79048266699E+02  0.32097873300E+03  0.33217450013E+03  0.00000000000E+00 0. -1.
         -5    1    3    3    0  503  0.95674129372E+02 -0.66874836949E+02  0.55731485589E+02  0.12943674646E+03  0.47000000000E+01 0.  1.
         13    1    4    4    0    0 -0.20711101919E+02 -0.34131036656E+02  0.20982056127E+02  0.45101264785E+02  0.00000000000E+00 0. -1.
        -14    1    4    4    0    0 -0.23572485281E+02 -0.15503169442E+02 -0.50099037950E+02  0.57497164526E+02  0.00000000000E+00 0.  1.
</event>
<event>
12    1  0.1593360E-001  0.2164832E+03  0.7818608E-02  0.1136651E+00
         21   -1    0    0  501  502  0.00000000000E+00  0.00000000000E+00  0.16799546151E+03  0.16799546151E+03  0.00000000000E+00 0. -1.
         21   -1    0    0  502  503 -0.00000000000E+00 -0.00000000000E+00 -0.27842979725E+03  0.27842979725E+03  0.00000000000E+00 0.  1.
         -6    2    1    2    0  503 -0.12407313173E+03 -0.42824682700E+02 -0.62152179414E+02  0.22522851871E+03  0.17215370100E+03 0.  0.
        -24    2    3    3    0    0 -0.73191164989E+02  0.32568880095E+02  0.10321483887E+01  0.11437946310E+03  0.81632822228E+02 0.  0.
          6    2    1    2  501    0  0.12407313173E+03  0.42824682700E+02 -0.48282156323E+02  0.22119674005E+03  0.17137308927E+03 0.  0.
         24    2    5    5    0    0  0.15100757142E+03  0.51547984996E+02 -0.63142805804E+02  0.18887818583E+03  0.78914344534E+02 0.  0.
          5    1    5    5  501    0 -0.26934439691E+02 -0.87233022960E+01  0.14860649481E+02  0.32318554228E+02  0.47000000000E+01 0. -1.
        -11    1    6    6    0    0  0.26028724186E+02 -0.44391766777E+01 -0.42998040688E+02  0.50458223070E+02  0.00000000000E+00 0.  1.
         12    1    6    6    0    0  0.12497884723E+03  0.55987161674E+02 -0.20144765116E+02  0.13841996276E+03  0.00000000000E+00 0. -1.
         -5    1    3    3    0  503 -0.50881966738E+02 -0.75393562795E+02 -0.63184327803E+02  0.11084905561E+03  0.47000000000E+01 0.  1.
         11    1    4    4    0    0 -0.83494281283E+02  0.36332793655E+02 -0.17615173815E+02  0.92745141383E+02  0.00000000000E+00 0. -1.
        -12    1    4    4    0    0  0.10303116294E+02 -0.37639135598E+01  0.18647322203E+02  0.21634321714E+02  0.00000000000E+00 0.  1.
</event>
<event>
12    1  0.1593360E-001  0.1971308E+03  0.7818608E-02  0.1152474E+00
         21   -1    0    0  503  502  0.00000000000E+00  0.00000000000E+00  0.10640300976E+04  0.10640300976E+04  0.00000000000E+00 0. -1.
         21   -1    0    0  501  503 -0.00000000000E+00 -0.00000000000E+00 -0.47436685962E+02  0.47436685962E+02  0.00000000000E+00 0. -1.
          6    2    1    2  501    0  0.42558497998E+02  0.85160520089E+02  0.24003148085E+03  0.31060530017E+03  0.17261807773E+03 0.  0.
         24    2    3    3    0    0 -0.23195421903E+02  0.49413941781E-01  0.14738049934E+03  0.16857089326E+03  0.78467218816E+02 0.  0.
         -6    2    1    2    0  502 -0.42558497998E+02 -0.85160520089E+02  0.77656193082E+03  0.80086148342E+03  0.17107642532E+03 0.  0.
        -24    2    5    5    0    0 -0.89859992926E+02 -0.83638243429E+02  0.54837465680E+03  0.56777079126E+03  0.81109389686E+02 0.  0.
          5    1    3    3  501    0  0.65753919902E+02  0.85111106148E+02  0.92650981504E+02  0.14203440691E+03  0.47000000000E+01 0. -1.
        -11    1    4    4    0    0  0.19225244856E+02 -0.93096173917E+01  0.83889484686E+01  0.22948931831E+02  0.00000000000E+00 0.  1.
         12    1    4    4    0    0 -0.42420666760E+02  0.93590313334E+01  0.13899155088E+03  0.14562196143E+03  0.00000000000E+00 0. -1.
         -5    1    5    5    0  502  0.47301494928E+02 -0.15222766603E+01  0.22818727402E+03  0.23309069217E+03  0.47000000000E+01 0.  1.
         11    1    6    6    0    0  0.69022324119E+01 -0.34507813023E+02  0.19350222857E+03  0.19667623759E+03  0.00000000000E+00 0. -1.
        -12    1    6    6    0    0 -0.96762225338E+02 -0.49130430406E+02  0.35487242823E+03  0.37109455367E+03  0.00000000000E+00 0.  1.
</event>
<event>
12    1  0.1593360E-001  0.1986949E+03  0.7818608E-02  0.1151816E+00
         21   -1    0    0  501  502  0.00000000000E+00  0.00000000000E+00  0.24994202241E+03  0.24994202241E+03  0.00000000000E+00 0.  1.
         21   -1    0    0  502  503 -0.00000000000E+00 -0.00000000000E+00 -0.25703027269E+03  0.25703027269E+03  0.00000000000E+00 0. -1.
         -6    2    1    2    0  503 -0.43132145746E+02  0.78176422835E+02 -0.16369621419E+03  0.25397878306E+03  0.17244372016E+03 0.  0.
        -24    2    3    3    0    0  0.23455733064E+02  0.82674134231E+02 -0.14022323518E+03  0.18307571010E+03  0.80429945035E+02 0.  0.
          6    2    1    2  501    0  0.43132145746E+02 -0.78176422835E+02  0.15660796391E+03  0.25299351204E+03  0.17750416247E+03 0.  0.
         24    2    5    5    0    0 -0.15501042898E+02  0.17814048852E+02  0.90378287533E+02  0.12237773391E+03  0.79059801616E+02 0.  0.
          5    1    5    5  501    0  0.58633188644E+02 -0.95990471687E+02  0.66229676374E+02  0.13061577813E+03  0.47000000000E+01 0. -1.
        -11    1    6    6    0    0  0.14197323816E+02  0.27505661457E+02  0.85281218263E+02  0.90724922729E+02  0.00000000000E+00 0.  1.
         12    1    6    6    0    0 -0.29698366714E+02 -0.96916126045E+01  0.50970692693E+01  0.31652811178E+02  0.00000000000E+00 0. -1.
         -5    1    3    3    0  503 -0.66587878811E+02 -0.44977113962E+01 -0.23472979010E+02  0.70903072965E+02  0.47000000000E+01 0.  1.
         13    1    4    4    0    0  0.14532597932E+02 -0.69564655705E+01 -0.61088678468E+02  0.63177649947E+02  0.00000000000E+00 0. -1.
        -14    1    4    4    0    0  0.89231351325E+01  0.89630599801E+02 -0.79134556712E+02  0.11989806015E+03  0.00000000000E+00 0.  1.
</event>
<event>
12    1  0.1593360E-001  0.1967584E+03  0.7818608E-02  0.1154178E+00
         21   -1    0    0  503  502  0.00000000000E+00  0.00000000000E+00  0.42137776055E+03  0.42137776055E+03  0.00000000000E+00 0. -1.
         21   -1    0    0  501  503 -0.00000000000E+00 -0.00000000000E+00 -0.88653097790E+02  0.88653097790E+02  0.00000000000E+00 0. -1.
          6    2    1    2  501    0 -0.69918693096E+02  0.60647860681E+02  0.17789702880E+03  0.25966016967E+03  0.16495230889E+03 0.  0.
         24    2    3    3    0    0 -0.16362738879E+02  0.20658471654E+02  0.17372099907E+03  0.19252656638E+03  0.78695499031E+02 0.  0.
         -6    2    1    2    0  502  0.69918693096E+02 -0.60647860681E+02  0.15482763396E+03  0.25037068867E+03  0.17362919932E+03 0.  0.
        -24    2    5    5    0    0  0.79574172971E+02 -0.63791196985E+02  0.37219994282E+02  0.13223197459E+03  0.75489080744E+02 0.  0.
          5    1    3    3  501    0 -0.53555954218E+02  0.39989389028E+02  0.41760297285E+01  0.67133603294E+02  0.47000000000E+01 0. -1.
        -11    1    4    4    0    0  0.23071583154E+01  0.48954591179E+02  0.10685489956E+03  0.11755783486E+03  0.00000000000E+00 0.  1.
         12    1    4    4    0    0 -0.18669897194E+02 -0.28296119525E+02  0.66866099517E+02  0.74968731522E+02  0.00000000000E+00 0. -1.
         -5    1    5    5    0  502 -0.96554798749E+01  0.31433363032E+01  0.11760763968E+03  0.11813871409E+03  0.47000000000E+01 0.  1.
         11    1    6    6    0    0  0.14965941641E+02 -0.43328515603E+02  0.44727689255E+02  0.64046122909E+02  0.00000000000E+00 0. -1.
        -12    1    6    6    0    0  0.64608231331E+02 -0.20462681381E+02 -0.75076949736E+01  0.68185851676E+02  0.00000000000E+00 0.  1.
</event>
<event>
12    1  0.1593360E-001  0.1794919E+03  0.7818608E-02  0.1168711E+00
         21   -1    0    0  501  502  0.00000000000E+00  0.00000000000E+00  0.22037573190E+04  0.22037573190E+04  0.00000000000E+00 0.  1.
         21   -1    0    0  502  503 -0.00000000000E+00 -0.00000000000E+00 -0.38216142041E+02  0.38216142041E+02  0.00000000000E+00 0. -1.
         -6    2    1    2    0  503  0.29522473133E+02  0.39012347362E+02  0.20129717254E+03  0.26969965087E+03  0.17269571605E+03 0.  0.
        -24    2    3    3    0    0 -0.65033767724E+01  0.18555287958E+02  0.21143152599E+03  0.22679104730E+03  0.79651091229E+02 0.  0.
          6    2    1    2  501    0 -0.29522473133E+02 -0.39012347362E+02  0.19642440044E+04  0.19722738101E+04  0.17092669105E+03 0.  0.
         24    2    5    5    0    0 -0.37731371490E+02 -0.37672300527E+02  0.19590714118E+04  0.19614097661E+04  0.79527452203E+02 0.  0.
          5    1    5    5  501    0  0.82088983568E+01 -0.13400468346E+01  0.51725926228E+01  0.10864044007E+02  0.47000000000E+01 0. -1.
        -13    1    6    6    0    0 -0.51648981154E+02  0.28401568477E+01  0.12224212884E+04  0.12235152186E+04  0.00000000000E+00 0.  1.
         14    1    6    6    0    0  0.13917609665E+02 -0.40512457375E+02  0.73665012335E+03  0.73789454755E+03  0.00000000000E+00 0. -1.
         -5    1    3    3    0  503  0.36025849905E+02  0.20457059404E+02 -0.10134353445E+02  0.42908603573E+02  0.47000000000E+01 0.  1.
         11    1    4    4    0    0 -0.89149125034E+00  0.31745346588E+02  0.26660876506E+02  0.41465215816E+02  0.00000000000E+00 0. -1.
        -12    1    4    4    0    0 -0.56118855220E+01 -0.13190058630E+02  0.18477064948E+03  0.18532583148E+03  0.00000000000E+00 0.  1.
</event>
<event>
12    1  0.1593360E-001  0.2144596E+03  0.7818608E-02  0.1138278E+00
         21   -1    0    0  501  502  0.00000000000E+00  0.00000000000E+00  0.38346579244E+03  0.38346579244E+03  0.00000000000E+00 0.  1.
         21   -1    0    0  502  503 -0.00000000000E+00 -0.00000000000E+00 -0.11937632914E+03  0.11937632914E+03  0.00000000000E+00 0.  1.
         -6    2    1    2    0  503  0.95543002072E+01 -0.12692957768E+03  0.13350653912E+03  0.25262006313E+03  0.17259924092E+03 0.  0.
        -24    2    3    3    0    0  0.17742250526E+02 -0.53841712125E+02  0.14866571417E+03  0.17738197962E+03  0.78416546131E+02 0.  0.
          6    2    1    2  501    0 -0.95543002072E+01  0.12692957768E+03  0.13058292418E+03  0.25022205845E+03  0.17133819219E+03 0.  0.
         24    2    5    5    0    0  0.53689729011E+02  0.65553574096E+02  0.37313565762E+02  0.12181612296E+03  0.79164433593E+02 0.  0.
          5    1    5    5  501    0 -0.63244029218E+02  0.61376003581E+02  0.93269358416E+02  0.12840593548E+03  0.47000000000E+01 0. -1.
        -11    1    6    6    0    0 -0.11576691836E+01  0.14649988820E+02  0.44288073890E+02  0.46662574503E+02  0.00000000000E+00 0.  1.
         12    1    6    6    0    0  0.54847398195E+02  0.50903585276E+02 -0.69745081278E+01  0.75153548461E+02  0.00000000000E+00 0. -1.
         -5    1    3    3    0  503 -0.81879503185E+01 -0.73087865553E+02 -0.15159175047E+02  0.75238083506E+02  0.47000000000E+01 0.  1.
         11    1    4    4    0    0  0.86481589548E+01  0.20108695142E+02  0.27605578832E+02  0.35230927554E+02  0.00000000000E+00 0. -1.
        -12    1    4    4    0    0  0.90940915709E+01 -0.73950407267E+02  0.12106013534E+03  0.14215105207E+03  0.00000000000E+00 0.  1.
</event>
<event>
12    1  0.1593360E-001  0.1845471E+03  0.7818608E-02  0.1164037E+00
         21   -1    0    0  501  502  0.00000000000E+00  0.00000000000E+00  0.28098428303E+03  0.28098428303E+03  0.00000000000E+00 0. -1.
         21   -1    0    0  502  503 -0.00000000000E+00 -0.00000000000E+00 -0.21145370445E+03  0.21145370445E+03  0.00000000000E+00 0. -1.
         -6    2    1    2    0  503 -0.47716231017E+02 -0.36912129700E+02 -0.12734421083E+03  0.22421902850E+03  0.17440837333E+03 0.  0.
        -24    2    3    3    0    0 -0.76250265046E+02 -0.23902209906E+02 -0.14779653397E+03  0.18648526864E+03  0.80916756035E+02 0.  0.
          6    2    1    2  501    0  0.47716231017E+02  0.36912129700E+02  0.19687478941E+03  0.26821895898E+03  0.17187897845E+03 0.  0.
         24    2    5    5    0    0  0.79962048127E+02  0.69871761030E+01  0.63522681612E+02  0.12771924289E+03  0.76382747751E+02 0.  0.
          5    1    5    5  501    0 -0.32245817109E+02  0.29924953597E+02  0.13335210780E+03  0.14049971610E+03  0.47000000000E+01 0. -1.
        -11    1    6    6    0    0 -0.88657311418E-01 -0.87175583813E+01 -0.13142713568E+02  0.15771322208E+02  0.00000000000E+00 0.  1.
         12    1    6    6    0    0  0.80050705438E+02  0.15704734484E+02  0.76665395179E+02  0.11194792068E+03  0.00000000000E+00 0. -1.
         -5    1    3    3    0  503  0.28534034029E+02 -0.13009919794E+02  0.20452323147E+02  0.37733759859E+02  0.47000000000E+01 0.  1.
         11    1    4    4    0    0 -0.11657997564E+02  0.15324141311E+01 -0.10343647557E+03  0.10410264972E+03  0.00000000000E+00 0. -1.
        -12    1    4    4    0    0 -0.64592267482E+02 -0.25434624037E+02 -0.44360058400E+02  0.82382618917E+02  0.00000000000E+00 0.  1.
</event>
<event>
12    1  0.1593360E-001  0.1886187E+03  0.7818608E-02  0.1160121E+00
         21   -1    0    0  503  502  0.00000000000E+00  0.00000000000E+00  0.13424792287E+03  0.13424792287E+03  0.00000000000E+00 0. -1.
         21   -1    0    0  501  503 -0.00000000000E+00 -0.00000000000E+00 -0.61342197094E+03  0.61342197094E+03  0.00000000000E+00 0. -1.
          6    2    1    2  501    0  0.17069819290E+02  0.70718267676E+02 -0.52184578076E+03  0.55428459817E+03  0.17209283762E+03 0.  0.
         24    2    3    3    0    0 -0.14413763879E+02  0.10086617937E+03 -0.27658559010E+03  0.30513652229E+03  0.78911126332E+02 0.  0.
         -6    2    1    2    0  502 -0.17069819290E+02 -0.70718267676E+02  0.42671732684E+02  0.19338529564E+03  0.17402454909E+03 0.  0.
        -24    2    5    5    0    0 -0.74957092478E+02 -0.21509052892E+02  0.29192567202E+02  0.11607901440E+03  0.80875994798E+02 0.  0.
          5    1    3    3  501    0  0.31483583169E+02 -0.30147911695E+02 -0.24526019067E+03  0.24914807588E+03  0.47000000000E+01 0. -1.
        -13    1    4    4    0    0 -0.26569324040E+02  0.75033184485E+02 -0.10807289124E+03  0.13422241830E+03  0.00000000000E+00 0.  1.
         14    1    4    4    0    0  0.12155560161E+02  0.25832994886E+02 -0.16851269886E+03  0.17091410399E+03  0.00000000000E+00 0. -1.
         -5    1    5    5    0  502  0.57887273188E+02 -0.49209214785E+02  0.13479165482E+02  0.77306281239E+02  0.47000000000E+01 0.  1.
         11    1    6    6    0    0 -0.28859100054E+02 -0.39582276734E+02  0.42450864470E+02  0.64820368571E+02  0.00000000000E+00 0. -1.
        -12    1    6    6    0    0 -0.46097992424E+02  0.18073223843E+02 -0.13258297268E+02  0.51258645827E+02  0.00000000000E+00 0.  1.
</event>
<event>
12    1  0.1593360E-001  0.1947385E+03  0.7818608E-02  0.1154883E+00
         21   -1    0    0  501  502  0.00000000000E+00  0.00000000000E+00  0.19872730134E+04  0.19872730134E+04  0.00000000000E+00 0. -1.
         21   -1    0    0  502  503 -0.00000000000E+00 -0.00000000000E+00 -0.36563208284E+02  0.36563208284E+02  0.00000000000E+00 0. -1.
         -6    2    1    2    0  503 -0.82742057113E+02  0.23463561228E+02  0.27384057107E+03  0.33602344308E+03  0.17471779880E+03 0.  0.
        -24    2    3    3    0    0 -0.39333200191E+02  0.82171060023E+02  0.18218827244E+03  0.21874969019E+03  0.79747580525E+02 0.  0.
          6    2    1    2  501    0  0.82742057113E+02 -0.23463561228E+02  0.16768692341E+04  0.16878127786E+04  0.17153647076E+03 0.  0.
         24    2    5    5    0    0  0.19269936271E+02  0.35475326778E+02  0.11656127310E+04  0.11692495669E+04  0.82835268626E+02 0.  0.
          5    1    5    5  501    0  0.63472120842E+02 -0.58938888006E+02  0.51125650303E+03  0.51856321171E+03  0.47000000000E+01 0. -1.
        -13    1    6    6    0    0 -0.38812396322E+01 -0.12824124324E+01  0.15423729740E+01  0.43689263120E+01  0.00000000000E+00 0.  1.
         14    1    6    6    0    0  0.23151175903E+02  0.36757739210E+02  0.11640703581E+04  0.11648806406E+04  0.00000000000E+00 0. -1.
         -5    1    3    3    0  503 -0.43408856922E+02 -0.58707498795E+02  0.91652298628E+02  0.11727375289E+03  0.47000000000E+01 0.  1.
         11    1    4    4    0    0  0.19545099074E+02  0.50640059123E+02  0.82465173454E+02  0.98726548195E+02  0.00000000000E+00 0. -1.
        -12    1    4    4    0    0 -0.58878299265E+02  0.31531000900E+02  0.99723098989E+02  0.12002314199E+03  0.00000000000E+00 0.  1.
</event>
<event>
12    1  0.1593360E-001  0.4549402E+03  0.7818608E-02  0.1026315E+00
         21   -1    0    0  503  502  0.00000000000E+00  0.00000000000E+00  0.10161886917E+04  0.10161886917E+04  0.00000000000E+00 0.  1.
         21   -1    0    0  501  503 -0.00000000000E+00 -0.00000000000E+00 -0.20804049550E+03  0.20804049550E+03  0.00000000000E+00 0. -1.
          6    2    1    2  501    0  0.41682325779E+03 -0.53343910647E+02  0.31232096708E+03  0.55182878494E+03  0.17430840593E+03 0.  0.
         24    2    3    3    0    0  0.86405352474E+02 -0.32967445950E+02  0.68223315108E+02  0.14049322100E+03  0.80815759563E+02 0.  0.
         -6    2    1    2    0  502 -0.41682325779E+03  0.53343910647E+02  0.49582722912E+03  0.67240040226E+03  0.17230919529E+03 0.  0.
        -24    2    5    5    0    0 -0.30107627391E+03  0.25969287514E+02  0.44328487410E+03  0.54228690050E+03  0.79071336425E+02 0.  0.
          5    1    3    3  501    0  0.33041790531E+03 -0.20376464697E+02  0.24409765197E+03  0.41133556394E+03  0.47000000000E+01 0. -1.
        -11    1    4    4    0    0  0.92896857400E+02 -0.27593607596E+02  0.80239986076E+02  0.12581609063E+03  0.00000000000E+00 0.  1.
         12    1    4    4    0    0 -0.64915049263E+01 -0.53738383545E+01 -0.12016670967E+02  0.14677130373E+02  0.00000000000E+00 0. -1.
         -5    1    5    5    0  502 -0.11574698387E+03  0.27374623132E+02  0.52542355021E+02  0.13011350176E+03  0.47000000000E+01 0.  1.
         13    1    6    6    0    0 -0.13477671553E+03 -0.10186201638E+02  0.14054141715E+03  0.19498823474E+03  0.00000000000E+00 0. -1.
        -14    1    6    6    0    0 -0.16629955838E+03  0.36155489153E+02  0.30274345695E+03  0.34729866576E+03  0.00000000000E+00 0.  1.
</event>
<event>
12    1  0.1593360E-001  0.1724882E+03  0.7818608E-02  0.1180043E+00
         21   -1    0    0  503  502  0.00000000000E+00  0.00000000000E+00  0.22258584341E+03  0.22258584341E+03  0.00000000000E+00 0. -1.
         21   -1    0    0  501  503 -0.00000000000E+00 -0.00000000000E+00 -0.86320862382E+03  0.86320862382E+03  0.00000000000E+00 0. -1.
          6    2    1    2  501    0  0.12239393779E+02  0.28289384141E+01 -0.82622987730E+03  0.84404265522E+03  0.17203019510E+03 0.  0.
         24    2    3    3    0    0 -0.34958185215E+02 -0.13707794037E+02 -0.73345368446E+03  0.73854105835E+03  0.77965436519E+02 0.  0.
         -6    2    1    2    0  502 -0.12239393779E+02 -0.28289384141E+01  0.18560709690E+03  0.24175181201E+03  0.15438956745E+03 0.  0.
        -24    2    5    5    0    0 -0.91718477139E+01 -0.46428884611E+02  0.17179368281E+03  0.19567290625E+03  0.80839672629E+02 0.  0.
          5    1    3    3  501    0  0.47197578994E+02  0.16536732451E+02 -0.92776192843E+02  0.10550159687E+03  0.47000000000E+01 0. -1.
        -11    1    4    4    0    0 -0.15557391900E+02 -0.20437811853E+02 -0.66751746668E+02  0.71522949319E+02  0.00000000000E+00 0.  1.
         12    1    4    4    0    0 -0.19400793315E+02  0.67300178165E+01 -0.66670193779E+03  0.66701810903E+03  0.00000000000E+00 0. -1.
         -5    1    5    5    0  502 -0.30675460653E+01  0.43599946197E+02  0.13813414096E+02  0.46078905762E+02  0.47000000000E+01 0.  1.
         11    1    6    6    0    0  0.24390976850E+02 -0.43134348405E+02  0.14295452013E+03  0.15129932779E+03  0.00000000000E+00 0. -1.
        -12    1    6    6    0    0 -0.33562824563E+02 -0.32945362060E+01  0.28839162681E+02  0.44373578463E+02  0.00000000000E+00 0.  1.
</event>
<event>
12    1  0.1593360E-001  0.1902951E+03  0.7818608E-02  0.1158408E+00
         21   -1    0    0  503  502  0.00000000000E+00  0.00000000000E+00  0.11278852141E+04  0.11278852141E+04  0.00000000000E+00 0. -1.
         21   -1    0    0  501  503 -0.00000000000E+00 -0.00000000000E+00 -0.37643611327E+02  0.37643611327E+02  0.00000000000E+00 0. -1.
          6    2    1    2  501    0 -0.80008038979E+02 -0.98965489905E+01  0.31728713279E+03  0.36949438267E+03  0.17133518672E+03 0.  0.
         24    2    3    3    0    0 -0.17797369002E+02 -0.62189505406E+02  0.20806284234E+03  0.23327119678E+03  0.83312807890E+02 0.  0.
         -6    2    1    2    0  502  0.80008038979E+02  0.98965489905E+01  0.77295446994E+03  0.79603444271E+03  0.17237457296E+03 0.  0.
        -24    2    5    5    0    0  0.10016269567E+03  0.22289203218E+01  0.76044499365E+03  0.77066556981E+03  0.74908600456E+02 0.  0.
          5    1    3    3  501    0 -0.62210669977E+02  0.52292956416E+02  0.10922429045E+03  0.13622318589E+03  0.47000000000E+01 0. -1.
        -13    1    4    4    0    0  0.31901813288E+02 -0.12905684514E+02  0.53689208780E+02  0.63771573003E+02  0.00000000000E+00 0.  1.
         14    1    4    4    0    0 -0.49699182290E+02 -0.49283820892E+02  0.15437363356E+03  0.16949962378E+03  0.00000000000E+00 0. -1.
         -5    1    5    5    0  502 -0.20154656687E+02  0.76676286686E+01  0.12509476282E+02  0.25368872904E+02  0.47000000000E+01 0.  1.
         11    1    6    6    0    0  0.10313427974E+03  0.15077951690E+02  0.54881398425E+03  0.55862403600E+03  0.00000000000E+00 0. -1.
        -12    1    6    6    0    0 -0.29715840735E+01 -0.12849031368E+02  0.21163100941E+03  0.21204153381E+03  0.00000000000E+00 0.  1.
</event>
<event>
12    1  0.1593360E-001  0.1825309E+03  0.7818608E-02  0.1165876E+00
         21   -1    0    0  503  502  0.00000000000E+00  0.00000000000E+00  0.14208469486E+03  0.14208469486E+03  0.00000000000E+00 0.  1.
         21   -1    0    0  501  503 -0.00000000000E+00 -0.00000000000E+00 -0.96376206601E+03  0.96376206601E+03  0.00000000000E+00 0.  1.
          6    2    1    2  501    0 -0.11981648967E+02  0.57443027595E+02 -0.89212774569E+03  0.91019202081E+03  0.17062924366E+03 0.  0.
         24    2    3    3    0    0 -0.58669168158E+02  0.53010076516E+02 -0.38236960364E+03  0.39825957518E+03  0.78434915263E+02 0.  0.
         -6    2    1    2    0  502  0.11981648967E+02 -0.57443027595E+02  0.70450374534E+02  0.19565474006E+03  0.17284172154E+03 0.  0.
        -24    2    5    5    0    0  0.33265118749E+02  0.15815644877E+02  0.79770500105E+02  0.11865620814E+03  0.79744970335E+02 0.  0.
          5    1    3    3  501    0  0.46687519191E+02  0.44329510789E+01 -0.50975814204E+03  0.51193244563E+03  0.47000000000E+01 0. -1.
        -11    1    4    4    0    0  0.10456922160E+01  0.51591428685E+02 -0.17189235390E+03  0.17947075058E+03  0.00000000000E+00 0.  1.
         12    1    4    4    0    0 -0.59714860374E+02  0.14186478316E+01 -0.21047724974E+03  0.21878882460E+03  0.00000000000E+00 0. -1.
         -5    1    5    5    0  502 -0.21283469782E+02 -0.73258672472E+02 -0.93201255714E+01  0.76998531928E+02  0.47000000000E+01 0.  1.
         13    1    6    6    0    0 -0.26066698861E+02  0.96337877208E+01  0.20228562556E+02  0.34372625713E+02  0.00000000000E+00 0. -1.
        -14    1    6    6    0    0  0.59331817610E+02  0.61818571566E+01  0.59541937550E+02  0.84283582422E+02  0.00000000000E+00 0.  1.
</event>
<event>
12    1  0.1593360E-001  0.3182046E+03  0.7818608E-02  0.1076486E+00
         21   -1    0    0  503  502  0.00000000000E+00  0.00000000000E+00  0.48737655796E+03  0.48737655796E+03  0.00000000000E+00 0. -1.
         21   -1    0    0  501  503 -0.00000000000E+00 -0.00000000000E+00 -0.22622743740E+03  0.22622743740E+03  0.00000000000E+00 0.  1.
          6    2    1    2  501    0  0.17769704990E+03  0.19989273326E+03  0.28492533872E+02  0.31941714212E+03  0.17228505403E+03 0.  0.
         24    2    3    3    0    0  0.10180987130E+03  0.34249607569E+02 -0.56748221079E+01  0.13398249817E+03  0.79880039410E+02 0.  0.
         -6    2    1    2    0  502 -0.17769704990E+03 -0.19989273326E+03  0.23265658668E+03  0.39418685323E+03  0.17239733635E+03 0.  0.
        -24    2    5    5    0    0 -0.18942414424E+03 -0.13581088304E+03  0.14520468146E+03  0.28503588440E+03  0.76386867376E+02 0.  0.
          5    1    3    3  501    0  0.75887178599E+02  0.16564312569E+03  0.34167355979E+02  0.18543464396E+03  0.47000000000E+01 0. -1.
        -13    1    4    4    0    0  0.24862811056E+02  0.19293381601E+02 -0.37871556938E+02  0.49240722701E+02  0.00000000000E+00 0.  1.
         14    1    4    4    0    0  0.76947060244E+02  0.14956225968E+02  0.32196734830E+02  0.84741775465E+02  0.00000000000E+00 0. -1.
         -5    1    5    5    0  502  0.11727094338E+02 -0.64081850220E+02  0.87451905225E+02  0.10915096883E+03  0.47000000000E+01 0.  1.
         13    1    6    6    0    0  0.47208130415E+01  0.33046558918E+01  0.51385834970E+00  0.57854020378E+01  0.00000000000E+00 0. -1.
        -14    1    6    6    0    0 -0.19414495728E+03 -0.13911553893E+03  0.14469082311E+03  0.27925048237E+03  0.00000000000E+00 0.  1.
</event>
<event>
12    1  0.1593360E-001  0.1902519E+03  0.7818608E-02  0.1158369E+00
         21   -1    0    0  501  502  0.00000000000E+00  0.00000000000E+00  0.38882505796E+03  0.38882505796E+03  0.00000000000E+00 0. -1.
         21   -1    0    0  502  503 -0.00000000000E+00 -0.00000000000E+00 -0.17568000464E+03  0.17568000464E+03  0.00000000000E+00 0. -1.
         -6    2    1    2    0  503 -0.47201564152E+02 -0.63091758325E+02 -0.87384188602E+02  0.20881756898E+03  0.17251151576E+03 0.  0.
        -24    2    3    3    0    0  0.37114315207E+01 -0.98410144671E+02 -0.71707280924E+02  0.14472874798E+03  0.78141826552E+02 0.  0.
          6    2    1    2  501    0  0.47201564152E+02  0.63091758325E+02  0.30052924193E+03  0.35568749362E+03  0.17316815595E+03 0.  0.
         24    2    5    5    0    0  0.46876325783E+02 -0.29191053925E+02  0.16979614397E+03  0.19559546971E+03  0.79858310251E+02 0.  0.
          5    1    5    5  501    0  0.32523836911E+00  0.92282812251E+02  0.13073309796E+03  0.16009202391E+03  0.47000000000E+01 0. -1.
        -13    1    6    6    0    0  0.50594386564E+02 -0.36805796572E+02  0.17486524080E+03  0.18572105711E+03  0.00000000000E+00 0.  1.
         14    1    6    6    0    0 -0.37180607810E+01  0.76147426466E+01 -0.50690968316E+01  0.98744126019E+01  0.00000000000E+00 0. -1.
         -5    1    3    3    0  503 -0.50912995673E+02  0.35318386346E+02 -0.15676907678E+02  0.64088820997E+02  0.47000000000E+01 0.  1.
         13    1    4    4    0    0 -0.24690471780E+02 -0.46650174805E+02 -0.12380394274E+01  0.52795747440E+02  0.00000000000E+00 0. -1.
        -14    1    4    4    0    0  0.28401903301E+02 -0.51759969866E+02 -0.70469241497E+02  0.91933000543E+02  0.00000000000E+00 0.  1.
</event>
<event>
12    1  0.1593360E-001  0.2124000E+03  0.7818608E-02  0.1139842E+00
         21   -1    0    0  503  502  0.00000000000E+00  0.00000000000E+00  0.43136999798E+02  0.43136999798E+02  0.00000000000E+00 0. -1.
         21   -1    0    0  501  503 -0.00000000000E+00 -0.00000000000E+00 -0.11990030352E+04  0.11990030352E+04  0.00000000000E+00 0. -1.
          6    2    1    2  501    0 -0.10053757515E+02 -0.12369509576E+03 -0.35201674695E+03  0.41070305057E+03  0.17134658110E+03 0.  0.
         24    2    3    3    0    0 -0.26501203564E+02 -0.69251237201E+02 -0.12043721798E+03  0.17219556546E+03  0.98224954280E+02 0.  0.
         -6    2    1    2    0  502  0.10053757515E+02  0.12369509576E+03 -0.80384928842E+03  0.83143698440E+03  0.17237234633E+03 0.  0.
        -24    2    5    5    0    0  0.34213635793E+02  0.59533920323E+02 -0.22179327951E+03  0.24533832064E+03  0.79270247862E+02 0.  0.
          5    1    3    3  501    0  0.16447446048E+02 -0.54443858559E+02 -0.23157952897E+03  0.23850748511E+03  0.47000000000E+01 0. -1.
        -11    1    4    4    0    0 -0.49520000299E+02 -0.42399936208E+02 -0.12029909003E+03  0.13682783373E+03  0.00000000000E+00 0.  1.
         12    1    4    4    0    0  0.23018796735E+02 -0.26851300993E+02 -0.13812794780E+00  0.35367731727E+02  0.00000000000E+00 0. -1.
         -5    1    5    5    0  502 -0.24159878277E+02  0.64161175436E+02 -0.58205600891E+03  0.58609866376E+03  0.47000000000E+01 0.  1.
         13    1    6    6    0    0 -0.19079782944E+02  0.45333433499E+02 -0.11699058192E+03  0.12690923752E+03  0.00000000000E+00 0. -1.
        -14    1    6    6    0    0  0.53293418737E+02  0.14200486824E+02 -0.10480269759E+03  0.11842908312E+03  0.00000000000E+00 0.  1.
</event>
<event>
12    1  0.1593360E-001  0.1859315E+03  0.7818608E-02  0.1162271E+00
         21   -1    0    0  503  502  0.00000000000E+00  0.00000000000E+00  0.32255281227E+02  0.32255281227E+02  0.00000000000E+00 0. -1.
         21   -1    0    0  501  503 -0.00000000000E+00 -0.00000000000E+00 -0.11827552042E+04  0.11827552042E+04  0.00000000000E+00 0. -1.
          6    2    1    2  501    0 -0.65619792762E+02 -0.29712215449E+02 -0.76262459455E+03  0.78487355650E+03  0.17100132904E+03 0.  0.
         24    2    3    3    0    0 -0.74060001532E+02 -0.31946827638E+02 -0.76610293595E+03  0.77436548938E+03  0.78884212967E+02 0.  0.
         -6    2    1    2    0  502  0.65619792762E+02  0.29712215449E+02 -0.38787532843E+03  0.43013692893E+03  0.17141100979E+03 0.  0.
        -24    2    5    5    0    0  0.37642241552E+02  0.63132592344E+02 -0.35355314557E+03  0.37446137595E+03  0.99090023568E+02 0.  0.
          5    1    3    3  501    0  0.84402087707E+01  0.22346121890E+01  0.34783413960E+01  0.10508067120E+02  0.47000000000E+01 0. -1.
        -13    1    4    4    0    0  0.12782299288E+02 -0.14906441930E+02 -0.71496059882E+02  0.74143615806E+02  0.00000000000E+00 0.  1.
         14    1    4    4    0    0 -0.86842300821E+02 -0.17040385707E+02 -0.69460687607E+03  0.70022187358E+03  0.00000000000E+00 0. -1.
         -5    1    5    5    0  502  0.27977551209E+02 -0.33420376895E+02 -0.34322182854E+02  0.55675552977E+02  0.47000000000E+01 0.  1.
         11    1    6    6    0    0  0.37868891043E+02 -0.87914619696E+01 -0.21359250455E+03  0.21710159077E+03  0.00000000000E+00 0. -1.
        -12    1    6    6    0    0 -0.22664949085E+00  0.71924054313E+02 -0.13996064102E+03  0.15735978518E+03  0.00000000000E+00 0.  1.
</event>
<event>
12    1  0.1593360E-001  0.2567824E+03  0.7818608E-02  0.1109461E+00
         21   -1    0    0  501  502  0.00000000000E+00  0.00000000000E+00  0.29685118436E+03  0.29685118436E+03  0.00000000000E+00 0.  1.
         21   -1    0    0  502  503 -0.00000000000E+00 -0.00000000000E+00 -0.35338798238E+03  0.35338798238E+03  0.00000000000E+00 0. -1.
         -6    2    1    2    0  503  0.18745754527E+03 -0.79477062199E+01 -0.22789573893E+03  0.34153044267E+03  0.17176460093E+03 0.  0.
        -24    2    3    3    0    0  0.10219706202E+03 -0.27663466772E+02 -0.59865290023E+02  0.15201953802E+03  0.91195285580E+02 0.  0.
          6    2    1    2  501    0 -0.18745754527E+03  0.79477062199E+01  0.17135894092E+03  0.30870872407E+03  0.17531027458E+03 0.  0.
         24    2    5    5    0    0 -0.58960922292E+02  0.58296275979E+02  0.52492769747E+02  0.12650659115E+03  0.79834707853E+02 0.  0.
          5    1    5    5  501    0 -0.12849662298E+03 -0.50348569759E+02  0.11886617117E+03  0.18220213293E+03  0.47000000000E+01 0. -1.
        -13    1    6    6    0    0  0.62056307492E+01  0.21861126289E+02  0.46316431306E+02  0.51590992475E+02  0.00000000000E+00 0.  1.
         14    1    6    6    0    0 -0.65166553041E+02  0.36435149690E+02  0.61763384407E+01  0.74915598675E+02  0.00000000000E+00 0. -1.
         -5    1    3    3    0  503  0.85260483256E+02  0.19715760552E+02 -0.16803044891E+03  0.18951090465E+03  0.47000000000E+01 0.  1.
         13    1    4    4    0    0  0.58392660595E+01 -0.41469442094E+02 -0.24082408594E+02  0.48309150887E+02  0.00000000000E+00 0. -1.
        -14    1    4    4    0    0  0.96357795956E+02  0.13805975323E+02 -0.35782881429E+02  0.10371038713E+03  0.00000000000E+00 0.  1.
</event>
<event>
12    1  0.1593360E-001  0.1788090E+03  0.7818608E-02  0.1169429E+00
         21   -1    0    0  501  502  0.00000000000E+00  0.00000000000E+00  0.90160491292E+02  0.90160491292E+02  0.00000000000E+00 0. -1.
         21   -1    0    0  502  503 -0.00000000000E+00 -0.00000000000E+00 -0.37758138171E+03  0.37758138171E+03  0.00000000000E+00 0. -1.
         -6    2    1    2    0  503  0.42745020511E+02  0.70923406837E+01 -0.20665633604E+03  0.27327548186E+03  0.17347970973E+03 0.  0.
        -24    2    3    3    0    0  0.43679509972E+02 -0.58451139664E+02 -0.98367548051E+02  0.14660515112E+03  0.80575805959E+02 0.  0.
          6    2    1    2  501    0 -0.42745020511E+02 -0.70923406837E+01 -0.80764554373E+02  0.19446639113E+03  0.17151334048E+03 0.  0.
         24    2    5    5    0    0 -0.37677023735E+02 -0.49053452210E+02  0.84936126801E+01  0.95595111899E+02  0.72391191946E+02 0.  0.
          5    1    5    5  501    0 -0.50679967762E+01  0.41961111527E+02 -0.89258167053E+02  0.98871279235E+02  0.47000000000E+01 0. -1.
        -11    1    6    6    0    0 -0.19966600140E+02 -0.45637531409E+02 -0.26354332089E+02  0.56356013114E+02  0.00000000000E+00 0.  1.
         12    1    6    6    0    0 -0.17710423595E+02 -0.34159208013E+01  0.34847944769E+02  0.39239098785E+02  0.00000000000E+00 0. -1.
         -5    1    3    3    0  503 -0.93448946088E+00  0.65543480347E+02 -0.10828878799E+03  0.12667033074E+03  0.47000000000E+01 0.  1.
         11    1    4    4    0    0 -0.17017897878E+02 -0.36586355646E+02 -0.19809964459E+02  0.44951139691E+02  0.00000000000E+00 0. -1.
        -12    1    4    4    0    0  0.60697407850E+02 -0.21864784017E+02 -0.78557583592E+02  0.10165401143E+03  0.00000000000E+00 0.  1.
</event>
<event>
12    1  0.1593360E-001  0.2021270E+03  0.7818608E-02  0.1148028E+00
         21   -1    0    0  503  502  0.00000000000E+00  0.00000000000E+00  0.24568858328E+03  0.24568858328E+03  0.00000000000E+00 0.  1.
         21   -1    0    0  501  503 -0.00000000000E+00 -0.00000000000E+00 -0.27007181293E+03  0.27007181293E+03  0.00000000000E+00 0. -1.
          6    2    1    2  501    0  0.45608718170E+02 -0.96043078516E+02 -0.17227356338E+03  0.26558142762E+03  0.17190371128E+03 0.  0.
         24    2    3    3    0    0  0.64013521809E+02 -0.41187669845E+02 -0.37990204460E+02  0.11928732951E+03  0.83618516045E+02 0.  0.
         -6    2    1    2    0  502 -0.45608718170E+02  0.96043078516E+02  0.14789033374E+03  0.25017896859E+03  0.17150375333E+03 0.  0.
        -24    2    5    5    0    0  0.50518846596E+01  0.21858616577E+02  0.48271979687E+01  0.81184939440E+02  0.77874077165E+02 0.  0.
          5    1    3    3  501    0 -0.18404803640E+02 -0.54855408671E+02 -0.13428335892E+03  0.14629409811E+03  0.47000000000E+01 0. -1.
        -13    1    4    4    0    0  0.82252163507E+00  0.16736178548E+02  0.11482809306E+02  0.20313323800E+02  0.00000000000E+00 0.  1.
         14    1    4    4    0    0  0.63191000174E+02 -0.57923848393E+02 -0.49473013766E+02  0.98974005713E+02  0.00000000000E+00 0. -1.
         -5    1    5    5    0  502 -0.50660602829E+02  0.74184461939E+02  0.14306313577E+03  0.16899402915E+03  0.47000000000E+01 0.  1.
         11    1    6    6    0    0 -0.22346309584E+02  0.41599450408E+02  0.14004681872E+01  0.47242281247E+02  0.00000000000E+00 0. -1.
        -12    1    6    6    0    0  0.27398194244E+02 -0.19740833832E+02  0.34267297815E+01  0.33942658192E+02  0.00000000000E+00 0.  1.
</event>
<event>
12    1  0.1593360E-001  0.2067923E+03  0.7818608E-02  0.1144341E+00
         21   -1    0    0  503  502  0.00000000000E+00  0.00000000000E+00  0.49080176433E+03  0.49080176433E+03  0.00000000000E+00 0. -1.
         21   -1    0    0  501  503 -0.00000000000E+00 -0.00000000000E+00 -0.20377791529E+03  0.20377791529E+03  0.00000000000E+00 0. -1.
          6    2    1    2  501    0  0.81607174233E+02  0.80168463882E+02 -0.11988582210E+03  0.23813852275E+03  0.17102816198E+03 0.  0.
         24    2    3    3    0    0  0.20646647218E+02  0.49325757589E+02  0.41363630293E+01  0.96466186744E+02  0.80182923885E+02 0.  0.
         -6    2    1    2    0  502 -0.81607174233E+02 -0.80168463882E+02  0.40690967114E+03  0.45644115687E+03  0.17226820871E+03 0.  0.
        -24    2    5    5    0    0 -0.10901745237E+03 -0.10312045152E+03  0.34432286928E+03  0.38421017425E+03  0.80873897161E+02 0.  0.
          5    1    3    3  501    0  0.60960527016E+02  0.30842706293E+02 -0.12402218513E+03  0.14167233601E+03  0.47000000000E+01 0. -1.
        -11    1    4    4    0    0 -0.18947945159E+02  0.53037012520E+02 -0.12563556904E+01  0.56334072748E+02  0.00000000000E+00 0.  1.
         12    1    4    4    0    0  0.39594592377E+02 -0.37112549303E+01  0.53927187196E+01  0.40132113996E+02  0.00000000000E+00 0. -1.
         -5    1    5    5    0  502  0.27410278135E+02  0.22951987639E+02  0.62586801860E+02  0.72230982625E+02  0.47000000000E+01 0.  1.
         13    1    6    6    0    0 -0.36039495279E+02 -0.35936015409E+02  0.21656369841E+03  0.22246365522E+03  0.00000000000E+00 0. -1.
        -14    1    6    6    0    0 -0.72977957089E+02 -0.67184436112E+02  0.12775917087E+03  0.16174651903E+03  0.00000000000E+00 0.  1.
</event>
<event>
12    1  0.1593360E-001  0.1812664E+03  0.7818608E-02  0.1167369E+00
         21   -1    0    0  503  502  0.00000000000E+00  0.00000000000E+00  0.12207169746E+03  0.12207169746E+03  0.00000000000E+00 0. -1.
         21   -1    0    0  501  503 -0.00000000000E+00 -0.00000000000E+00 -0.30023842331E+03  0.30023842331E+03  0.00000000000E+00 0. -1.
          6    2    1    2  501    0  0.18170310806E+02  0.50315286876E+02 -0.16277800390E+03  0.24362716755E+03  0.17319275369E+03 0.  0.
         24    2    3    3    0    0 -0.17871847203E+02  0.83041284559E+02 -0.63196412363E+02  0.13268298586E+03  0.79973310163E+02 0.  0.
         -6    2    1    2    0  502 -0.18170310806E+02 -0.50315286876E+02 -0.15388721954E+02  0.17868295321E+03  0.16979103839E+03 0.  0.
        -24    2    5    5    0    0 -0.13704970864E+02  0.30012104030E+02  0.16861357446E+02  0.91880956625E+02  0.84078845144E+02 0.  0.
          5    1    3    3  501    0  0.36042158009E+02 -0.32725997684E+02 -0.99581591533E+02  0.11094418169E+03  0.47000000000E+01 0. -1.
        -13    1    4    4    0    0 -0.19946818778E+02 -0.63990820624E+01 -0.31379605832E+02  0.37729345247E+02  0.00000000000E+00 0.  1.
         14    1    4    4    0    0  0.20749715753E+01  0.89440366622E+02 -0.31816806532E+02  0.94953640617E+02  0.00000000000E+00 0. -1.
         -5    1    5    5    0  502 -0.44653399420E+01 -0.80327390905E+02 -0.32250079400E+02  0.86801996589E+02  0.47000000000E+01 0.  1.
         13    1    6    6    0    0  0.24257678927E+02  0.83573855743E+00  0.33345201590E+02  0.41243616657E+02  0.00000000000E+00 0. -1.
        -14    1    6    6    0    0 -0.37962649791E+02  0.29176365472E+02 -0.16483844144E+02  0.50637339969E+02  0.00000000000E+00 0.  1.
</event>
<event>
12    1  0.1593360E-001  0.2453337E+03  0.7818608E-02  0.1117055E+00
         21   -1    0    0  501  502  0.00000000000E+00  0.00000000000E+00  0.16239021306E+04  0.16239021306E+04  0.00000000000E+00 0. -1.
         21   -1    0    0  502  503 -0.00000000000E+00 -0.00000000000E+00 -0.22260747439E+03  0.22260747439E+03  0.00000000000E+00 0. -1.
         -6    2    1    2    0  503  0.14531698485E+03 -0.88254498636E+02 -0.14273766641E+03  0.28383562074E+03  0.17686926125E+03 0.  0.
        -24    2    3    3    0    0  0.43758956129E+02 -0.10689503314E+03 -0.95333185656E+02  0.17012204407E+03  0.80695100470E+02 0.  0.
          6    2    1    2  501    0 -0.14531698485E+03  0.88254498636E+02  0.15440323226E+04  0.15626739842E+04  0.17031818803E+03 0.  0.
         24    2    5    5    0    0 -0.14842597875E+03  0.12151785175E+03  0.13510355687E+04  0.13667506485E+04  0.76898423934E+02 0.  0.
          5    1    5    5  501    0  0.31089938928E+01 -0.33263353110E+02  0.19299675386E+03  0.19592333578E+03  0.47000000000E+01 0. -1.
        -11    1    6    6    0    0 -0.12967881406E+03  0.10094795424E+03  0.90165250375E+03  0.91650658579E+03  0.00000000000E+00 0.  1.
         12    1    6    6    0    0 -0.18747164682E+02  0.20569897508E+02  0.44938306499E+03  0.45024406267E+03  0.00000000000E+00 0. -1.
         -5    1    3    3    0  503  0.10155802872E+03  0.18640534500E+02 -0.47404480751E+02  0.11371357667E+03  0.47000000000E+01 0.  1.
         13    1    4    4    0    0  0.42217488592E+01 -0.62596576069E+02 -0.91075354141E+02  0.11059328475E+03  0.00000000000E+00 0. -1.
        -14    1    4    4    0    0  0.39537207270E+02 -0.44298457068E+02 -0.42578315155E+01  0.59528759323E+02  0.00000000000E+00 0.  1.
</event>
<event>
12    1  0.1593360E-001  0.2422054E+03  0.7818608E-02  0.1118605E+00
         21   -1    0    0  503  502  0.00000000000E+00  0.00000000000E+00  0.40424837094E+02  0.40424837094E+02  0.00000000000E+00 0. -1.
         21   -1    0    0  501  503 -0.00000000000E+00 -0.00000000000E+00 -0.15366940636E+04  0.15366940636E+04  0.00000000000E+00 0. -1.
          6    2    1    2  501    0 -0.62949208576E+02 -0.15635514917E+03 -0.54925600253E+03  0.59962337620E+03  0.17162896442E+03 0.  0.
         24    2    3    3    0    0 -0.17758024459E+02 -0.46674109892E+02 -0.11377287099E+03  0.14824789906E+03  0.80866268837E+02 0.  0.
         -6    2    1    2    0  502  0.62949208576E+02  0.15635514917E+03 -0.94701322398E+03  0.97749552451E+03  0.17393653586E+03 0.  0.
        -24    2    5    5    0    0 -0.10670349355E+02  0.10983009539E+03 -0.74859870928E+03  0.76075874964E+03  0.78596064785E+02 0.  0.
          5    1    3    3  501    0 -0.45191184117E+02 -0.10968103928E+03 -0.43548313154E+03  0.45137547713E+03  0.47000000000E+01 0. -1.
        -13    1    4    4    0    0 -0.41459555076E+01  0.17410454357E+02 -0.62624911479E+02  0.65132115011E+02  0.00000000000E+00 0.  1.
         14    1    4    4    0    0 -0.13612068951E+02 -0.64084564250E+02 -0.51147959516E+02  0.83115784054E+02  0.00000000000E+00 0. -1.
         -5    1    5    5    0  502  0.73619557931E+02  0.46525053779E+02 -0.19841451470E+03  0.21673677488E+03  0.47000000000E+01 0.  1.
         13    1    6    6    0    0  0.86358416126E+01  0.32786311086E+02 -0.72791692094E+02  0.80300376045E+02  0.00000000000E+00 0. -1.
        -14    1    6    6    0    0 -0.19306190968E+02  0.77043784306E+02 -0.67580701719E+03  0.68045837359E+03  0.00000000000E+00 0.  1.
</event>
<event>
12    1  0.1593360E-001  0.1791865E+03  0.7818608E-02  0.1168947E+00
         21   -1    0    0  503  502  0.00000000000E+00  0.00000000000E+00  0.53307162267E+02  0.53307162267E+02  0.00000000000E+00 0. -1.
         21   -1    0    0  501  503 -0.00000000000E+00 -0.00000000000E+00 -0.60008532022E+03  0.60008532022E+03  0.00000000000E+00 0. -1.
          6    2    1    2  501    0  0.40595302041E+02  0.19882247964E+02 -0.25065930278E+03  0.30727954158E+03  0.17189342126E+03 0.  0.
         24    2    3    3    0    0 -0.22011986249E+02 -0.66274333752E+01 -0.21513293926E+03  0.23042481982E+03  0.79277775097E+02 0.  0.
         -6    2    1    2    0  502 -0.40595302041E+02 -0.19882247964E+02 -0.29611885518E+03  0.34611294091E+03  0.17339120260E+03 0.  0.
        -24    2    5    5    0    0 -0.13556615667E+02 -0.23585455235E+02 -0.30516288838E+03  0.31698067630E+03  0.81316081901E+02 0.  0.
          5    1    3    3  501    0  0.62607288291E+02  0.26509681339E+02 -0.35526363522E+02  0.76854721761E+02  0.47000000000E+01 0. -1.
        -13    1    4    4    0    0 -0.11785563029E+02 -0.26798774615E+02 -0.23716086501E+02  0.37676605151E+02  0.00000000000E+00 0.  1.
         14    1    4    4    0    0 -0.10226423220E+02  0.20171341240E+02 -0.19141685276E+03  0.19274821467E+03  0.00000000000E+00 0. -1.
         -5    1    5    5    0  502 -0.27038686374E+02  0.37032072711E+01  0.90440331989E+01  0.29132264613E+02  0.47000000000E+01 0.  1.
         13    1    6    6    0    0 -0.30180360196E+02 -0.18872782446E+02 -0.50789089812E+02  0.62020703823E+02  0.00000000000E+00 0. -1.
        -14    1    6    6    0    0  0.16623744529E+02 -0.47126727896E+01 -0.25437379856E+03  0.25495997247E+03  0.00000000000E+00 0.  1.
</event>
<event>
12    1  0.1593360E-001  0.1933076E+03  0.7818608E-02  0.1155623E+00
         21   -1    0    0  501  502  0.00000000000E+00  0.00000000000E+00  0.32985363928E+03  0.32985363928E+03  0.00000000000E+00 0. -1.
         21   -1    0    0  502  503 -0.00000000000E+00 -0.00000000000E+00 -0.16841427045E+03  0.16841427045E+03  0.00000000000E+00 0. -1.
         -6    2    1    2    0  503 -0.70111235839E+02  0.52345871699E+02 -0.62271553908E+02  0.20260862188E+03  0.17180463195E+03 0.  0.
        -24    2    3    3    0    0 -0.23351355833E+02 -0.22425357079E+01 -0.92405679740E+02  0.12452830335E+03  0.80113506364E+02 0.  0.
          6    2    1    2  501    0  0.70111235839E+02 -0.52345871699E+02  0.22371092274E+03  0.29565928786E+03  0.17237216094E+03 0.  0.
         24    2    5    5    0    0  0.50402981955E+02  0.35830368204E+02  0.11681665324E+03  0.15561665361E+03  0.82134867934E+02 0.  0.
          5    1    5    5  501    0  0.19708253884E+02 -0.88176239904E+02  0.10689426951E+03  0.14004263425E+03  0.47000000000E+01 0. -1.
        -13    1    6    6    0    0  0.34456470121E+02  0.57967015054E+02  0.10728324627E+03  0.12671668437E+03  0.00000000000E+00 0.  1.
         14    1    6    6    0    0  0.15946511834E+02 -0.22136646850E+02  0.95334069654E+01  0.28899969235E+02  0.00000000000E+00 0. -1.
         -5    1    3    3    0  503 -0.46759880006E+02  0.54588407407E+02  0.30134125831E+02  0.78080318526E+02  0.47000000000E+01 0.  1.
         11    1    4    4    0    0 -0.43525411870E+02 -0.88662726173E+01 -0.19352758538E+02  0.48452053946E+02  0.00000000000E+00 0. -1.
        -12    1    4    4    0    0  0.20174056037E+02  0.66237369094E+01 -0.73052921201E+02  0.76076249406E+02  0.00000000000E+00 0.  1.
</event>
<event>
12    1  0.1593360E-001  0.1960464E+03  0.7818608E-02  0.1153160E+00
         21   -1    0    0  501  502  0.00000000000E+00  0.00000000000E+00  0.23844292278E+04  0.23844292278E+04  0.00000000000E+00 0.  1.
         21   -1    0    0  502  503 -0.00000000000E+00 -0.00000000000E+00 -0.17087247005E+02  0.17087247005E+02  0.00000000000E+00 0. -1.
         -6    2    1    2    0  503 -0.51631763333E+02 -0.77289504313E+02  0.89603331772E+03  0.91722946807E+03  0.17261136744E+03 0.  0.
        -24    2    3    3    0    0 -0.31959331081E+02 -0.55676457408E+02  0.87590475088E+03  0.88143313319E+03  0.74792840113E+02 0.  0.
          6    2    1    2  501    0  0.51631763333E+02  0.77289504313E+02  0.14713086631E+04  0.14842870067E+04  0.17239266185E+03 0.  0.
         24    2    5    5    0    0 -0.26432039386E+01  0.69927395708E+02  0.48816344219E+03  0.49960604923E+03  0.80036435096E+02 0.  0.
          5    1    5    5  501    0  0.54274967271E+02  0.73621086057E+01  0.98314522090E+03  0.98468095752E+03  0.47000000000E+01 0. -1.
        -13    1    6    6    0    0 -0.30268336481E+02  0.56119084255E+02  0.41948293694E+03  0.42430114093E+03  0.00000000000E+00 0.  1.
         14    1    6    6    0    0  0.27625132543E+02  0.13808311453E+02  0.68680505246E+02  0.75304908300E+02  0.00000000000E+00 0. -1.
         -5    1    3    3    0  503 -0.19672432252E+02 -0.21613046905E+02  0.20128566840E+02  0.35796334872E+02  0.47000000000E+01 0.  1.
         13    1    4    4    0    0 -0.55350938631E+02 -0.30725391989E+02  0.50436980028E+03  0.50832732717E+03  0.00000000000E+00 0. -1.
        -14    1    4    4    0    0  0.23391607550E+02 -0.24951065419E+02  0.37153495060E+03  0.37310580602E+03  0.00000000000E+00 0.  1.
</event>
<event>
12    1  0.1593360E-001  0.1747183E+03  0.7818608E-02  0.1173510E+00
         21   -1    0    0  503  502  0.00000000000E+00  0.00000000000E+00  0.72055227444E+02  0.72055227444E+02  0.00000000000E+00 0. -1.
         21   -1    0    0  501  503 -0.00000000000E+00 -0.00000000000E+00 -0.52862188955E+03  0.52862188955E+03  0.00000000000E+00 0. -1.
          6    2    1    2  501    0 -0.14485028920E+02  0.24420639724E+02 -0.36611957427E+03  0.40567232958E+03  0.17239580219E+03 0.  0.
         24    2    3    3    0    0  0.32765322056E+02 -0.10147531948E+02 -0.31818549580E+03  0.32986124834E+03  0.79936816812E+02 0.  0.
         -6    2    1    2    0  502  0.14485028920E+02 -0.24420639724E+02 -0.90447087831E+02  0.19500478741E+03  0.17041128985E+03 0.  0.
        -24    2    5    5    0    0  0.14348778978E+02  0.21600994990E+02  0.91096197358E+01  0.85224837297E+02  0.80670919655E+02 0.  0.
          5    1    3    3  501    0 -0.47250350976E+02  0.34568171672E+02 -0.47934078470E+02  0.75811081240E+02  0.47000000000E+01 0. -1.
        -11    1    4    4    0    0  0.67402613918E+01 -0.11581262167E+02 -0.31705746781E+01  0.13769869310E+02  0.00000000000E+00 0.  1.
         12    1    4    4    0    0  0.26025060664E+02  0.14337302199E+01 -0.31501492112E+03  0.31609137903E+03  0.00000000000E+00 0. -1.
         -5    1    5    5    0  502  0.13624994166E+00 -0.46021634714E+02 -0.99556707567E+02  0.10977995012E+03  0.47000000000E+01 0.  1.
         13    1    6    6    0    0 -0.11645784418E+02  0.12769798145E+02  0.40194279224E+02  0.43752395612E+02  0.00000000000E+00 0. -1.
        -14    1    6    6    0    0  0.25994563396E+02  0.88311968448E+01 -0.31084659489E+02  0.41472441686E+02  0.00000000000E+00 0.  1.
</event>
<event>
12    1  0.1593360E-001  0.1994219E+03  0.7818608E-02  0.1150615E+00
         21   -1    0    0  501  502  0.00000000000E+00  0.00000000000E+00  0.18360752427E+03  0.18360752427E+03  0.00000000000E+00 0.  1.
         21   -1    0    0  502  503 -0.00000000000E+00 -0.00000000000E+00 -0.61146361583E+03  0.61146361583E+03  0.00000000000E+00 0.  1.
         -6    2    1    2    0  503 -0.77529057474E+02  0.57026516915E+02 -0.53452857099E+03  0.57051721156E+03  0.17466057680E+03 0.  0.
        -24    2    3    3    0    0 -0.71861449151E+01  0.88007645796E+02 -0.37767871515E+03  0.39578334829E+03  0.78779822971E+02 0.  0.
          6    2    1    2  501    0  0.77529057474E+02 -0.57026516915E+02  0.10667247943E+03  0.22455392855E+03  0.17257656438E+03 0.  0.
         24    2    5    5    0    0  0.15029602795E+02  0.29463611446E+02  0.67873000324E+02  0.11091320646E+03  0.81246549672E+02 0.  0.
          5    1    5    5  501    0  0.62499454679E+02 -0.86490128360E+02  0.38799479111E+02  0.11364072209E+03  0.47000000000E+01 0. -1.
        -11    1    6    6    0    0  0.33502037745E+02  0.23191162289E+02  0.47486619932E+00  0.40748521928E+02  0.00000000000E+00 0.  1.
         12    1    6    6    0    0 -0.18472434949E+02  0.62724491562E+01  0.67398134124E+02  0.70164684527E+02  0.00000000000E+00 0. -1.
         -5    1    3    3    0  503 -0.70342912559E+02 -0.30981128882E+02 -0.15684985584E+03  0.17473386327E+03  0.47000000000E+01 0.  1.
         11    1    4    4    0    0 -0.22567733481E+02  0.90981045305E+02 -0.24734813700E+03  0.26451456307E+03  0.00000000000E+00 0. -1.
        -12    1    4    4    0    0  0.15381588565E+02 -0.29733995082E+01 -0.13033057815E+03  0.13126878522E+03  0.00000000000E+00 0.  1.
</event>
<event>
12    1  0.1593360E-001  0.1857144E+03  0.7818608E-02  0.1162574E+00
         21   -1    0    0  501  502  0.00000000000E+00  0.00000000000E+00  0.96510373479E+03  0.96510373479E+03  0.00000000000E+00 0. -1.
         21   -1    0    0  502  503 -0.00000000000E+00 -0.00000000000E+00 -0.49573251099E+02  0.49573251099E+02  0.00000000000E+00 0. -1.
         -6    2    1    2    0  503  0.58038516993E+02 -0.35708531894E+02  0.18750232056E+03  0.26333495902E+03  0.17188546106E+03 0.  0.
        -24    2    3    3    0    0  0.54033325998E+02  0.36529596983E+02  0.66071447963E+02  0.12190675944E+03  0.79005126330E+02 0.  0.
          6    2    1    2  501    0 -0.58038516993E+02  0.35708531894E+02  0.72802816313E+03  0.75134202687E+03  0.17276071984E+03 0.  0.
         24    2    5    5    0    0 -0.10390935556E+03  0.96802520578E+01  0.48128523725E+03  0.49898163644E+03  0.80351306518E+02 0.  0.
          5    1    5    5  501    0  0.45870838568E+02  0.26028279836E+02  0.24674292589E+03  0.25236039043E+03  0.47000000000E+01 0. -1.
        -11    1    6    6    0    0 -0.81403226461E+02  0.45712346654E+01  0.18962643977E+03  0.20641116279E+03  0.00000000000E+00 0.  1.
         12    1    6    6    0    0 -0.22506129101E+02  0.51090173924E+01  0.29165879748E+03  0.29257047365E+03  0.00000000000E+00 0. -1.
         -5    1    3    3    0  503  0.40051909956E+01 -0.72238128877E+02  0.12143087259E+03  0.14142819958E+03  0.47000000000E+01 0.  1.
         11    1    4    4    0    0  0.54064314543E+02  0.41122037597E+02  0.81334198296E+02  0.10596803242E+03  0.00000000000E+00 0. -1.
        -12    1    4    4    0    0 -0.30988544796E-01 -0.45924406142E+01 -0.15262750333E+02  0.15938727014E+02  0.00000000000E+00 0.  1.
</event>
<event>
12    1  0.1593360E-001  0.1790398E+03  0.7818608E-02  0.1170389E+00
         21   -1    0    0  501  502  0.00000000000E+00  0.00000000000E+00  0.80866347096E+02  0.80866347096E+02  0.00000000000E+00 0. -1.
         21   -1    0    0  502  503 -0.00000000000E+00 -0.00000000000E+00 -0.48527650914E+03  0.48527650914E+03  0.00000000000E+00 0. -1.
         -6    2    1    2    0  503 -0.11168595807E+02 -0.44804559866E+02 -0.32988312264E+03  0.37221109838E+03  0.16609046041E+03 0.  0.
        -24    2    3    3    0    0  0.15363277278E+02 -0.88848444732E+02 -0.21610184616E+03  0.24726281724E+03  0.79428058354E+02 0.  0.
          6    2    1    2  501    0  0.11168595807E+02  0.44804559866E+02 -0.74527039398E+02  0.19393175785E+03  0.17298283436E+03 0.  0.
         24    2    5    5    0    0  0.69078540949E+02 -0.10583412472E+01 -0.35656657952E+02  0.11032575329E+03  0.78277772557E+02 0.  0.
          5    1    5    5  501    0 -0.57909945142E+02  0.45862901113E+02 -0.38870381446E+02  0.83606004561E+02  0.47000000000E+01 0. -1.
        -13    1    6    6    0    0  0.15437760670E+02 -0.16626552207E+02 -0.48028358783E+02  0.53117698935E+02  0.00000000000E+00 0.  1.
         14    1    6    6    0    0  0.53640780279E+02  0.15568210960E+02  0.12371700830E+02  0.57208054353E+02  0.00000000000E+00 0. -1.
         -5    1    3    3    0  503 -0.26531873085E+02  0.44043884866E+02 -0.11378127648E+03  0.12494828114E+03  0.47000000000E+01 0.  1.
         13    1    4    4    0    0 -0.12305709138E+02 -0.52721158095E+02 -0.45570984784E+02  0.70764861637E+02  0.00000000000E+00 0. -1.
        -14    1    4    4    0    0  0.27668986416E+02 -0.36127286637E+02 -0.17053086138E+03  0.17649795560E+03  0.00000000000E+00 0.  1.
</event>
<event>
12    1  0.1593360E-001  0.2200919E+03  0.7818608E-02  0.1133849E+00
         21   -1    0    0  503  502  0.00000000000E+00  0.00000000000E+00  0.38613638964E+03  0.38613638964E+03  0.00000000000E+00 0. -1.
         21   -1    0    0  501  503 -0.00000000000E+00 -0.00000000000E+00 -0.17918876300E+03  0.17918876300E+03  0.00000000000E+00 0. -1.
          6    2    1    2  501    0 -0.12609253710E+03  0.53053900456E+02 -0.51504918504E+02  0.22585768648E+03  0.17217692542E+03 0.  0.
         24    2    3    3    0    0 -0.15251198764E+03  0.18325261074E+02 -0.52533754687E+02  0.18195763791E+03  0.82177034774E+02 0.  0.
         -6    2    1    2    0  502  0.12609253710E+03 -0.53053900456E+02  0.25845254514E+03  0.33946746616E+03  0.17241345140E+03 0.  0.
        -24    2    5    5    0    0  0.12727962615E+03 -0.47508421223E+02  0.27784173295E+03  0.31872639280E+03  0.77028122005E+02 0.  0.
          5    1    3    3  501    0  0.26419450547E+02  0.34728639382E+02  0.10288361826E+01  0.43900048570E+02  0.47000000000E+01 0. -1.
        -11    1    4    4    0    0  0.94165061287E+01 -0.29755784757E+01  0.13671531022E+01  0.99696420468E+01  0.00000000000E+00 0.  1.
         12    1    4    4    0    0 -0.16192849377E+03  0.21300839549E+02 -0.53900907789E+02  0.17198799586E+03  0.00000000000E+00 0. -1.
         -5    1    5    5    0  502 -0.11870890560E+01 -0.55454792326E+01 -0.19389187804E+02  0.20741073358E+02  0.47000000000E+01 0.  1.
         11    1    6    6    0    0  0.80570092502E+01  0.56528254108E+01  0.86736439353E+02  0.87293068138E+02  0.00000000000E+00 0. -1.
        -12    1    6    6    0    0  0.11922261690E+03 -0.53161246634E+02  0.19110529359E+03  0.23143332466E+03  0.00000000000E+00 0.  1.
</event>
<event>
12    1  0.1593360E-001  0.1740197E+03  0.7818608E-02  0.1174136E+00
         21   -1    0    0  501  502  0.00000000000E+00  0.00000000000E+00  0.10833003031E+03  0.10833003031E+03  0.00000000000E+00 0. -1.
         21   -1    0    0  502  503 -0.00000000000E+00 -0.00000000000E+00 -0.33999560823E+03  0.33999560823E+03  0.00000000000E+00 0. -1.
         -6    2    1    2    0  503 -0.10363781156E+02 -0.54793122281E+01 -0.19727430944E+02  0.17513433849E+03  0.17362440544E+03 0.  0.
        -24    2    3    3    0    0 -0.37917794022E+00  0.42462057408E+02  0.40101843299E+02  0.97676612722E+02  0.78290438380E+02 0.  0.
          6    2    1    2  501    0  0.10363781156E+02  0.54793122281E+01 -0.21193814697E+03  0.27319130005E+03  0.17198336391E+03 0.  0.
         24    2    5    5    0    0  0.12832043497E+02  0.68726199999E+02 -0.10844197962E+03  0.15178368996E+03  0.79941689304E+02 0.  0.
          5    1    5    5  501    0 -0.24682623403E+01 -0.63246887771E+02 -0.10349616735E+03  0.12140761009E+03  0.47000000000E+01 0. -1.
        -11    1    6    6    0    0 -0.24711282511E+02  0.62007764630E+02 -0.80095303770E+02  0.10426345498E+03  0.00000000000E+00 0.  1.
         12    1    6    6    0    0  0.37543326008E+02  0.67184353682E+01 -0.28346675850E+02  0.47520234987E+02  0.00000000000E+00 0. -1.
         -5    1    3    3    0  503 -0.99846032162E+01 -0.47941369636E+02 -0.59829274243E+02  0.77457725763E+02  0.47000000000E+01 0.  1.
         13    1    4    4    0    0  0.47480340599E+01 -0.19934561942E+02  0.26689616425E+02  0.33649163617E+02  0.00000000000E+00 0. -1.
        -14    1    4    4    0    0 -0.51272120002E+01  0.62396619350E+02  0.13412226874E+02  0.64027449105E+02  0.00000000000E+00 0.  1.
</event>
<event>
12    1  0.1593360E-001  0.4550219E+03  0.7818608E-02  0.1026269E+00
         21   -1    0    0  503  502  0.00000000000E+00  0.00000000000E+00  0.26316022246E+04  0.26316022246E+04  0.00000000000E+00 0. -1.
         21   -1    0    0  501  503 -0.00000000000E+00 -0.00000000000E+00 -0.87034628646E+02  0.87034628646E+02  0.00000000000E+00 0.  1.
          6    2    1    2  501    0  0.15485906800E+03 -0.39180586588E+03  0.16949679155E+04  0.17548606634E+04  0.17066501040E+03 0.  0.
         24    2    3    3    0    0  0.14738327813E+03 -0.31830440988E+03  0.11530968831E+04  0.12079560489E+04  0.80534877268E+02 0.  0.
         -6    2    1    2    0  502 -0.15485906800E+03  0.39180586588E+03  0.84959968039E+03  0.96377618982E+03  0.17190625255E+03 0.  0.
        -24    2    5    5    0    0 -0.49987583067E+02  0.26333668745E+03  0.43497653830E+03  0.51719271709E+03  0.80241811565E+02 0.  0.
          5    1    3    3  501    0  0.74757898710E+01 -0.73501456000E+02  0.54187103248E+03  0.54690461445E+03  0.47000000000E+01 0. -1.
        -13    1    4    4    0    0  0.84237335839E+02 -0.13945966568E+03  0.41384447509E+03  0.44476080838E+03  0.00000000000E+00 0.  1.
         14    1    4    4    0    0  0.63145942290E+02 -0.17884474420E+03  0.73925240796E+03  0.76319524057E+03  0.00000000000E+00 0. -1.
         -5    1    5    5    0  502 -0.10487148493E+03  0.12846917843E+03  0.41462314210E+03  0.44658347274E+03  0.47000000000E+01 0.  1.
         11    1    6    6    0    0  0.17748297766E+02  0.11475375219E+03  0.19414349230E+03  0.22621918866E+03  0.00000000000E+00 0. -1.
        -12    1    6    6    0    0 -0.67735880832E+02  0.14858293525E+03  0.24083304599E+03  0.29097352842E+03  0.00000000000E+00 0.  1.
</event>
<event>
12    1  0.1593360E-001  0.3519240E+03  0.7818608E-02  0.1061987E+00
         21   -1    0    0  501  502  0.00000000000E+00  0.00000000000E+00  0.28876818967E+03  0.28876818967E+03  0.00000000000E+00 0. -1.
         21   -1    0    0  502  503 -0.00000000000E+00 -0.00000000000E+00 -0.82869333461E+03  0.82869333461E+03  0.00000000000E+00 0.  1.
         -6    2    1    2    0  503  0.19042654159E+03  0.23890970379E+03 -0.65865906631E+03  0.74604770740E+03  0.17150889707E+03 0.  0.
        -24    2    3    3    0    0  0.71927196465E+02  0.12672602489E+03 -0.45928300918E+03  0.48836539376E+03  0.79541613765E+02 0.  0.
          6    2    1    2  501    0 -0.19042654159E+03 -0.23890970379E+03  0.11873392137E+03  0.37141381688E+03  0.17467216428E+03 0.  0.
         24    2    5    5    0    0 -0.14743873140E+03 -0.23333557047E+03  0.14442335407E+03  0.32080690293E+03  0.76650478147E+02 0.  0.
          5    1    5    5  501    0 -0.42987810189E+02 -0.55741333215E+01 -0.25689432699E+02  0.50606913950E+02  0.47000000000E+01 0. -1.
        -13    1    6    6    0    0  0.82694259705E+01 -0.18936961848E+02  0.17135592710E+02  0.26844374968E+02  0.00000000000E+00 0.  1.
         14    1    6    6    0    0 -0.15570815737E+03 -0.21439860862E+03  0.12728776136E+03  0.29396252796E+03  0.00000000000E+00 0. -1.
         -5    1    3    3    0  503  0.11849934512E+03  0.11218367891E+03 -0.19937605713E+03  0.25768231364E+03  0.47000000000E+01 0.  1.
         13    1    4    4    0    0 -0.11731560674E+02  0.10535421702E+02 -0.15710736046E+02  0.22258747794E+02  0.00000000000E+00 0. -1.
        -14    1    4    4    0    0  0.83658757138E+02  0.11619060319E+03 -0.44357227314E+03  0.46610664596E+03  0.00000000000E+00 0.  1.
</event>
<event>
12    1  0.1593360E-001  0.3730819E+03  0.7818608E-02  0.1053914E+00
         21   -1    0    0  503  502  0.00000000000E+00  0.00000000000E+00  0.36203011119E+03  0.36203011119E+03  0.00000000000E+00 0.  1.
         21   -1    0    0  501  503 -0.00000000000E+00 -0.00000000000E+00 -0.59781529782E+03  0.59781529782E+03  0.00000000000E+00 0.  1.
          6    2    1    2  501    0  0.38553081577E+02 -0.32527983330E+03 -0.40701311038E+03  0.54934683091E+03  0.16979092601E+03 0.  0.
         24    2    3    3    0    0  0.45464619078E+02 -0.27485934256E+03 -0.24678780084E+03  0.38116765546E+03  0.82279238843E+02 0.  0.
         -6    2    1    2    0  502 -0.38553081577E+02  0.32527983330E+03  0.17122792375E+03  0.41049857810E+03  0.17859667047E+03 0.  0.
        -24    2    5    5    0    0 -0.20775360688E+02  0.33595567488E+03  0.13991399439E+03  0.37264790935E+03  0.77412579235E+02 0.  0.
          5    1    3    3  501    0 -0.69115375011E+01 -0.50420490742E+02 -0.16022530954E+03  0.16817917545E+03  0.47000000000E+01 0. -1.
        -13    1    4    4    0    0 -0.90176695163E+01 -0.27753350867E+02 -0.59780504833E+02  0.66522745027E+02  0.00000000000E+00 0.  1.
         14    1    4    4    0    0  0.54482288594E+02 -0.24710599169E+03 -0.18700729601E+03  0.31464491043E+03  0.00000000000E+00 0. -1.
         -5    1    5    5    0  502 -0.17777720889E+02 -0.10675841573E+02  0.31313929355E+02  0.37850668752E+02  0.47000000000E+01 0.  1.
         11    1    6    6    0    0 -0.25699243517E+01  0.22698086312E+02 -0.99438797675E+01  0.24913618329E+02  0.00000000000E+00 0. -1.
        -12    1    6    6    0    0 -0.18205436336E+02  0.31325758856E+03  0.14985787416E+03  0.34773429102E+03  0.00000000000E+00 0.  1.
</event>
<event>
12    1  0.1593360E-001  0.2052674E+03  0.7818608E-02  0.1145438E+00
         21   -1    0    0  501  502  0.00000000000E+00  0.00000000000E+00  0.28370660715E+03  0.28370660715E+03  0.00000000000E+00 0. -1.
         21   -1    0    0  502  503 -0.00000000000E+00 -0.00000000000E+00 -0.15047861581E+03  0.15047861581E+03  0.00000000000E+00 0.  1.
         -6    2    1    2    0  503 -0.83955983266E+02  0.74532039868E+02  0.92947401221E+02  0.22533066719E+03  0.17184603018E+03 0.  0.
        -24    2    3    3    0    0  0.18384450280E+02  0.47288558287E+02  0.23299923251E+02  0.98489692678E+02  0.81136535441E+02 0.  0.
          6    2    1    2  501    0  0.83955983266E+02 -0.74532039868E+02  0.40280590126E+02  0.20885455577E+03  0.17144698140E+03 0.  0.
         24    2    5    5    0    0  0.29448758006E+02 -0.63348921283E+01  0.72473806217E+02  0.11568598957E+03  0.84990795909E+02 0.  0.
          5    1    5    5  501    0  0.54507225260E+02 -0.68197147740E+02 -0.32193216091E+02  0.93168566199E+02  0.47000000000E+01 0. -1.
        -13    1    6    6    0    0  0.89973728676E+01 -0.15027872711E+02 -0.16449129339E+02  0.24028390141E+02  0.00000000000E+00 0.  1.
         14    1    6    6    0    0  0.20451385138E+02  0.86929805830E+01  0.88922935556E+02  0.91657599431E+02  0.00000000000E+00 0. -1.
         -5    1    3    3    0  503 -0.10234043355E+03  0.27243481581E+02  0.69647477970E+02  0.12684097451E+03  0.47000000000E+01 0.  1.
         13    1    4    4    0    0 -0.21786796213E+02  0.19143449202E+02  0.37517975950E+02  0.47420825129E+02  0.00000000000E+00 0. -1.
        -14    1    4    4    0    0  0.40171246493E+02  0.28145109085E+02 -0.14218052698E+02  0.51068867549E+02  0.00000000000E+00 0.  1.
</event>
<event>
12    1  0.1593360E-001  0.2168974E+03  0.7818608E-02  0.1136221E+00
         21   -1    0    0  501  502  0.00000000000E+00  0.00000000000E+00  0.32542984566E+03  0.32542984566E+03  0.00000000000E+00 0. -1.
         21   -1    0    0  502  503 -0.00000000000E+00 -0.00000000000E+00 -0.18109029200E+03  0.18109029200E+03  0.00000000000E+00 0. -1.
         -6    2    1    2    0  503 -0.66071288744E+02  0.11435031851E+03  0.18593187221E+03  0.28567087403E+03  0.17203423097E+03 0.  0.
        -24    2    3    3    0    0 -0.63804730213E+02  0.14892227737E+02  0.14585833876E+03  0.17831619462E+03  0.78925206577E+02 0.  0.
          6    2    1    2  501    0  0.66071288744E+02 -0.11435031851E+03 -0.41592318553E+02  0.22084926363E+03  0.17205541475E+03 0.  0.
         24    2    5    5    0    0  0.12846884709E+02 -0.83077796848E+02 -0.86173314864E+02  0.14455795988E+03  0.80026250659E+02 0.  0.
          5    1    5    5  501    0  0.53224404035E+02 -0.31272521657E+02  0.44580996311E+02  0.76291303749E+02  0.47000000000E+01 0. -1.
        -11    1    6    6    0    0 -0.29029898063E+02 -0.86550935640E+01 -0.27821213575E+02  0.41129862034E+02  0.00000000000E+00 0.  1.
         12    1    6    6    0    0  0.41876782772E+02 -0.74422703284E+02 -0.58352101289E+02  0.10342809785E+03  0.00000000000E+00 0. -1.
         -5    1    3    3    0  503 -0.22665585311E+01  0.99458090768E+02  0.40073533449E+02  0.10735467940E+03  0.47000000000E+01 0.  1.
         13    1    4    4    0    0 -0.35944958884E+02  0.44320755728E+02  0.11122236439E+03  0.12500713499E+03  0.00000000000E+00 0. -1.
        -14    1    4    4    0    0 -0.27859771329E+02 -0.29428527990E+02  0.34635974370E+02  0.53309059631E+02  0.00000000000E+00 0.  1.
</event>
<event>
12    1  0.1593360E-001  0.2324240E+03  0.7818608E-02  0.1124976E+00
         21   -1    0    0  501  502  0.00000000000E+00  0.00000000000E+00  0.71998342538E+02  0.71998342538E+02  0.00000000000E+00 0.  1.
         21   -1    0    0  502  503 -0.00000000000E+00 -0.00000000000E+00 -0.77322228275E+03  0.77322228275E+03  0.00000000000E+00 0.  1.
         -6    2    1    2    0  503  0.58144418520E+02  0.14541603412E+03 -0.42412706058E+03  0.48355282216E+03  0.17150210472E+03 0.  0.
        -24    2    3    3    0    0  0.21373365801E+02  0.19903441599E+01 -0.12935776941E+03  0.15365274051E+03  0.80093382528E+02 0.  0.
          6    2    1    2  501    0 -0.58144418520E+02 -0.14541603412E+03 -0.27709687964E+03  0.36166780313E+03  0.17173911240E+03 0.  0.
         24    2    5    5    0    0 -0.88446576816E+02 -0.13185395245E+03 -0.27591166418E+03  0.32811716092E+03  0.79532151582E+02 0.  0.
          5    1    5    5  501    0  0.30302158296E+02 -0.13562081670E+02 -0.11852154605E+01  0.33550642204E+02  0.47000000000E+01 0. -1.
        -11    1    6    6    0    0 -0.54859371164E+02 -0.13236060089E+03 -0.21132901153E+03  0.25532103397E+03  0.00000000000E+00 0.  1.
         12    1    6    6    0    0 -0.33587205652E+02  0.50664844375E+00 -0.64582652648E+02  0.72796126952E+02  0.00000000000E+00 0. -1.
         -5    1    3    3    0  503  0.36771052719E+02  0.14342568996E+03 -0.29476929116E+03  0.32990008165E+03  0.47000000000E+01 0.  1.
         11    1    4    4    0    0  0.33109387096E+02  0.11180936290E+02 -0.13364789527E+03  0.13814124931E+03  0.00000000000E+00 0. -1.
        -12    1    4    4    0    0 -0.11736021295E+02 -0.91905921303E+01  0.42901258582E+01  0.15511491206E+02  0.00000000000E+00 0.  1.
</event>
<event>
12    1  0.1593360E-001  0.2652291E+03  0.7818608E-02  0.1105824E+00
         21   -1    0    0  501  502  0.00000000000E+00  0.00000000000E+00  0.19654188677E+03  0.19654188677E+03  0.00000000000E+00 0.  1.
         21   -1    0    0  502  503 -0.00000000000E+00 -0.00000000000E+00 -0.37847794466E+03  0.37847794466E+03  0.00000000000E+00 0.  1.
         -6    2    1    2    0  503 -0.18092806840E+03  0.43971934125E+02 -0.18201052993E+03  0.32167424246E+03  0.18888617825E+03 0.  0.
        -24    2    3    3    0    0 -0.78649404038E+02 -0.46944342757E+02 -0.12271652873E+03  0.17246109571E+03  0.79334626977E+02 0.  0.
          6    2    1    2  501    0  0.18092806840E+03 -0.43971934125E+02  0.74472044652E-01  0.25334558897E+03  0.17180071297E+03 0.  0.
         24    2    5    5    0    0  0.12039023035E+03 -0.61255695841E+02 -0.58356369611E+02  0.16732343187E+03  0.79659256478E+02 0.  0.
          5    1    5    5  501    0  0.60537838055E+02  0.17283761717E+02  0.58430841656E+02  0.86022157099E+02  0.47000000000E+01 0. -1.
        -11    1    6    6    0    0  0.10695333993E+03 -0.20486725910E+02 -0.60062597235E+02  0.12436333240E+03  0.00000000000E+00 0.  1.
         12    1    6    6    0    0  0.13436890420E+02 -0.40768969931E+02  0.17062276239E+01  0.42960099466E+02  0.00000000000E+00 0. -1.
         -5    1    3    3    0  503 -0.10227866436E+03  0.90916276882E+02 -0.59294001194E+02  0.14921314675E+03  0.47000000000E+01 0.  1.
         11    1    4    4    0    0  0.16332299156E+02 -0.52338184861E+01 -0.13459634903E+02  0.21801344532E+02  0.00000000000E+00 0. -1.
        -12    1    4    4    0    0 -0.94981703193E+02 -0.41710524271E+02 -0.10925689383E+03  0.15065975118E+03  0.00000000000E+00 0.  1.
</event>
<event>
12    1  0.1593360E-001  0.1734113E+03  0.7818608E-02  0.1175193E+00
         21   -1    0    0  503  502  0.00000000000E+00  0.00000000000E+00  0.41621926739E+02  0.41621926739E+02  0.00000000000E+00 0. -1.
         21   -1    0    0  501  503 -0.00000000000E+00 -0.00000000000E+00 -0.10488514000E+04  0.10488514000E+04  0.00000000000E+00 0. -1.
          6    2    1    2  501    0 -0.12156532889E+02  0.11649715097E+02 -0.81743786303E+03  0.83562917764E+03  0.17259190437E+03 0.  0.
         24    2    3    3    0    0  0.80968540058E+01 -0.49037037125E+02 -0.64192512644E+03  0.64876052783E+03  0.79700467138E+02 0.  0.
         -6    2    1    2    0  502  0.12156532889E+02 -0.11649715097E+02 -0.18979161025E+03  0.25484414912E+03  0.16923707592E+03 0.  0.
        -24    2    5    5    0    0 -0.53122954837E+01  0.49337957229E+02 -0.15805602697E+03  0.18375340861E+03  0.79505679087E+02 0.  0.
          5    1    3    3  501    0 -0.20253386895E+02  0.60686752222E+02 -0.17551273658E+03  0.18686864980E+03  0.47000000000E+01 0. -1.
        -11    1    4    4    0    0 -0.26868204592E+00 -0.49368713458E+02 -0.17689557521E+03  0.18365561954E+03  0.00000000000E+00 0.  1.
         12    1    4    4    0    0  0.83655360518E+01  0.33167633271E+00 -0.46502955123E+03  0.46510490829E+03  0.00000000000E+00 0. -1.
         -5    1    5    5    0  502  0.17468828373E+02 -0.60987672326E+02 -0.31735583287E+02  0.71090740515E+02  0.47000000000E+01 0.  1.
         13    1    6    6    0    0 -0.77741208315E+01 -0.21347723441E+02 -0.32643153143E+02  0.39771066089E+02  0.00000000000E+00 0. -1.
        -14    1    6    6    0    0  0.24618253478E+01  0.70685680670E+02 -0.12541287382E+03  0.14398234252E+03  0.00000000000E+00 0.  1.
</event>
<event>
12    1  0.1593360E-001  0.1948847E+03  0.7818608E-02  0.1155222E+00
         21   -1    0    0  501  502  0.00000000000E+00  0.00000000000E+00  0.58214681190E+02  0.58214681190E+02  0.00000000000E+00 0.  1.
         21   -1    0    0  502  503 -0.00000000000E+00 -0.00000000000E+00 -0.68116169821E+03  0.68116169821E+03  0.00000000000E+00 0.  1.
         -6    2    1    2    0  503 -0.37025655852E+02  0.70338903906E+02 -0.41044496868E+03  0.45436230173E+03  0.17793697853E+03 0.  0.
        -24    2    3    3    0    0 -0.49184654496E+02  0.60046253824E+02 -0.41918303738E+03  0.43559467700E+03  0.89462958619E+02 0.  0.
          6    2    1    2  501    0  0.37025655852E+02 -0.70338903906E+02 -0.21250204833E+03  0.28501407766E+03  0.17250345888E+03 0.  0.
         24    2    5    5    0    0  0.69673361398E+01  0.28250824470E+02 -0.76556577623E+02  0.11434862090E+03  0.79800029249E+02 0.  0.
          5    1    5    5  501    0  0.30058319713E+02 -0.98589728376E+02 -0.13594547071E+03  0.17066545676E+03  0.47000000000E+01 0. -1.
        -11    1    6    6    0    0  0.29176145038E+02  0.21164295945E+02 -0.18524613645E+01  0.36091639964E+02  0.00000000000E+00 0.  1.
         12    1    6    6    0    0 -0.22208808899E+02  0.70865285250E+01 -0.74704116259E+02  0.78256980936E+02  0.00000000000E+00 0. -1.
         -5    1    3    3    0  503  0.12158998643E+02  0.10292650082E+02  0.87380686979E+01  0.18767624737E+02  0.47000000000E+01 0.  1.
         13    1    4    4    0    0  0.24648207447E+02  0.25372034065E+01 -0.94230191739E+02  0.97433570019E+02  0.00000000000E+00 0. -1.
        -14    1    4    4    0    0 -0.73832861942E+02  0.57509050417E+02 -0.32495284564E+03  0.33816110698E+03  0.00000000000E+00 0.  1.
</event>
<event>
12    1  0.1593360E-001  0.2092671E+03  0.7818608E-02  0.1142383E+00
         21   -1    0    0  501  502  0.00000000000E+00  0.00000000000E+00  0.26413918056E+03  0.26413918056E+03  0.00000000000E+00 0. -1.
         21   -1    0    0  502  503 -0.00000000000E+00 -0.00000000000E+00 -0.33521847800E+03  0.33521847800E+03  0.00000000000E+00 0. -1.
         -6    2    1    2    0  503  0.11190481468E+03  0.31741834972E+02  0.17814348869E+03  0.27392762697E+03  0.17254277909E+03 0.  0.
        -24    2    3    3    0    0  0.10998060335E+03 -0.31738704530E+01  0.57091759573E+02  0.14783868932E+03  0.80566757911E+02 0.  0.
          6    2    1    2  501    0 -0.11190481468E+03 -0.31741834972E+02 -0.24922278614E+03  0.32543003159E+03  0.17396113558E+03 0.  0.
         24    2    5    5    0    0 -0.10823288004E+01  0.23401674763E+02 -0.12332128580E+03  0.14880696450E+03  0.79915976711E+02 0.  0.
          5    1    5    5  501    0 -0.11082248588E+03 -0.55143509734E+02 -0.12590150034E+03  0.17662306709E+03  0.47000000000E+01 0. -1.
        -13    1    6    6    0    0  0.13963533775E+02  0.32381208446E+02 -0.13759531581E+02  0.37852974061E+02  0.00000000000E+00 0.  1.
         14    1    6    6    0    0 -0.15045862575E+02 -0.89795336835E+01 -0.10956175422E+03  0.11095399044E+03  0.00000000000E+00 0. -1.
         -5    1    3    3    0  503  0.19242113221E+01  0.34915705424E+02  0.12105172912E+03  0.12608893765E+03  0.47000000000E+01 0.  1.
         11    1    4    4    0    0  0.70569241421E+02  0.55189324887E+01 -0.80156876487E+01  0.71237123040E+02  0.00000000000E+00 0. -1.
        -12    1    4    4    0    0  0.39411361932E+02 -0.86928029416E+01  0.65107447222E+02  0.76601566277E+02  0.00000000000E+00 0.  1.
</event>
<event>
12    1  0.1593360E-001  0.2581615E+03  0.7818608E-02  0.1110334E+00
         21   -1    0    0  501  502  0.00000000000E+00  0.00000000000E+00  0.24883499388E+04  0.24883499388E+04  0.00000000000E+00 0. -1.
         21   -1    0    0  502  503 -0.00000000000E+00 -0.00000000000E+00 -0.26393674707E+02  0.26393674707E+02  0.00000000000E+00 0.  1.
         -6    2    1    2    0  503  0.13278007074E+03 -0.12187109662E+03  0.14413003219E+04  0.14619445365E+04  0.16568674858E+03 0.  0.
        -24    2    3    3    0    0  0.10287949411E+03 -0.80873303727E+02  0.13378173531E+04  0.13465942945E+04  0.80226194021E+02 0.  0.
          6    2    1    2  501    0 -0.13278007074E+03  0.12187109662E+03  0.10206559422E+04  0.10527990770E+04  0.18483569119E+03 0.  0.
         24    2    5    5    0    0 -0.12144246148E+03  0.51162539920E+02  0.41670482952E+03  0.44459904583E+03  0.81605880064E+02 0.  0.
          5    1    5    5  501    0 -0.11337609261E+02  0.70708556702E+02  0.60395111270E+03  0.60820003116E+03  0.47000000000E+01 0. -1.
        -11    1    6    6    0    0 -0.13180075364E+03  0.55697395765E+02  0.39514812680E+03  0.42025668427E+03  0.00000000000E+00 0.  1.
         12    1    6    6    0    0  0.10358292164E+02 -0.45348558456E+01  0.21556702722E+02  0.24342361561E+02  0.00000000000E+00 0. -1.
         -5    1    3    3    0  503  0.29900576628E+02 -0.40997792895E+02  0.10348296881E+03  0.11535024204E+03  0.47000000000E+01 0.  1.
         13    1    4    4    0    0  0.34330183834E+02 -0.69724408820E+02  0.89450364967E+03  0.89787350667E+03  0.00000000000E+00 0. -1.
        -14    1    4    4    0    0  0.68549310280E+02 -0.11148894907E+02  0.44331370342E+03  0.44872078784E+03  0.00000000000E+00 0.  1.
</event>
<event>
12    1  0.1593360E-001  0.2364500E+03  0.7818608E-02  0.1122190E+00
         21   -1    0    0  501  502  0.00000000000E+00  0.00000000000E+00  0.81606638327E+02  0.81606638327E+02  0.00000000000E+00 0.  1.
         21   -1    0    0  502  503 -0.00000000000E+00 -0.00000000000E+00 -0.73163747824E+03  0.73163747824E+03  0.00000000000E+00 0. -1.
         -6    2    1    2    0  503  0.21141962397E+02  0.16176985861E+03 -0.42777405904E+03  0.48877321446E+03  0.17114946642E+03 0.  0.
        -24    2    3    3    0    0  0.14976126790E+02  0.47207014305E+01 -0.12691262237E+03  0.14929987328E+03  0.77052378598E+02 0.  0.
          6    2    1    2  501    0 -0.21141962397E+02 -0.16176985861E+03 -0.22225678088E+03  0.32447090211E+03  0.17107548025E+03 0.  0.
         24    2    5    5    0    0  0.27739109046E+02 -0.67323760929E+02 -0.17999564218E+03  0.20993916696E+03  0.79837808503E+02 0.  0.
          5    1    5    5  501    0 -0.48881071443E+02 -0.94446097678E+02 -0.42261138701E+02  0.11453173515E+03  0.47000000000E+01 0. -1.
        -11    1    6    6    0    0  0.94430673700E+01 -0.83141723980E+02 -0.14470055418E+03  0.16715252965E+03  0.00000000000E+00 0.  1.
         12    1    6    6    0    0  0.18296041676E+02  0.15817963051E+02 -0.35295087997E+02  0.42786637316E+02  0.00000000000E+00 0. -1.
         -5    1    3    3    0  503  0.61658356068E+01  0.15704915718E+03 -0.30086143667E+03  0.33947334118E+03  0.47000000000E+01 0.  1.
         13    1    4    4    0    0  0.28786202781E+02  0.32584561815E+02 -0.96309324438E+02  0.10566875183E+03  0.00000000000E+00 0. -1.
        -14    1    4    4    0    0 -0.13810075992E+02 -0.27863860385E+02 -0.30603297932E+02  0.43631121447E+02  0.00000000000E+00 0.  1.
</event>
<event>
12    1  0.1593360E-001  0.2098910E+03  0.7818608E-02  0.1141744E+00
         21   -1    0    0  503  502  0.00000000000E+00  0.00000000000E+00  0.19869805168E+03  0.19869805168E+03  0.00000000000E+00 0. -1.
         21   -1    0    0  501  503 -0.00000000000E+00 -0.00000000000E+00 -0.52080064318E+03  0.52080064318E+03  0.00000000000E+00 0. -1.
          6    2    1    2  501    0  0.11208235824E+03 -0.40999270425E+02 -0.43397133470E+03  0.48206362787E+03  0.17265812105E+03 0.  0.
         24    2    3    3    0    0  0.20350935143E+02  0.33896768153E+02 -0.23078071765E+03  0.24683482981E+03  0.78131569262E+02 0.  0.
         -6    2    1    2    0  502 -0.11208235824E+03  0.40999270425E+02  0.11186874320E+03  0.23743506700E+03  0.17209706602E+03 0.  0.
        -24    2    5    5    0    0  0.10596017864E+02  0.33123006788E+02  0.51949326415E+02  0.10059776945E+03  0.78814779901E+02 0.  0.
          5    1    3    3  501    0  0.91731423096E+02 -0.74896038578E+02 -0.20319061705E+03  0.23522879805E+03  0.47000000000E+01 0. -1.
        -11    1    4    4    0    0 -0.19522336779E+02  0.16335388453E+02 -0.22273529330E+02  0.33824202253E+02  0.00000000000E+00 0.  1.
         12    1    4    4    0    0  0.39873271922E+02  0.17561379701E+02 -0.20850718832E+03  0.21301062756E+03  0.00000000000E+00 0. -1.
         -5    1    5    5    0  502 -0.12267837610E+03  0.78762636364E+01  0.59919416785E+02  0.13683729755E+03  0.47000000000E+01 0.  1.
         11    1    6    6    0    0 -0.28816205324E+02 -0.24735736209E+01  0.33775146211E+02  0.44466310364E+02  0.00000000000E+00 0. -1.
        -12    1    6    6    0    0  0.39412223189E+02  0.35596580409E+02  0.18174180203E+02  0.56131459090E+02  0.00000000000E+00 0.  1.
</event>
<event>
12    1  0.1593360E-001  0.1856365E+03  0.7818608E-02  0.1163071E+00
         21   -1    0    0  501  502  0.00000000000E+00  0.00000000000E+00  0.87881470531E+03  0.87881470531E+03  0.00000000000E+00 0. -1.
         21   -1    0    0  502  503 -0.00000000000E+00 -0.00000000000E+00 -0.49824874571E+02  0.49824874571E+02  0.00000000000E+00 0. -1.
         -6    2    1    2    0  503 -0.62738909515E+02 -0.25141620347E+02  0.19242614053E+03  0.26556021696E+03  0.17007685742E+03 0.  0.
        -24    2    3    3    0    0 -0.53744182821E+02 -0.72510151674E+02  0.12280737732E+03  0.18074544784E+03  0.97165352409E+02 0.  0.
          6    2    1    2  501    0  0.62738909515E+02  0.25141620347E+02  0.63656369020E+03  0.66307936292E+03  0.17289487560E+03 0.  0.
         24    2    5    5    0    0  0.37168260931E+02 -0.48979933427E+02  0.26399582612E+03  0.28232121639E+03  0.78936427053E+02 0.  0.
          5    1    5    5  501    0  0.25570648584E+02  0.74121553775E+02  0.37256786409E+03  0.38075814654E+03  0.47000000000E+01 0. -1.
        -11    1    6    6    0    0 -0.18121184281E+02  0.11859487408E+01  0.10637587740E+03  0.10791483256E+03  0.00000000000E+00 0.  1.
         12    1    6    6    0    0  0.55289445212E+02 -0.50165882168E+02  0.15761994872E+03  0.17440638383E+03  0.00000000000E+00 0. -1.
         -5    1    3    3    0  503 -0.89947266941E+01  0.47368531327E+02  0.69618763218E+02  0.84814769117E+02  0.47000000000E+01 0.  1.
         11    1    4    4    0    0  0.19714135563E+02 -0.46864630477E+02  0.70776739477E+02  0.87145209747E+02  0.00000000000E+00 0. -1.
        -12    1    4    4    0    0 -0.73458318384E+02 -0.25645521198E+02  0.52030637838E+02  0.93600238093E+02  0.00000000000E+00 0.  1.
</event>
<event>
12    1  0.1593360E-001  0.1820174E+03  0.7818608E-02  0.1166256E+00
         21   -1    0    0  501  502  0.00000000000E+00  0.00000000000E+00  0.74159858972E+03  0.74159858972E+03  0.00000000000E+00 0. -1.
         21   -1    0    0  502  503 -0.00000000000E+00 -0.00000000000E+00 -0.73774054458E+02  0.73774054458E+02  0.00000000000E+00 0. -1.
         -6    2    1    2    0  503 -0.37578709454E+02  0.42267714781E+02  0.77017597001E+02  0.19764119712E+03  0.17300755311E+03 0.  0.
        -24    2    3    3    0    0 -0.55322508537E+02  0.49045732820E+02  0.11284205721E+03  0.15682127694E+03  0.79959484533E+02 0.  0.
          6    2    1    2  501    0  0.37578709454E+02 -0.42267714781E+02  0.59080693826E+03  0.61773144706E+03  0.17129093168E+03 0.  0.
         24    2    5    5    0    0  0.56796886181E+02 -0.27044274408E+01  0.17948399081E+03  0.20403681436E+03  0.78634079457E+02 0.  0.
          5    1    5    5  501    0 -0.19218176727E+02 -0.39563287340E+02  0.41132294745E+03  0.41369463270E+03  0.47000000000E+01 0. -1.
        -11    1    6    6    0    0  0.35798189741E+02  0.10617862416E+00  0.17931162285E+03  0.18285015655E+03  0.00000000000E+00 0.  1.
         12    1    6    6    0    0  0.20998696440E+02 -0.28106060650E+01  0.17236796179E+00  0.21186657815E+02  0.00000000000E+00 0. -1.
         -5    1    3    3    0  503  0.17743799082E+02 -0.67780180393E+01 -0.35824460205E+02  0.40819920179E+02  0.47000000000E+01 0.  1.
         11    1    4    4    0    0  0.88725194013E+01  0.31947119451E+02  0.10446520668E+02  0.34763052740E+02  0.00000000000E+00 0. -1.
        -12    1    4    4    0    0 -0.64195027938E+02  0.17098613369E+02  0.10239553654E+03  0.12205822420E+03  0.00000000000E+00 0.  1.
</event>
<event>
12    1  0.1593360E-001  0.2003189E+03  0.7818608E-02  0.1149571E+00
         21   -1    0    0  503  502  0.00000000000E+00  0.00000000000E+00  0.32557909209E+03  0.32557909209E+03  0.00000000000E+00 0.  1.
         21   -1    0    0  501  503 -0.00000000000E+00 -0.00000000000E+00 -0.12404208442E+03  0.12404208442E+03  0.00000000000E+00 0. -1.
          6    2    1    2  501    0  0.95356115771E+02  0.32424845871E+02  0.79864253393E+02  0.21565245027E+03  0.17315750313E+03 0.  0.
         24    2    3    3    0    0  0.57733105772E+02 -0.11796534185E+02  0.11108249042E+03  0.14956395158E+03  0.80980159393E+02 0.  0.
         -6    2    1    2    0  502 -0.95356115771E+02 -0.32424845871E+02  0.12167275427E+03  0.23396872624E+03  0.17260633327E+03 0.  0.
        -24    2    5    5    0    0 -0.84338210582E+02 -0.78591771929E+02  0.47738633863E+02  0.14598507176E+03  0.75783003592E+02 0.  0.
          5    1    3    3  501    0  0.37623010000E+02  0.44221380057E+02 -0.31218237023E+02  0.66088498685E+02  0.47000000000E+01 0. -1.
        -13    1    4    4    0    0  0.77209804489E+02 -0.12417906292E+02  0.10065229252E+03  0.12746153261E+03  0.00000000000E+00 0.  1.
         14    1    4    4    0    0 -0.19476698717E+02  0.62137210648E+00  0.10430197892E+02  0.22102418969E+02  0.00000000000E+00 0. -1.
         -5    1    5    5    0  502 -0.11017905189E+02  0.46166926058E+02  0.73934120408E+02  0.87983654487E+02  0.47000000000E+01 0.  1.
         13    1    6    6    0    0 -0.38634500675E+02  0.85160639786E+01  0.12384525496E+02  0.41455089673E+02  0.00000000000E+00 0. -1.
        -14    1    6    6    0    0 -0.45703709907E+02 -0.87107835908E+02  0.35354108366E+02  0.10452998208E+03  0.00000000000E+00 0.  1.
</event>
<event>
12    1  0.1593360E-001  0.1999903E+03  0.7818608E-02  0.1150009E+00
         21   -1    0    0  503  502  0.00000000000E+00  0.00000000000E+00  0.38819832708E+03  0.38819832708E+03  0.00000000000E+00 0. -1.
         21   -1    0    0  501  503 -0.00000000000E+00 -0.00000000000E+00 -0.14382098255E+03  0.14382098255E+03  0.00000000000E+00 0.  1.
          6    2    1    2  501    0 -0.35375433906E+02  0.92937390615E+02 -0.20309621053E+02  0.20101890302E+03  0.17351466442E+03 0.  0.
         24    2    3    3    0    0 -0.91847779764E+01  0.95402671372E+02 -0.71702249179E+02  0.14309377641E+03  0.78412922782E+02 0.  0.
         -6    2    1    2    0  502  0.35375433906E+02 -0.92937390615E+02  0.26468696558E+03  0.33100040661E+03  0.17208515197E+03 0.  0.
        -24    2    5    5    0    0 -0.44669895760E+02 -0.44486661138E+02  0.17021697356E+03  0.19795380808E+03  0.78977398269E+02 0.  0.
          5    1    3    3  501    0 -0.26190655930E+02 -0.24652807572E+01  0.51392628127E+02  0.57925126612E+02  0.47000000000E+01 0. -1.
        -11    1    4    4    0    0  0.20904134773E+02  0.72864965775E+02 -0.18637482992E+02  0.78061782329E+02  0.00000000000E+00 0.  1.
         12    1    4    4    0    0 -0.30088912750E+02  0.22537705597E+02 -0.53064766187E+02  0.65031994084E+02  0.00000000000E+00 0. -1.
         -5    1    5    5    0  502  0.80045329666E+02 -0.48450729478E+02  0.94469992018E+02  0.13304659853E+03  0.47000000000E+01 0.  1.
         11    1    6    6    0    0 -0.72872536171E+01 -0.59760450616E+02  0.92392040685E+02  0.11027558526E+03  0.00000000000E+00 0. -1.
        -12    1    6    6    0    0 -0.37382642143E+02  0.15273789478E+02  0.77824932880E+02  0.87678222817E+02  0.00000000000E+00 0.  1.
</event>
<event>
12    1  0.1593360E-001  0.2163828E+03  0.7818608E-02  0.1136747E+00
         21   -1    0    0  501  502  0.00000000000E+00  0.00000000000E+00  0.47239884075E+02  0.47239884075E+02  0.00000000000E+00 0.  1.
         21   -1    0    0  502  503 -0.00000000000E+00 -0.00000000000E+00 -0.10220661116E+04  0.10220661116E+04  0.00000000000E+00 0.  1.
         -6    2    1    2    0  503  0.94203830605E+02 -0.94357925170E+02 -0.58447444989E+03  0.62299216664E+03  0.16950244063E+03 0.  0.
        -24    2    3    3    0    0  0.88687479734E+02 -0.11344733742E+03 -0.57880692592E+03  0.60180144663E+03  0.80073442794E+02 0.  0.
          6    2    1    2  501    0 -0.94203830605E+02  0.94357925170E+02 -0.39035177760E+03  0.44631382899E+03  0.17042225188E+03 0.  0.
         24    2    5    5    0    0 -0.11157729773E+03  0.16838204195E+02 -0.23791168733E+03  0.27435099690E+03  0.77029085713E+02 0.  0.
          5    1    5    5  501    0  0.17373467120E+02  0.77519720975E+02 -0.15244009027E+03  0.17196283209E+03  0.47000000000E+01 0. -1.
        -11    1    6    6    0    0 -0.47165776786E+02  0.36264730218E+02 -0.61605008853E+02  0.85644137414E+02  0.00000000000E+00 0.  1.
         12    1    6    6    0    0 -0.64411520940E+02 -0.19426526023E+02 -0.17630667847E+03  0.18870685949E+03  0.00000000000E+00 0. -1.
         -5    1    3    3    0  503  0.55163508716E+01  0.19089412247E+02 -0.56675239718E+01  0.21190720017E+02  0.47000000000E+01 0.  1.
         11    1    4    4    0    0 -0.97990145228E+01 -0.36688804613E+02 -0.17752560902E+03  0.18154181592E+03  0.00000000000E+00 0. -1.
        -12    1    4    4    0    0  0.98486494257E+02 -0.76758532804E+02 -0.40128131690E+03  0.42025963071E+03  0.00000000000E+00 0.  1.
</event>
<event>
12    1  0.1593360E-001  0.1755344E+03  0.7818608E-02  0.1172352E+00
         21   -1    0    0  501  502  0.00000000000E+00  0.00000000000E+00  0.23023970749E+03  0.23023970749E+03  0.00000000000E+00 0. -1.
         21   -1    0    0  502  503 -0.00000000000E+00 -0.00000000000E+00 -0.27243014511E+03  0.27243014511E+03  0.00000000000E+00 0. -1.
         -6    2    1    2    0  503  0.17080516512E+02  0.24333770182E+02 -0.20065409151E+03  0.26618927360E+03  0.17236817724E+03 0.  0.
        -24    2    3    3    0    0  0.15640898343E+02  0.17827088841E+02 -0.22577653875E+03  0.23977645933E+03  0.77170345372E+02 0.  0.
          6    2    1    2  501    0 -0.17080516512E+02 -0.24333770182E+02  0.15846365389E+03  0.23648057900E+03  0.17299843417E+03 0.  0.
         24    2    5    5    0    0  0.35346589392E+02 -0.56004081717E+02  0.66877281907E+02  0.12620019271E+03  0.84071869582E+02 0.  0.
          5    1    5    5  501    0 -0.52427105904E+02  0.31670311535E+02  0.91586371988E+02  0.11028038629E+03  0.47000000000E+01 0. -1.
        -11    1    6    6    0    0  0.59526545914E+02 -0.18385013931E+02  0.39321779543E+02  0.73672387990E+02  0.00000000000E+00 0.  1.
         12    1    6    6    0    0 -0.24179956522E+02 -0.37619067786E+02  0.27555502364E+02  0.52527804723E+02  0.00000000000E+00 0. -1.
         -5    1    3    3    0  503  0.14396181693E+01  0.65066813409E+01  0.25122447236E+02  0.26412814270E+02  0.47000000000E+01 0.  1.
         11    1    4    4    0    0  0.46387242006E+02  0.13568660882E+02 -0.15807469998E+03  0.16529820190E+03  0.00000000000E+00 0. -1.
        -12    1    4    4    0    0 -0.30746343663E+02  0.42584279585E+01 -0.67701838767E+02  0.74478257430E+02  0.00000000000E+00 0.  1.
</event>
<event>
12    1  0.1593360E-001  0.1740003E+03  0.7818608E-02  0.1173813E+00
         21   -1    0    0  503  502  0.00000000000E+00  0.00000000000E+00  0.46750677765E+03  0.46750677765E+03  0.00000000000E+00 0. -1.
         21   -1    0    0  501  503 -0.00000000000E+00 -0.00000000000E+00 -0.39883963228E+03  0.39883963228E+03  0.00000000000E+00 0. -1.
          6    2    1    2  501    0 -0.11393484983E+02 -0.19625661423E+02 -0.36218441401E+03  0.40168611719E+03  0.17221849177E+03 0.  0.
         24    2    3    3    0    0 -0.54108401697E+02 -0.22873671516E+02 -0.12209035765E+03  0.15775506222E+03  0.80806436891E+02 0.  0.
         -6    2    1    2    0  502  0.11393484983E+02  0.19625661423E+02  0.43085155938E+03  0.46466029274E+03  0.17251418300E+03 0.  0.
        -24    2    5    5    0    0  0.53260179476E+02 -0.21687290300E+02  0.35683301936E+03  0.37000082752E+03  0.79144319962E+02 0.  0.
          5    1    3    3  501    0  0.42714916714E+02  0.32480100926E+01 -0.24009405636E+03  0.24393105497E+03  0.47000000000E+01 0. -1.
        -13    1    4    4    0    0 -0.36253031889E+02  0.15020225649E+02 -0.13720738922E+02  0.41571001627E+02  0.00000000000E+00 0.  1.
         14    1    4    4    0    0 -0.17855369808E+02 -0.37893897165E+02 -0.10836961873E+03  0.11618406060E+03  0.00000000000E+00 0. -1.
         -5    1    5    5    0  502 -0.41866694493E+02  0.41312951723E+02  0.74018540027E+02  0.94659465220E+02  0.47000000000E+01 0.  1.
         13    1    6    6    0    0  0.36600713531E+02 -0.32550278911E+00  0.32946786010E+03  0.33149477978E+03  0.00000000000E+00 0. -1.
        -14    1    6    6    0    0  0.16659465945E+02 -0.21361787511E+02  0.27365159259E+02  0.38506047740E+02  0.00000000000E+00 0.  1.
</event>
<event>
12    1  0.1593360E-001  0.1815857E+03  0.7818608E-02  0.1166337E+00
         21   -1    0    0  501  502  0.00000000000E+00  0.00000000000E+00  0.11466496686E+04  0.11466496686E+04  0.00000000000E+00 0.  1.
         21   -1    0    0  502  503 -0.00000000000E+00 -0.00000000000E+00 -0.34395452800E+02  0.34395452800E+02  0.00000000000E+00 0.  1.
         -6    2    1    2    0  503 -0.29645599146E+02 -0.50648755398E+02  0.31650237156E+03  0.36489328107E+03  0.17184061626E+03 0.  0.
        -24    2    3    3    0    0 -0.72259530855E+02  0.21397889792E+02  0.19912448071E+03  0.22064930192E+03  0.57933117782E+02 0.  0.
          6    2    1    2  501    0  0.29645599146E+02  0.50648755398E+02  0.79575184422E+03  0.81615184031E+03  0.17157701154E+03 0.  0.
         24    2    5    5    0    0  0.60077346546E+02  0.37868608865E+02  0.75615648880E+03  0.76438983141E+03  0.86463053905E+02 0.  0.
          5    1    5    5  501    0 -0.30431747400E+02  0.12780146533E+02  0.39595355413E+02  0.51762008902E+02  0.47000000000E+01 0. -1.
        -13    1    6    6    0    0 -0.15510760953E+02  0.31408815534E+02  0.19396487083E+03  0.19710268521E+03  0.00000000000E+00 0.  1.
         14    1    6    6    0    0  0.75588107500E+02  0.64597933310E+01  0.56219161797E+03  0.56728714620E+03  0.00000000000E+00 0. -1.
         -5    1    3    3    0  503  0.42613931709E+02 -0.72046645190E+02  0.11737789085E+03  0.14424397915E+03  0.47000000000E+01 0.  1.
         11    1    4    4    0    0  0.10107788636E+02  0.37873580397E+01  0.24506637197E+02  0.26778475288E+02  0.00000000000E+00 0. -1.
        -12    1    4    4    0    0 -0.82367319491E+02  0.17610531752E+02  0.17461784351E+03  0.19387082664E+03  0.00000000000E+00 0.  1.
</event>
<event>
12    1  0.1593360E-001  0.2811943E+03  0.7818608E-02  0.1095540E+00
         21   -1    0    0  501  502  0.00000000000E+00  0.00000000000E+00  0.10626142024E+03  0.10626142024E+03  0.00000000000E+00 0. -1.
         21   -1    0    0  502  503 -0.00000000000E+00 -0.00000000000E+00 -0.11005038714E+04  0.11005038714E+04  0.00000000000E+00 0. -1.
         -6    2    1    2    0  503 -0.88110590243E+02 -0.20059302546E+03 -0.84293896315E+03  0.88744886635E+03  0.17034775256E+03 0.  0.
        -24    2    3    3    0    0 -0.10993948565E+03 -0.12152351161E+03 -0.69202906779E+03  0.71562228164E+03  0.79726814337E+02 0.  0.
          6    2    1    2  501    0  0.88110590243E+02  0.20059302546E+03 -0.15130348804E+03  0.31931642533E+03  0.17626456256E+03 0.  0.
         24    2    5    5    0    0  0.70297002828E+02  0.69123275693E+02 -0.18778067713E+02  0.13173525347E+03  0.85333846342E+02 0.  0.
          5    1    5    5  501    0  0.17813587415E+02  0.13146974977E+03 -0.13252542033E+03  0.18758117186E+03  0.47000000000E+01 0. -1.
        -11    1    6    6    0    0  0.69698893325E+02  0.85318518196E+02 -0.27191869019E+02  0.11347503258E+03  0.00000000000E+00 0.  1.
         12    1    6    6    0    0  0.59810950321E+00 -0.16195242503E+02  0.84138013057E+01  0.18260220895E+02  0.00000000000E+00 0. -1.
         -5    1    3    3    0  503  0.21828895408E+02 -0.79069513857E+02 -0.15090989536E+03  0.17182658471E+03  0.47000000000E+01 0.  1.
         11    1    4    4    0    0 -0.87721090153E+02 -0.82493021367E+02 -0.33907050620E+03  0.35981786560E+03  0.00000000000E+00 0. -1.
        -12    1    4    4    0    0 -0.22218395498E+02 -0.39030490240E+02 -0.35295856160E+03  0.35580441604E+03  0.00000000000E+00 0.  1.
</event>
<event>
12    1  0.1593360E-001  0.4057686E+03  0.7818608E-02  0.1042005E+00
         21   -1    0    0  503  502  0.00000000000E+00  0.00000000000E+00  0.10920465633E+03  0.10920465633E+03  0.00000000000E+00 0.  1.
         21   -1    0    0  501  503 -0.00000000000E+00 -0.00000000000E+00 -0.15942807324E+04  0.15942807324E+04  0.00000000000E+00 0. -1.
          6    2    1    2  501    0  0.25161625595E+03 -0.26788991925E+03 -0.95303576247E+03  0.10358210997E+04  0.17196638289E+03 0.  0.
         24    2    3    3    0    0  0.10944741907E+03 -0.73673555021E+02 -0.26305960812E+03  0.30505358677E+03  0.80316891908E+02 0.  0.
         -6    2    1    2    0  502 -0.25161625595E+03  0.26788991925E+03 -0.53204031359E+03  0.66766428908E+03  0.16623164116E+03 0.  0.
        -24    2    5    5    0    0 -0.23450830798E+03  0.26795201053E+03 -0.42910032321E+03  0.56320655906E+03  0.79259790175E+02 0.  0.
          5    1    3    3  501    0  0.14216883689E+03 -0.19421636423E+03 -0.68997615435E+03  0.73076751288E+03  0.47000000000E+01 0. -1.
        -13    1    4    4    0    0 -0.10554804588E+02 -0.61790886998E+01 -0.49277396238E+02  0.50772500598E+02  0.00000000000E+00 0.  1.
         14    1    4    4    0    0  0.12000222366E+03 -0.67494466321E+02 -0.21378221188E+03  0.25428108617E+03  0.00000000000E+00 0. -1.
         -5    1    5    5    0  502 -0.17107947978E+02 -0.62091272354E-01 -0.10293999038E+03  0.10445773001E+03  0.47000000000E+01 0.  1.
         13    1    6    6    0    0 -0.10021303390E+03  0.13805257451E+03 -0.14894749783E+03  0.22646527902E+03  0.00000000000E+00 0. -1.
        -14    1    6    6    0    0 -0.13429527408E+03  0.12989943601E+03 -0.28015282538E+03  0.33674128004E+03  0.00000000000E+00 0.  1.
</event>
<event>
12    1  0.1593360E-001  0.1810178E+03  0.7818608E-02  0.1166957E+00
         21   -1    0    0  503  502  0.00000000000E+00  0.00000000000E+00  0.13798002202E+03  0.13798002202E+03  0.00000000000E+00 0. -1.
         21   -1    0    0  501  503 -0.00000000000E+00 -0.00000000000E+00 -0.24007455134E+03  0.24007455134E+03  0.00000000000E+00 0. -1.
          6    2    1    2  501    0 -0.55686930461E+02 -0.84421560455E+00 -0.73236952098E+02  0.19475098920E+03  0.17164658376E+03 0.  0.
         24    2    3    3    0    0 -0.38911830120E+02 -0.65621985957E+02 -0.44953461400E+02  0.12195257322E+03  0.83852494649E+02 0.  0.
         -6    2    1    2    0  502  0.55686930461E+02  0.84421560455E+00 -0.28857577227E+02  0.18330358415E+03  0.17223732835E+03 0.  0.
        -24    2    5    5    0    0  0.10292969244E+03  0.14234088989E+02 -0.27405365313E+02  0.13395415470E+03  0.79972061615E+02 0.  0.
          5    1    3    3  501    0 -0.16775100341E+02  0.64777770352E+02 -0.28283490698E+02  0.72798415981E+02  0.47000000000E+01 0. -1.
        -13    1    4    4    0    0  0.18573189843E+02 -0.21002668251E+02  0.11041556794E+02  0.30132896161E+02  0.00000000000E+00 0.  1.
         14    1    4    4    0    0 -0.57485019963E+02 -0.44619317706E+02 -0.55995018193E+02  0.91819677059E+02  0.00000000000E+00 0. -1.
         -5    1    5    5    0  502 -0.47242761974E+02 -0.13389873384E+02 -0.14522119138E+01  0.49349429456E+02  0.47000000000E+01 0.  1.
         13    1    6    6    0    0  0.85740701566E+02 -0.81920742246E+01 -0.48357496634E+02  0.98777656714E+02  0.00000000000E+00 0. -1.
        -14    1    6    6    0    0  0.17188990869E+02  0.22426163213E+02  0.20952131322E+02  0.35176497985E+02  0.00000000000E+00 0.  1.
</event>
<event>
12    1  0.1593360E-001  0.1866603E+03  0.7818608E-02  0.1162203E+00
         21   -1    0    0  503  502  0.00000000000E+00  0.00000000000E+00  0.18169000514E+04  0.18169000514E+04  0.00000000000E+00 0.  1.
         21   -1    0    0  501  503 -0.00000000000E+00 -0.00000000000E+00 -0.19172866258E+02  0.19172866258E+02  0.00000000000E+00 0.  1.
          6    2    1    2  501    0 -0.41478498115E+02 -0.49787452227E+02  0.79087635139E+03  0.81260535197E+03  0.17505084590E+03 0.  0.
         24    2    3    3    0    0  0.42839315718E+02 -0.11271237964E+02  0.32423160591E+03  0.33681926455E+03  0.79742303247E+02 0.  0.
         -6    2    1    2    0  502  0.41478498115E+02  0.49787452227E+02  0.10068508337E+04  0.10234675656E+04  0.17186622819E+03 0.  0.
        -24    2    5    5    0    0 -0.41111876808E+02  0.25188963743E+02  0.39759438615E+03  0.40812882596E+03  0.78505874786E+02 0.  0.
          5    1    3    3  501    0 -0.84317813833E+02 -0.38516214263E+02  0.46664474549E+03  0.47578608742E+03  0.47000000000E+01 0. -1.
        -13    1    4    4    0    0 -0.71535418319E+01  0.45778716264E+01  0.12187198179E+00  0.84938167009E+01  0.00000000000E+00 0.  1.
         14    1    4    4    0    0  0.49992857549E+02 -0.15849109590E+02  0.32410973393E+03  0.32832544785E+03  0.00000000000E+00 0. -1.
         -5    1    5    5    0  502  0.82590374924E+02  0.24598488484E+02  0.60925644755E+03  0.61533873968E+03  0.47000000000E+01 0.  1.
         13    1    6    6    0    0 -0.13518763061E+02 -0.28356972656E+02  0.15663337754E+03  0.15975258937E+03  0.00000000000E+00 0. -1.
        -14    1    6    6    0    0 -0.27593113747E+02  0.53545936399E+02  0.24096100861E+03  0.24837623659E+03  0.00000000000E+00 0.  1.
</event>
<event>
12    1  0.1593360E-001  0.2393903E+03  0.7818608E-02  0.1120204E+00
         21   -1    0    0  503  502  0.00000000000E+00  0.00000000000E+00  0.14489892085E+03  0.14489892085E+03  0.00000000000E+00 0.  1.
         21   -1    0    0  501  503 -0.00000000000E+00 -0.00000000000E+00 -0.61513478294E+03  0.61513478294E+03  0.00000000000E+00 0. -1.
          6    2    1    2  501    0 -0.15231305038E+03 -0.65142845125E+02 -0.46222054817E+03  0.52053392157E+03  0.17281456179E+03 0.  0.
         24    2    3    3    0    0 -0.14013476766E+03 -0.73944028165E+02 -0.47038501253E+03  0.50279921348E+03  0.80246598975E+02 0.  0.
         -6    2    1    2    0  502  0.15231305038E+03  0.65142845125E+02 -0.80153139147E+01  0.23949978222E+03  0.17278033695E+03 0.  0.
        -24    2    5    5    0    0  0.16097599861E+03  0.83096567727E+02  0.25805892218E+02  0.19996060151E+03  0.80622493055E+02 0.  0.
          5    1    3    3  501    0 -0.12178282727E+02  0.88011830393E+01  0.81644643598E+01  0.17734708099E+02  0.47000000000E+01 0. -1.
        -13    1    4    4    0    0 -0.67555443309E+02 -0.29886719195E+02 -0.10968606241E+03  0.13224214983E+03  0.00000000000E+00 0.  1.
         14    1    4    4    0    0 -0.72579324349E+02 -0.44057308970E+02 -0.36069895012E+03  0.37055706364E+03  0.00000000000E+00 0. -1.
         -5    1    5    5    0  502 -0.86629482202E+01 -0.17953722602E+02 -0.33821206133E+02  0.39539180712E+02  0.47000000000E+01 0.  1.
         11    1    6    6    0    0  0.70272000918E+01  0.20230632920E+02 -0.18023840515E+02  0.27991407188E+02  0.00000000000E+00 0. -1.
        -12    1    6    6    0    0  0.15394879851E+03  0.62865934807E+02  0.43829732733E+02  0.17196919432E+03  0.00000000000E+00 0.  1.
</event>
<event>
12    1  0.1593360E-001  0.1997566E+03  0.7818608E-02  0.1150274E+00
         21   -1    0    0  501  502  0.00000000000E+00  0.00000000000E+00  0.25859069469E+03  0.25859069469E+03  0.00000000000E+00 0. -1.
         21   -1    0    0  502  503 -0.00000000000E+00 -0.00000000000E+00 -0.18575348367E+03  0.18575348367E+03  0.00000000000E+00 0. -1.
         -6    2    1    2    0  503  0.96609864252E+02 -0.27435125652E+02 -0.56600463836E+02  0.20762062922E+03  0.17267472652E+03 0.  0.
        -24    2    3    3    0    0  0.11911198325E+03 -0.62488331650E+02 -0.41658607570E+02  0.16311870028E+03  0.82339629896E+02 0.  0.
          6    2    1    2  501    0 -0.96609864252E+02  0.27435125652E+02  0.12943767485E+03  0.23672354914E+03  0.17087356454E+03 0.  0.
         24    2    5    5    0    0  0.18799821510E+02  0.10132101803E+02  0.66971874018E+02  0.10427410039E+03  0.77017941589E+02 0.  0.
          5    1    5    5  501    0 -0.11540968576E+03  0.17303023849E+02  0.62465800835E+02  0.13244944876E+03  0.47000000000E+01 0. -1.
        -11    1    6    6    0    0 -0.37793252434E+01  0.40731724352E+02  0.42848426959E+02  0.59239719453E+02  0.00000000000E+00 0.  1.
         12    1    6    6    0    0  0.22579146753E+02 -0.30599622549E+02  0.24123447060E+02  0.45034380936E+02  0.00000000000E+00 0. -1.
         -5    1    3    3    0  503 -0.22502118999E+02  0.35053205998E+02 -0.14941856266E+02  0.44501928935E+02  0.47000000000E+01 0.  1.
         11    1    4    4    0    0  0.51879295592E+02  0.16055789741E+02 -0.13358387495E+02  0.55925809889E+02  0.00000000000E+00 0. -1.
        -12    1    4    4    0    0  0.67232687659E+02 -0.78544121391E+02 -0.28300220075E+02  0.10719289040E+03  0.00000000000E+00 0.  1.
</event>
<event>
12    1  0.1593360E-001  0.1880503E+03  0.7818608E-02  0.1160731E+00
         21   -1    0    0  501  502  0.00000000000E+00  0.00000000000E+00  0.37022269858E+03  0.37022269858E+03  0.00000000000E+00 0.  1.
         21   -1    0    0  502  503 -0.00000000000E+00 -0.00000000000E+00 -0.96860418772E+02  0.96860418772E+02  0.00000000000E+00 0.  1.
         -6    2    1    2    0  503 -0.10033270879E+02  0.76353002021E+02  0.17452968845E+03  0.25656098517E+03  0.17155896805E+03 0.  0.
        -24    2    3    3    0    0 -0.29463317293E+02  0.24563163596E+02  0.20627911896E+02  0.92953036419E+02  0.82117721343E+02 0.  0.
          6    2    1    2  501    0  0.10033270879E+02 -0.76353002021E+02  0.98832591351E+02  0.21052213218E+03  0.16917812974E+03 0.  0.
         24    2    5    5    0    0 -0.37947520968E+01  0.23068629418E+02  0.21653360054E+02  0.83815389021E+02  0.77521542995E+02 0.  0.
          5    1    5    5  501    0  0.13828022976E+02 -0.99421631439E+02  0.77179231296E+02  0.12670674315E+03  0.47000000000E+01 0. -1.
        -13    1    6    6    0    0 -0.16903129273E+02 -0.25501032492E+02  0.98606654233E+01  0.32144224364E+02  0.00000000000E+00 0.  1.
         14    1    6    6    0    0  0.13108377176E+02  0.48569661911E+02  0.11792694631E+02  0.51671164657E+02  0.00000000000E+00 0. -1.
         -5    1    3    3    0  503  0.19430046413E+02  0.51789838425E+02  0.15390177656E+03  0.16360794875E+03  0.47000000000E+01 0.  1.
         13    1    4    4    0    0 -0.54480949821E+01 -0.98663497858E+00  0.48094180186E+02  0.48411830737E+02  0.00000000000E+00 0. -1.
        -14    1    4    4    0    0 -0.24015222310E+02  0.25549798575E+02 -0.27466268290E+02  0.44541205682E+02  0.00000000000E+00 0.  1.
</event>
<event>
12    1  0.1593360E-001  0.2031284E+03  0.7818608E-02  0.1147318E+00
         21   -1    0    0  503  502  0.00000000000E+00  0.00000000000E+00  0.39262274749E+03  0.39262274749E+03  0.00000000000E+00 0.  1.
         21   -1    0    0  501  503 -0.00000000000E+00 -0.00000000000E+00 -0.10538312752E+03  0.10538312752E+03  0.00000000000E+00 0.  1.
          6    2    1    2  501    0  0.79771268002E+02 -0.72497055916E+02  0.16459893288E+03  0.26072572569E+03  0.17107254898E+03 0.  0.
         24    2    3    3    0    0  0.11920021642E+03 -0.46863143046E+02  0.13925570410E+03  0.20709636146E+03  0.84213455185E+02 0.  0.
         -6    2    1    2    0  502 -0.79771268002E+02  0.72497055916E+02  0.12264068709E+03  0.23728014933E+03  0.17216809466E+03 0.  0.
        -24    2    5    5    0    0 -0.24081025381E+02  0.55851872407E+02 -0.25704002783E+01  0.99155670481E+02  0.78268209359E+02 0.  0.
          5    1    3    3  501    0 -0.39428948419E+02 -0.25633912870E+02  0.25343228779E+02  0.53629364227E+02  0.47000000000E+01 0. -1.
        -13    1    4    4    0    0  0.95050149345E+02 -0.54976534575E+02  0.62770156978E+02  0.12647941671E+03  0.00000000000E+00 0.  1.
         14    1    4    4    0    0  0.24150067076E+02  0.81133915295E+01  0.76485547124E+02  0.80616944750E+02  0.00000000000E+00 0. -1.
         -5    1    5    5    0  502 -0.55690242620E+02  0.16645183509E+02  0.12521108737E+03  0.13812447885E+03  0.47000000000E+01 0.  1.
         11    1    6    6    0    0 -0.29177286829E+01 -0.18719561317E+02 -0.97505929763E+01  0.21307491170E+02  0.00000000000E+00 0. -1.
        -12    1    6    6    0    0 -0.21163296698E+02  0.74571433724E+02  0.71801926981E+01  0.77848179311E+02  0.00000000000E+00 0.  1.
</event>
<event>
12    1  0.1593360E-001  0.2608225E+03  0.7818608E-02  0.1108858E+00
         21   -1    0    0  501  502  0.00000000000E+00  0.00000000000E+00  0.13103791934E+04  0.13103791934E+04  0.00000000000E+00 0. -1.
         21   -1    0    0  502  503 -0.00000000000E+00 -0.00000000000E+00 -0.49417726425E+02  0.49417726425E+02  0.00000000000E+00 0.  1.
         -6    2    1    2    0  503  0.17171307745E+03 -0.39032468238E+02  0.55860379663E+03  0.61057419572E+03  0.17249270224E+03 0.  0.
        -24    2    3    3    0    0  0.16273893481E+03  0.23570102489E+02  0.42845891445E+03  0.46580058813E+03  0.79709697624E+02 0.  0.
          6    2    1    2  501    0 -0.17171307745E+03  0.39032468238E+02  0.70235767030E+03  0.74922272406E+03  0.19240446637E+03 0.  0.
         24    2    5    5    0    0 -0.26437744186E+02  0.59889853390E+02  0.39511347047E+03  0.40869219489E+03  0.81418098476E+02 0.  0.
          5    1    5    5  501    0 -0.14527533326E+03 -0.20857385152E+02  0.30724419983E+03  0.34053052918E+03  0.47000000000E+01 0. -1.
        -11    1    6    6    0    0  0.14199120235E+02  0.41140547756E+02  0.86305699874E+02  0.96658333918E+02  0.00000000000E+00 0.  1.
         12    1    6    6    0    0 -0.40636864421E+02  0.18749305634E+02  0.30880777059E+03  0.31203386097E+03  0.00000000000E+00 0. -1.
         -5    1    3    3    0  503  0.89741426406E+01 -0.62602570727E+02  0.13014488218E+03  0.14477360759E+03  0.47000000000E+01 0.  1.
         11    1    4    4    0    0  0.15408063137E+03  0.19837920337E+02  0.42909399586E+03  0.45635078758E+03  0.00000000000E+00 0. -1.
        -12    1    4    4    0    0  0.86583034339E+01  0.37321821526E+01 -0.63508140502E+00  0.94498005463E+01  0.00000000000E+00 0.  1.
</event>
<event>
12    1  0.1593360E-001  0.3061426E+03  0.7818608E-02  0.1082292E+00
         21   -1    0    0  503  502  0.00000000000E+00  0.00000000000E+00  0.15510659765E+03  0.15510659765E+03  0.00000000000E+00 0. -1.
         21   -1    0    0  501  503 -0.00000000000E+00 -0.00000000000E+00 -0.61816669049E+03  0.61816669049E+03  0.00000000000E+00 0.  1.
          6    2    1    2  501    0 -0.22842412916E+03 -0.10820574023E+03 -0.29200459249E+03  0.42258355278E+03  0.17153457972E+03 0.  0.
         24    2    3    3    0    0 -0.13657839301E+03 -0.13658533442E+03 -0.19023588181E+03  0.28251213853E+03  0.79461982556E+02 0.  0.
         -6    2    1    2    0  502  0.22842412916E+03  0.10820574023E+03 -0.17105550035E+03  0.35068973537E+03  0.17273459784E+03 0.  0.
        -24    2    5    5    0    0  0.22889191074E+03  0.11460742123E+03 -0.19118440420E+03  0.32904572673E+03  0.78697179538E+02 0.  0.
          5    1    3    3  501    0 -0.91845736147E+02  0.28379594195E+02 -0.10176871068E+03  0.14007141425E+03  0.47000000000E+01 0. -1.
        -11    1    4    4    0    0 -0.66716468305E+02 -0.25755886304E+02 -0.35747043602E+02  0.79951885210E+02  0.00000000000E+00 0.  1.
         12    1    4    4    0    0 -0.69861924705E+02 -0.11082944812E+03 -0.15448883821E+03  0.20256025332E+03  0.00000000000E+00 0. -1.
         -5    1    5    5    0  502 -0.46778158392E+00 -0.64016809995E+01  0.20128903856E+02  0.21644008632E+02  0.47000000000E+01 0.  1.
         11    1    6    6    0    0  0.16559174941E+02  0.39014858189E+02 -0.28354271736E+02  0.50993432517E+02  0.00000000000E+00 0. -1.
        -12    1    6    6    0    0  0.21233273580E+03  0.75592563039E+02 -0.16283013247E+03  0.27805229422E+03  0.00000000000E+00 0.  1.
</event>
<event>
12    1  0.1593360E-001  0.1750699E+03  0.7818608E-02  0.1176294E+00
         21   -1    0    0  503  502  0.00000000000E+00  0.00000000000E+00  0.73290104193E+03  0.73290104193E+03  0.00000000000E+00 0.  1.
         21   -1    0    0  501  503 -0.00000000000E+00 -0.00000000000E+00 -0.75841819962E+02  0.75841819962E+02  0.00000000000E+00 0.  1.
          6    2    1    2  501    0  0.19663072309E+02 -0.31206141820E+02  0.38313318866E+02  0.16570634794E+03  0.15694019130E+03 0.  0.
         24    2    3    3    0    0  0.19118787299E+02 -0.70182348163E+01 -0.38884694706E+02  0.84669477376E+02  0.72402467286E+02 0.  0.
         -6    2    1    2    0  502 -0.19663072309E+02  0.31206141820E+02  0.61874590310E+03  0.64303651395E+03  0.17114031077E+03 0.  0.
        -24    2    5    5    0    0 -0.15035587054E+02  0.27969154113E+02  0.11778056777E+03  0.14201730383E+03  0.72720767200E+02 0.  0.
          5    1    3    3  501    0  0.54428501041E+00 -0.24187907004E+02  0.77198013573E+02  0.81036870565E+02  0.47000000000E+01 0. -1.
        -13    1    4    4    0    0 -0.20376892440E+02 -0.13729752595E+02 -0.37187504414E+02  0.44571676391E+02  0.00000000000E+00 0.  1.
         14    1    4    4    0    0  0.39495679739E+02  0.67115177783E+01 -0.16971902927E+01  0.40097800985E+02  0.00000000000E+00 0. -1.
         -5    1    5    5    0  502 -0.46274852552E+01  0.32369877074E+01  0.50096533533E+03  0.50101921012E+03  0.47000000000E+01 0.  1.
         11    1    6    6    0    0 -0.32963612589E+02 -0.65726287799E+01  0.84031669233E+02  0.90504810027E+02  0.00000000000E+00 0. -1.
        -12    1    6    6    0    0  0.17928025535E+02  0.34541782893E+02  0.33748898537E+02  0.51512493800E+02  0.00000000000E+00 0.  1.
</event>
<event>
12    1  0.1593360E-001  0.2777490E+03  0.7818608E-02  0.1097083E+00
         21   -1    0    0  501  502  0.00000000000E+00  0.00000000000E+00  0.81981035191E+02  0.81981035191E+02  0.00000000000E+00 0.  1.
         21   -1    0    0  502  503 -0.00000000000E+00 -0.00000000000E+00 -0.19515883988E+04  0.19515883988E+04  0.00000000000E+00 0. -1.
         -6    2    1    2    0  503  0.21740751821E+03 -0.12128343468E+02 -0.16669578435E+04  0.16897507134E+04  0.17057519066E+03 0.  0.
        -24    2    3    3    0    0  0.61477142504E+02  0.20795586184E+02 -0.92248361424E+03  0.92839518851E+03  0.82034822230E+02 0.  0.
          6    2    1    2  501    0 -0.21740751821E+03  0.12128343468E+02 -0.20264952009E+03  0.34381872059E+03  0.17242783692E+03 0.  0.
         24    2    5    5    0    0 -0.58473231713E+02  0.21418464973E+02 -0.22435713462E+02  0.10330776475E+03  0.79317485773E+02 0.  0.
          5    1    5    5  501    0 -0.15893428650E+03 -0.92901215051E+01 -0.18021380662E+03  0.24051095585E+03  0.47000000000E+01 0. -1.
        -13    1    6    6    0    0  0.80718044367E+01 -0.42192917710E+01  0.18829242126E+02  0.20916424383E+02  0.00000000000E+00 0.  1.
         14    1    6    6    0    0 -0.66545036150E+02  0.25637756744E+02 -0.41264955588E+02  0.82391340363E+02  0.00000000000E+00 0. -1.
         -5    1    3    3    0  503  0.15593037571E+03 -0.32923929652E+02 -0.74447422931E+03  0.76135552491E+03  0.47000000000E+01 0.  1.
         13    1    4    4    0    0  0.85714857555E+01  0.40290034780E+02 -0.23325655265E+03  0.23686573543E+03  0.00000000000E+00 0. -1.
        -14    1    4    4    0    0  0.52905656748E+02 -0.19494448596E+02 -0.68922706159E+03  0.69152945308E+03  0.00000000000E+00 0.  1.
</event>
<event>
12    1  0.1593360E-001  0.2122610E+03  0.7818608E-02  0.1140189E+00
         21   -1    0    0  501  502  0.00000000000E+00  0.00000000000E+00  0.38866757585E+03  0.38866757585E+03  0.00000000000E+00 0.  1.
         21   -1    0    0  502  503 -0.00000000000E+00 -0.00000000000E+00 -0.26105551719E+03  0.26105551719E+03  0.00000000000E+00 0. -1.
         -6    2    1    2    0  503  0.75244725739E+02  0.94443722324E+02 -0.17920835005E+03  0.27779555899E+03  0.17456618924E+03 0.  0.
        -24    2    3    3    0    0  0.50204109107E+01 -0.15369845574E+02 -0.60019894502E+02  0.10110811737E+03  0.79743507474E+02 0.  0.
          6    2    1    2  501    0 -0.75244725739E+02 -0.94443722324E+02  0.30682040871E+03  0.37192753406E+03  0.17207539613E+03 0.  0.
         24    2    5    5    0    0 -0.41467460190E+01 -0.10708485377E+03  0.23418063792E+03  0.26939291930E+03  0.79041839432E+02 0.  0.
          5    1    5    5  501    0 -0.71097979720E+02  0.12641131444E+02  0.72639770787E+02  0.10253461476E+03  0.47000000000E+01 0. -1.
        -13    1    6    6    0    0 -0.10650310290E+00 -0.85288878048E+02  0.23192626693E+03  0.24711130560E+03  0.00000000000E+00 0.  1.
         14    1    6    6    0    0 -0.40402429161E+01 -0.21795975720E+02  0.22543709890E+01  0.22281613698E+02  0.00000000000E+00 0. -1.
         -5    1    3    3    0  503  0.70224314829E+02  0.10981356790E+03 -0.11918845555E+03  0.17668744161E+03  0.47000000000E+01 0.  1.
         11    1    4    4    0    0  0.62369007297E+00  0.17272254884E+02 -0.65479235899E+02  0.67721858450E+02  0.00000000000E+00 0. -1.
        -12    1    4    4    0    0  0.43967208377E+01 -0.32642100458E+02  0.54593413968E+01  0.33386258924E+02  0.00000000000E+00 0.  1.
</event>
<event>
12    1  0.1593360E-001  0.2231440E+03  0.7818608E-02  0.1131656E+00
         21   -1    0    0  503  502  0.00000000000E+00  0.00000000000E+00  0.67524884262E+03  0.67524884262E+03  0.00000000000E+00 0. -1.
         21   -1    0    0  501  503 -0.00000000000E+00 -0.00000000000E+00 -0.19088694746E+03  0.19088694746E+03  0.00000000000E+00 0.  1.
          6    2    1    2  501    0  0.82712697931E+02  0.11235544779E+03 -0.97218720637E+02  0.24340241614E+03  0.17414970425E+03 0.  0.
         24    2    3    3    0    0  0.88612849767E+02  0.83564291531E+02 -0.36946260423E+01  0.14525666360E+03  0.79060863243E+02 0.  0.
         -6    2    1    2    0  502 -0.82712697931E+02 -0.11235544779E+03  0.58158061579E+03  0.62273337394E+03  0.17348113818E+03 0.  0.
        -24    2    5    5    0    0  0.59665320309E+01 -0.28103173438E+02  0.35925538323E+03  0.36893611116E+03  0.78892559075E+02 0.  0.
          5    1    3    3  501    0 -0.59001518363E+01  0.28791156259E+02 -0.93524094595E+02  0.98145752532E+02  0.47000000000E+01 0. -1.
        -11    1    4    4    0    0  0.22511929286E+02  0.10749876252E+02 -0.34163328533E+02  0.42302243629E+02  0.00000000000E+00 0.  1.
         12    1    4    4    0    0  0.66100920481E+02  0.72814415278E+02  0.30468702491E+02  0.10295441997E+03  0.00000000000E+00 0. -1.
         -5    1    5    5    0  502 -0.88679229962E+02 -0.84252274351E+02  0.22232523257E+03  0.25379726278E+03  0.47000000000E+01 0.  1.
         13    1    6    6    0    0 -0.13309879376E+02 -0.49048779587E+02  0.28328578454E+03  0.28780856727E+03  0.00000000000E+00 0. -1.
        -14    1    6    6    0    0  0.19276411407E+02  0.20945606149E+02  0.75969598682E+02  0.81127543890E+02  0.00000000000E+00 0.  1.
</event>
<event>
12    1  0.1593360E-001  0.3192969E+03  0.7818608E-02  0.1076017E+00
         21   -1    0    0  501  502  0.00000000000E+00  0.00000000000E+00  0.89947172300E+02  0.89947172300E+02  0.00000000000E+00 0.  1.
         21   -1    0    0  502  503 -0.00000000000E+00 -0.00000000000E+00 -0.12812166428E+04  0.12812166428E+04  0.00000000000E+00 0.  1.
         -6    2    1    2    0  503  0.52219395896E+02 -0.26400878829E+03 -0.82920451678E+03  0.88842002538E+03  0.17112131733E+03 0.  0.
        -24    2    3    3    0    0  0.16332951919E+02 -0.10826096753E+03 -0.19671691677E+03  0.23603373283E+03  0.70902576005E+02 0.  0.
          6    2    1    2  501    0 -0.52219395896E+02  0.26400878829E+03 -0.36206495376E+03  0.48274378976E+03  0.17182267082E+03 0.  0.
         24    2    5    5    0    0 -0.99282932472E+02  0.18332366853E+03 -0.28049796970E+03  0.35864573210E+03  0.80516967316E+02 0.  0.
          5    1    5    5  501    0  0.47063536576E+02  0.80685119764E+02 -0.81566984060E+02  0.12409805766E+03  0.47000000000E+01 0. -1.
        -13    1    6    6    0    0 -0.86129594190E+02  0.17934727274E+03 -0.22005882019E+03  0.29666417981E+03  0.00000000000E+00 0.  1.
         14    1    6    6    0    0 -0.13153338282E+02  0.39763957832E+01 -0.60439149515E+02  0.61981552299E+02  0.00000000000E+00 0. -1.
         -5    1    3    3    0  503  0.35886443977E+02 -0.15574782076E+03 -0.63248760001E+03  0.65238629255E+03  0.47000000000E+01 0.  1.
         11    1    4    4    0    0 -0.16682000176E+02 -0.27525869376E+02 -0.10342319578E+03  0.10831583467E+03  0.00000000000E+00 0. -1.
        -12    1    4    4    0    0  0.33014952094E+02 -0.80735098152E+02 -0.93293720982E+02  0.12771789816E+03  0.00000000000E+00 0.  1.
</event>
<event>
12    1  0.1593360E-001  0.1762411E+03  0.7818608E-02  0.1171520E+00
         21   -1    0    0  501  502  0.00000000000E+00  0.00000000000E+00  0.44330570994E+03  0.44330570994E+03  0.00000000000E+00 0. -1.
         21   -1    0    0  502  503 -0.00000000000E+00 -0.00000000000E+00 -0.12226229806E+03  0.12226229806E+03  0.00000000000E+00 0. -1.
         -6    2    1    2    0  503 -0.39075705207E+02 -0.51381019802E+01 -0.24357068318E+02  0.17780207710E+03  0.17165954973E+03 0.  0.
        -24    2    3    3    0    0 -0.90149513065E+02  0.95660797476E+01 -0.61561378599E+01  0.12142734270E+03  0.80549717154E+02 0.  0.
          6    2    1    2  501    0  0.39075705207E+02  0.51381019802E+01  0.34540048019E+03  0.38776593090E+03  0.17177780596E+03 0.  0.
         24    2    5    5    0    0  0.22451439299E+01 -0.61385673368E+02  0.19360881570E+03  0.21792864895E+03  0.78963795192E+02 0.  0.
          5    1    5    5  501    0  0.36830561277E+02  0.66523775349E+02  0.15179166450E+03  0.16983728195E+03  0.47000000000E+01 0. -1.
        -11    1    6    6    0    0 -0.30028196069E+02 -0.27415384887E+02  0.38869785279E+02  0.56250831952E+02  0.00000000000E+00 0.  1.
         12    1    6    6    0    0  0.32273339999E+02 -0.33970288481E+02  0.15473903042E+03  0.16167781700E+03  0.00000000000E+00 0. -1.
         -5    1    3    3    0  503  0.51073807858E+02 -0.14704181728E+02 -0.18200930458E+02  0.56374734402E+02  0.47000000000E+01 0.  1.
         13    1    4    4    0    0 -0.34927697603E+02  0.43717175750E+02  0.19750857351E+01  0.55991396473E+02  0.00000000000E+00 0. -1.
        -14    1    4    4    0    0 -0.55221815462E+02 -0.34151096002E+02 -0.81312235950E+01  0.65435946224E+02  0.00000000000E+00 0.  1.
</event>
<event>
12    1  0.1593360E-001  0.1945291E+03  0.7818608E-02  0.1154789E+00
         21   -1    0    0  503  502  0.00000000000E+00  0.00000000000E+00  0.90074811941E+03  0.90074811941E+03  0.00000000000E+00 0. -1.
         21   -1    0    0  501  503 -0.00000000000E+00 -0.00000000000E+00 -0.54954286916E+02  0.54954286916E+02  0.00000000000E+00 0.  1.
          6    2    1    2  501    0 -0.62392398568E+02  0.60138098356E+02  0.18925266566E+03  0.27140033129E+03  0.17416132204E+03 0.  0.
         24    2    3    3    0    0 -0.29667890373E+02  0.63052633973E+02  0.32624262605E+02  0.11129432080E+03  0.80413089487E+02 0.  0.
         -6    2    1    2    0  502  0.62392398568E+02 -0.60138098356E+02  0.65654116684E+03  0.68430207503E+03  0.17237640172E+03 0.  0.
        -24    2    5    5    0    0  0.71941545849E+02 -0.72853335645E+02  0.65046712216E+03  0.66664287087E+03  0.10402906194E+03 0.  0.
          5    1    3    3  501    0 -0.32724508195E+02 -0.29145356164E+01  0.15662840305E+03  0.16010601050E+03  0.47000000000E+01 0. -1.
        -13    1    4    4    0    0  0.50972615814E+01  0.46164111654E+02 -0.16051272130E+02  0.49140112103E+02  0.00000000000E+00 0.  1.
         14    1    4    4    0    0 -0.34765151954E+02  0.16888522318E+02  0.48675534736E+02  0.62154208693E+02  0.00000000000E+00 0. -1.
         -5    1    5    5    0  502 -0.95491472814E+01  0.12715237289E+02  0.60740446720E+01  0.17659204166E+02  0.47000000000E+01 0.  1.
         11    1    6    6    0    0  0.30389935192E+02  0.39750310300E+01  0.40391757194E+03  0.40507870094E+03  0.00000000000E+00 0. -1.
        -12    1    6    6    0    0  0.41551610658E+02 -0.76828366675E+02  0.24654955022E+03  0.26156416992E+03  0.00000000000E+00 0.  1.
</event>
<event>
12    1  0.1593360E-001  0.2388257E+03  0.7818608E-02  0.1120657E+00
         21   -1    0    0  501  502  0.00000000000E+00  0.00000000000E+00  0.12424590186E+04  0.12424590186E+04  0.00000000000E+00 0.  1.
         21   -1    0    0  502  503 -0.00000000000E+00 -0.00000000000E+00 -0.83371348295E+02  0.83371348295E+02  0.00000000000E+00 0.  1.
         -6    2    1    2    0  503  0.15689571647E+03  0.50637944321E+02  0.13430603309E+03  0.27358746475E+03  0.17213809309E+03 0.  0.
        -24    2    3    3    0    0  0.37329543817E+02  0.74380803648E+02  0.73534959923E+02  0.13729730977E+03  0.80728942429E+02 0.  0.
          6    2    1    2  501    0 -0.15689571647E+03 -0.50637944321E+02  0.10247816372E+04  0.10522429022E+04  0.17279251686E+03 0.  0.
         24    2    5    5    0    0 -0.31858342613E+02 -0.60228440350E+02  0.61133246778E+03  0.62016810748E+03  0.78985292009E+02 0.  0.
          5    1    5    5  501    0 -0.12503737386E+03  0.95904960291E+01  0.41344916946E+03  0.43207479469E+03  0.47000000000E+01 0. -1.
        -13    1    6    6    0    0 -0.41373038604E+02 -0.68144769604E+02  0.59108728622E+03  0.59643911498E+03  0.00000000000E+00 0.  1.
         14    1    6    6    0    0  0.95146959911E+01  0.79163292541E+01  0.20245181554E+02  0.23728992494E+02  0.00000000000E+00 0. -1.
         -5    1    3    3    0  503  0.11956617265E+03 -0.23742859327E+02  0.60771073167E+02  0.13629015498E+03  0.47000000000E+01 0.  1.
         11    1    4    4    0    0 -0.33229615402E+01  0.41821586761E+02  0.74165981883E+02  0.85209624229E+02  0.00000000000E+00 0. -1.
        -12    1    4    4    0    0  0.40652505357E+02  0.32559216887E+02 -0.63102195969E+00  0.52087685539E+02  0.00000000000E+00 0.  1.
</event>
<event>
12    1  0.1593360E-001  0.1836927E+03  0.7818608E-02  0.1164656E+00
         21   -1    0    0  503  502  0.00000000000E+00  0.00000000000E+00  0.83883364523E+02  0.83883364523E+02  0.00000000000E+00 0.  1.
         21   -1    0    0  501  503 -0.00000000000E+00 -0.00000000000E+00 -0.65099388892E+03  0.65099388892E+03  0.00000000000E+00 0.  1.
          6    2    1    2  501    0 -0.53832407670E+01  0.59848469383E+02 -0.51150967247E+03  0.54295418837E+03  0.17189033443E+03 0.  0.
         24    2    3    3    0    0  0.20763870882E+02  0.48626320087E+02 -0.50419964314E+03  0.51320297644E+03  0.79776923608E+02 0.  0.
         -6    2    1    2    0  502  0.53832407670E+01 -0.59848469383E+02 -0.55600851927E+02  0.19192306507E+03  0.17358625984E+03 0.  0.
        -24    2    5    5    0    0  0.19744090971E+02 -0.89688503220E+02 -0.82863502064E+02  0.14877212383E+03  0.82661527422E+02 0.  0.
          5    1    3    3  501    0 -0.26147111649E+02  0.11222149296E+02 -0.73100293223E+01  0.29751211927E+02  0.47000000000E+01 0. -1.
        -13    1    4    4    0    0 -0.21440839666E+01 -0.14144473743E+02 -0.24866877999E+03  0.24907995780E+03  0.00000000000E+00 0.  1.
         14    1    4    4    0    0  0.22907954849E+02  0.62770793830E+02 -0.25553086315E+03  0.26412301864E+03  0.00000000000E+00 0. -1.
         -5    1    5    5    0  502 -0.14360850204E+02  0.29840033836E+02  0.27262650137E+02  0.43150941246E+02  0.47000000000E+01 0.  1.
         11    1    6    6    0    0 -0.16797347836E+02 -0.68864903119E+02 -0.20932718879E+02  0.73910110916E+02  0.00000000000E+00 0. -1.
        -12    1    6    6    0    0  0.36541438807E+02 -0.20823600100E+02 -0.61930783185E+02  0.74862012911E+02  0.00000000000E+00 0.  1.
</event>
<event>
12    1  0.1593360E-001  0.1865987E+03  0.7818608E-02  0.1162108E+00
         21   -1    0    0  503  502  0.00000000000E+00  0.00000000000E+00  0.75811702713E+02  0.75811702713E+02  0.00000000000E+00 0.  1.
         21   -1    0    0  501  503 -0.00000000000E+00 -0.00000000000E+00 -0.65983318628E+03  0.65983318628E+03  0.00000000000E+00 0. -1.
          6    2    1    2  501    0  0.45997602999E+02  0.53475615560E+02 -0.49892754705E+03  0.53267981948E+03  0.17275321108E+03 0.  0.
         24    2    3    3    0    0  0.83361235631E+02  0.80216378715E+02 -0.37407630201E+03  0.39955944972E+03  0.79567022785E+02 0.  0.
         -6    2    1    2    0  502 -0.45997602999E+02 -0.53475615560E+02 -0.85093936518E+02  0.20296506951E+03  0.17023049218E+03 0.  0.
        -24    2    5    5    0    0  0.25875833818E+02 -0.61808307514E+02 -0.75569769753E+02  0.12983488130E+03  0.81587257881E+02 0.  0.
          5    1    3    3  501    0 -0.37363632632E+02 -0.26740763155E+02 -0.12485124503E+03  0.13312036975E+03  0.47000000000E+01 0. -1.
        -11    1    4    4    0    0 -0.99289254151E+01  0.34785028263E+02 -0.11162148083E+03  0.11733685156E+03  0.00000000000E+00 0.  1.
         12    1    4    4    0    0  0.93290161046E+02  0.45431350452E+02 -0.26245482119E+03  0.28222259817E+03  0.00000000000E+00 0. -1.
         -5    1    5    5    0  502 -0.71873436817E+02  0.83326919543E+01 -0.95241667645E+01  0.73130188210E+02  0.47000000000E+01 0.  1.
         13    1    6    6    0    0  0.57903769798E+01  0.16252277259E+02 -0.36263346009E+02  0.40158377027E+02  0.00000000000E+00 0. -1.
        -14    1    6    6    0    0  0.20085456838E+02 -0.78060584773E+02 -0.39306423744E+02  0.89676504275E+02  0.00000000000E+00 0.  1.
</event>
<event>
12    1  0.1593360E-001  0.1941169E+03  0.7818608E-02  0.1155735E+00
         21   -1    0    0  503  502  0.00000000000E+00  0.00000000000E+00  0.71479116105E+02  0.71479116105E+02  0.00000000000E+00 0. -1.
         21   -1    0    0  501  503 -0.00000000000E+00 -0.00000000000E+00 -0.12916733660E+04  0.12916733660E+04  0.00000000000E+00 0. -1.
          6    2    1    2  501    0  0.75379883033E+02  0.23071290431E+02 -0.11356591460E+04  0.11514272844E+04  0.17276771739E+03 0.  0.
         24    2    3    3    0    0  0.78488101821E+02  0.74025370191E+02 -0.69659409802E+03  0.70937956569E+03  0.79598324457E+02 0.  0.
         -6    2    1    2    0  502 -0.75379883033E+02 -0.23071290431E+02 -0.84535103812E+02  0.21172519762E+03  0.17738930160E+03 0.  0.
        -24    2    5    5    0    0  0.21568153750E+02 -0.37551607540E+02 -0.28033034093E+02  0.98485737611E+02  0.83894463628E+02 0.  0.
          5    1    3    3  501    0 -0.31082187885E+01 -0.50954079760E+02 -0.43906504802E+03  0.44204771876E+03  0.47000000000E+01 0. -1.
        -13    1    4    4    0    0  0.64969651774E+02  0.67525179230E+02 -0.34598943232E+03  0.35845417107E+03  0.00000000000E+00 0.  1.
         14    1    4    4    0    0  0.13518450048E+02  0.65001909611E+01 -0.35060466570E+03  0.35092539461E+03  0.00000000000E+00 0. -1.
         -5    1    5    5    0  502 -0.96948036783E+02  0.14480317109E+02 -0.56502069720E+02  0.11323946001E+03  0.47000000000E+01 0.  1.
         13    1    6    6    0    0 -0.24909308111E+02  0.64993197621E+01  0.53154589743E+01  0.26286287149E+02  0.00000000000E+00 0. -1.
        -14    1    6    6    0    0  0.46477461862E+02 -0.44050927302E+02 -0.33348493067E+02  0.72199450463E+02  0.00000000000E+00 0.  1.
</event>
<event>
12    1  0.1593360E-001  0.1760927E+03  0.7818608E-02  0.1171864E+00
         21   -1    0    0  501  502  0.00000000000E+00  0.00000000000E+00  0.94170773072E+02  0.94170773072E+02  0.00000000000E+00 0.  1.
         21   -1    0    0  502  503 -0.00000000000E+00 -0.00000000000E+00 -0.35271551031E+03  0.35271551031E+03  0.00000000000E+00 0.  1.
         -6    2    1    2    0  503 -0.25117481056E+02 -0.24260500155E+02 -0.18859403344E+03  0.25740877305E+03  0.17167442230E+03 0.  0.
        -24    2    3    3    0    0  0.22178716508E+02  0.34139064164E+02 -0.12570742287E+03  0.15930548460E+03  0.88986010637E+02 0.  0.
          6    2    1    2  501    0  0.25117481056E+02  0.24260500155E+02 -0.69950703798E+02  0.18947751033E+03  0.17259538301E+03 0.  0.
         24    2    5    5    0    0  0.10387457266E+02  0.81605177049E+02 -0.58082144283E+02  0.12891070198E+03  0.80480615126E+02 0.  0.
          5    1    5    5  501    0  0.14730023791E+02 -0.57344676894E+02 -0.11868559515E+02  0.60566808351E+02  0.47000000000E+01 0. -1.
        -13    1    6    6    0    0 -0.18926323557E+02  0.49566070137E+02 -0.66090819159E+02  0.84752565798E+02  0.00000000000E+00 0.  1.
         14    1    6    6    0    0  0.29313780823E+02  0.32039106912E+02  0.80086748765E+01  0.44158136183E+02  0.00000000000E+00 0. -1.
         -5    1    3    3    0  503 -0.47296197565E+02 -0.58399564319E+02 -0.62886610569E+02  0.98103288454E+02  0.47000000000E+01 0.  1.
         11    1    4    4    0    0  0.26707408462E+02  0.44823488114E+02 -0.13481113738E+03  0.14455612584E+03  0.00000000000E+00 0. -1.
        -12    1    4    4    0    0 -0.45286919536E+01 -0.10684423950E+02  0.91037145117E+01  0.14749358761E+02  0.00000000000E+00 0.  1.
</event>
<event>
12    1  0.1593360E-001  0.2005644E+03  0.7818608E-02  0.1149717E+00
         21   -1    0    0  503  502  0.00000000000E+00  0.00000000000E+00  0.42346262041E+03  0.42346262041E+03  0.00000000000E+00 0. -1.
         21   -1    0    0  501  503 -0.00000000000E+00 -0.00000000000E+00 -0.22501553930E+03  0.22501553930E+03  0.00000000000E+00 0. -1.
          6    2    1    2  501    0 -0.75518701872E+02  0.69095834878E+02 -0.14842949556E+03  0.24779193352E+03  0.16997711150E+03 0.  0.
         24    2    3    3    0    0 -0.10734842013E+03  0.25808226840E+02 -0.13409958783E+03  0.19198526519E+03  0.81767320595E+02 0.  0.
         -6    2    1    2    0  502  0.75518701872E+02 -0.69095834878E+02  0.34687657667E+03  0.40068622619E+03  0.17247835715E+03 0.  0.
        -24    2    5    5    0    0  0.90874193877E+02 -0.10423790435E+03  0.24936541012E+03  0.29579926903E+03  0.78679349103E+02 0.  0.
          5    1    3    3  501    0  0.31829718258E+02  0.43287608038E+02 -0.14329907730E+02  0.55806668326E+02  0.47000000000E+01 0. -1.
        -13    1    4    4    0    0 -0.78584244126E+02 -0.21718275405E+02 -0.85980748866E+02  0.11848989867E+03  0.00000000000E+00 0.  1.
         14    1    4    4    0    0 -0.28764176005E+02  0.47526502245E+02 -0.48118838969E+02  0.73495366524E+02  0.00000000000E+00 0. -1.
         -5    1    5    5    0  502 -0.15355492005E+02  0.35142069472E+02  0.97511166546E+02  0.10488695716E+03  0.47000000000E+01 0.  1.
         11    1    6    6    0    0  0.91435214716E+02 -0.66964473429E+02  0.22297731811E+03  0.25012701490E+03  0.00000000000E+00 0. -1.
        -12    1    6    6    0    0 -0.56102083887E+00 -0.37273430921E+02  0.26388092017E+02  0.45672254130E+02  0.00000000000E+00 0.  1.
</event>
<event>
12    1  0.1593360E-001  0.1936907E+03  0.7818608E-02  0.1155291E+00
         21   -1    0    0  503  502  0.00000000000E+00  0.00000000000E+00  0.67565318769E+02  0.67565318769E+02  0.00000000000E+00 0. -1.
         21   -1    0    0  501  503 -0.00000000000E+00 -0.00000000000E+00 -0.55541757147E+03  0.55541757147E+03  0.00000000000E+00 0.  1.
          6    2    1    2  501    0  0.60897720662E+02  0.63557510240E+02 -0.22647472176E+03  0.29766106039E+03  0.17193957597E+03 0.  0.
         24    2    3    3    0    0  0.25530766326E+00  0.45492486243E+02 -0.38324543830E+02  0.99100170984E+02  0.79261855534E+02 0.  0.
         -6    2    1    2    0  502 -0.60897720662E+02 -0.63557510240E+02 -0.26137753095E+03  0.32532182985E+03  0.17253402507E+03 0.  0.
        -24    2    5    5    0    0 -0.46507389680E+02 -0.27244035398E+02 -0.43438993085E+02  0.10386066765E+03  0.77426851960E+02 0.  0.
          5    1    3    3  501    0  0.60642412999E+02  0.18065023997E+02 -0.18815017793E+03  0.19856088940E+03  0.47000000000E+01 0. -1.
        -13    1    4    4    0    0 -0.30996002445E+02  0.40758953432E+02 -0.43354866827E+02  0.67094626686E+02  0.00000000000E+00 0.  1.
         14    1    4    4    0    0  0.31251310109E+02  0.47335328105E+01  0.50303229970E+01  0.32005544298E+02  0.00000000000E+00 0. -1.
         -5    1    5    5    0  502 -0.14390330982E+02 -0.36313474842E+02 -0.21793853786E+03  0.22146116221E+03  0.47000000000E+01 0.  1.
         13    1    6    6    0    0 -0.67595106156E+02 -0.15701573105E+02 -0.25767157289E+02  0.74024213396E+02  0.00000000000E+00 0. -1.
        -14    1    6    6    0    0  0.21087716476E+02 -0.11542462293E+02 -0.17671835796E+02  0.29836454252E+02  0.00000000000E+00 0.  1.
</event>
<event>
12    1  0.1593360E-001  0.1814775E+03  0.7818608E-02  0.1166448E+00
         21   -1    0    0  501  502  0.00000000000E+00  0.00000000000E+00  0.11939599243E+03  0.11939599243E+03  0.00000000000E+00 0. -1.
         21   -1    0    0  502  503 -0.00000000000E+00 -0.00000000000E+00 -0.38825312612E+03  0.38825312612E+03  0.00000000000E+00 0. -1.
         -6    2    1    2    0  503  0.73630145250E+01  0.57964118498E+02 -0.27134221494E+03  0.32643632907E+03  0.17181392934E+03 0.  0.
        -24    2    3    3    0    0 -0.94027764646E+01  0.36251161184E+02 -0.51006981586E+02  0.10435019867E+03  0.82974049549E+02 0.  0.
          6    2    1    2  501    0 -0.73630145250E+01 -0.57964118498E+02  0.24850812544E+01  0.18121278947E+03  0.17151631533E+03 0.  0.
         24    2    5    5    0    0 -0.85443514479E+01  0.31034125093E+02  0.20307118504E+02  0.90318356581E+02  0.81907897126E+02 0.  0.
          5    1    5    5  501    0  0.11813369229E+01 -0.88998243591E+02 -0.17822037249E+02  0.90894432893E+02  0.47000000000E+01 0. -1.
        -13    1    6    6    0    0  0.18939221373E+02 -0.14188896708E+02 -0.13766905367E+02  0.27377848333E+02  0.00000000000E+00 0.  1.
         14    1    6    6    0    0 -0.27483572821E+02  0.45223021800E+02  0.34074023870E+02  0.62940508248E+02  0.00000000000E+00 0. -1.
         -5    1    3    3    0  503  0.16765790990E+02  0.21712957314E+02 -0.22033523335E+03  0.22208613041E+03  0.47000000000E+01 0.  1.
         11    1    4    4    0    0 -0.50806609718E+01  0.58017280020E+02 -0.56867181504E+02  0.81398367484E+02  0.00000000000E+00 0. -1.
        -12    1    4    4    0    0 -0.43221154928E+01 -0.21766118836E+02  0.58601999181E+01  0.22951831182E+02  0.00000000000E+00 0.  1.
</event>
<event>
12    1  0.1593360E-001  0.2551971E+03  0.7818608E-02  0.1110128E+00
         21   -1    0    0  503  502  0.00000000000E+00  0.00000000000E+00  0.76107163999E+03  0.76107163999E+03  0.00000000000E+00 0. -1.
         21   -1    0    0  501  503 -0.00000000000E+00 -0.00000000000E+00 -0.91504967989E+02  0.91504967989E+02  0.00000000000E+00 0.  1.
          6    2    1    2  501    0  0.18657074932E+03  0.23707086815E+02  0.44485866308E+03  0.51285941249E+03  0.17249601850E+03 0.  0.
         24    2    3    3    0    0  0.93992739310E+02  0.51433916705E+02  0.14711850436E+03  0.19979271489E+03  0.82420821199E+02 0.  0.
         -6    2    1    2    0  502 -0.18657074932E+03 -0.23707086815E+02  0.22470800893E+03  0.33971719549E+03  0.17188197454E+03 0.  0.
        -24    2    5    5    0    0 -0.14496654712E+02 -0.19009110974E+02  0.55930013452E+02  0.98595510926E+02  0.77597738834E+02 0.  0.
          5    1    3    3  501    0  0.92578010007E+02 -0.27726829890E+02  0.29774015872E+03  0.31306669760E+03  0.47000000000E+01 0. -1.
        -13    1    4    4    0    0  0.31062140139E+02  0.49830946607E+00 -0.90028090628E+00  0.31079179011E+02  0.00000000000E+00 0.  1.
         14    1    4    4    0    0  0.62930599172E+02  0.50935607239E+02  0.14801878526E+03  0.16871353588E+03  0.00000000000E+00 0. -1.
         -5    1    5    5    0  502 -0.17207409461E+03 -0.46979758408E+01  0.16877799548E+03  0.24112168457E+03  0.47000000000E+01 0.  1.
         11    1    6    6    0    0  0.53931838061E+01 -0.29675981940E+02  0.66985988051E+02  0.73463412191E+02  0.00000000000E+00 0. -1.
        -12    1    6    6    0    0 -0.19889838518E+02  0.10666870966E+02 -0.11055974599E+02  0.25132098735E+02  0.00000000000E+00 0.  1.
</event>
<event>
12    1  0.1593360E-001  0.1873467E+03  0.7818608E-02  0.1161492E+00
         21   -1    0    0  501  502  0.00000000000E+00  0.00000000000E+00  0.12647768917E+04  0.12647768917E+04  0.00000000000E+00 0.  1.
         21   -1    0    0  502  503 -0.00000000000E+00 -0.00000000000E+00 -0.40908236149E+02  0.40908236149E+02  0.00000000000E+00 0. -1.
         -6    2    1    2    0  503 -0.35142952398E+02 -0.57644286223E+02  0.23328392987E+03  0.29753986121E+03  0.17190313038E+03 0.  0.
        -24    2    3    3    0    0 -0.64649581460E+02  0.27043003251E+01  0.98149602439E+02  0.14655651939E+03  0.87513354943E+02 0.  0.
          6    2    1    2  501    0  0.35142952398E+02  0.57644286223E+02  0.99058472565E+03  0.10081452666E+04  0.17475951779E+03 0.  0.
         24    2    5    5    0    0 -0.36412885843E+02  0.19768960109E+02  0.36699852484E+03  0.37930775329E+03  0.86427683259E+02 0.  0.
          5    1    5    5  501    0  0.71555838241E+02  0.37875326114E+02  0.62358620081E+03  0.62883751332E+03  0.47000000000E+01 0. -1.
        -11    1    6    6    0    0 -0.59249138084E+02  0.45290048191E+01  0.31449376667E+03  0.32005827833E+03  0.00000000000E+00 0.  1.
         12    1    6    6    0    0  0.22836252241E+02  0.15239955290E+02  0.52504758166E+02  0.59249474966E+02  0.00000000000E+00 0. -1.
         -5    1    3    3    0  503  0.29506629062E+02 -0.60348586549E+02  0.13513432743E+03  0.15098334182E+03  0.47000000000E+01 0.  1.
         11    1    4    4    0    0 -0.70732583854E+02  0.20396768466E+02  0.10358073443E+03  0.12707515543E+03  0.00000000000E+00 0. -1.
        -12    1    4    4    0    0  0.60830023939E+01 -0.17692468140E+02 -0.54311319906E+01  0.19481363960E+02  0.00000000000E+00 0.  1.
</event>
<event>
12    1  0.1593360E-001  0.2117614E+03  0.7818608E-02  0.1141203E+00
         21   -1    0    0  501  502  0.00000000000E+00  0.00000000000E+00  0.97580977271E+02  0.97580977271E+02  0.00000000000E+00 0. -1.
         21   -1    0    0  502  503 -0.00000000000E+00 -0.00000000000E+00 -0.46630696347E+03  0.46630696347E+03  0.00000000000E+00 0. -1.
         -6    2    1    2    0  503 -0.37268454887E+02  0.11030238013E+03 -0.23740832370E+03  0.31471490220E+03  0.17066694090E+03 0.  0.
        -24    2    3    3    0    0 -0.60544820822E+02  0.94365271809E+02 -0.24360219021E+03  0.28545341531E+03  0.97832230795E+02 0.  0.
          6    2    1    2  501    0  0.37268454887E+02 -0.11030238013E+03 -0.13131766250E+03  0.24917303854E+03  0.17688222595E+03 0.  0.
         24    2    5    5    0    0 -0.48082971048E+00 -0.25952149750E+02 -0.13269521983E+03  0.15663138567E+03  0.79067214039E+02 0.  0.
          5    1    5    5  501    0  0.37749284598E+02 -0.84350230379E+02  0.13775573260E+01  0.92541652875E+02  0.47000000000E+01 0. -1.
        -11    1    6    6    0    0 -0.17237077645E+02  0.23094390955E+02 -0.67131160102E+02  0.73055187331E+02  0.00000000000E+00 0.  1.
         12    1    6    6    0    0  0.16756247935E+02 -0.49046540706E+02 -0.65564059729E+02  0.83576198335E+02  0.00000000000E+00 0. -1.
         -5    1    3    3    0  503  0.23276365935E+02  0.15937108321E+02  0.61938665167E+01  0.29261486893E+02  0.47000000000E+01 0.  1.
         13    1    4    4    0    0 -0.45813877520E+02  0.18822423114E+02 -0.28835555154E+02  0.57312164733E+02  0.00000000000E+00 0. -1.
        -14    1    4    4    0    0 -0.14730943302E+02  0.75542848695E+02 -0.21476663506E+03  0.22814125057E+03  0.00000000000E+00 0.  1.
</event>
<event>
12    1  0.1593360E-001  0.2235765E+03  0.7818608E-02  0.1131522E+00
         21   -1    0    0  503  502  0.00000000000E+00  0.00000000000E+00  0.79887582826E+02  0.79887582826E+02  0.00000000000E+00 0. -1.
         21   -1    0    0  501  503 -0.00000000000E+00 -0.00000000000E+00 -0.69574613317E+03  0.69574613317E+03  0.00000000000E+00 0. -1.
          6    2    1    2  501    0  0.90397103689E+02  0.11179228486E+03 -0.43370706593E+03  0.48724923411E+03  0.16923606526E+03 0.  0.
         24    2    3    3    0    0 -0.41450672911E+01  0.97124046738E+02 -0.25835812637E+03  0.28744252774E+03  0.80150004700E+02 0.  0.
         -6    2    1    2    0  502 -0.90397103689E+02 -0.11179228486E+03 -0.18215148441E+03  0.28838448189E+03  0.17122293892E+03 0.  0.
        -24    2    5    5    0    0 -0.81703214467E+02 -0.29637836297E+02 -0.16724679810E+03  0.20430608512E+03  0.78839510066E+02 0.  0.
          5    1    3    3  501    0  0.94542170980E+02  0.14668238126E+02 -0.17534893957E+03  0.19980670637E+03  0.47000000000E+01 0. -1.
        -11    1    4    4    0    0  0.12234075250E+02  0.72279384215E+02 -0.24327547309E+03  0.25408057341E+03  0.00000000000E+00 0.  1.
         12    1    4    4    0    0 -0.16379142541E+02  0.24844662523E+02 -0.15082653279E+02  0.33361954322E+02  0.00000000000E+00 0. -1.
         -5    1    5    5    0  502 -0.86938892218E+01 -0.82154448567E+02 -0.14904686307E+02  0.84078396768E+02  0.47000000000E+01 0.  1.
         11    1    6    6    0    0 -0.53336046331E+02  0.20174646607E+02 -0.10635093984E+03  0.12067424170E+03  0.00000000000E+00 0. -1.
        -12    1    6    6    0    0 -0.28367168136E+02 -0.49812482904E+02 -0.60895858258E+02  0.83631843421E+02  0.00000000000E+00 0.  1.
</event>
<event>
12    1  0.1593360E-001  0.1924557E+03  0.7818608E-02  0.1157353E+00
         21   -1    0    0  501  502  0.00000000000E+00  0.00000000000E+00  0.12131644273E+03  0.12131644273E+03  0.00000000000E+00 0.  1.
         21   -1    0    0  502  503 -0.00000000000E+00 -0.00000000000E+00 -0.89954887910E+03  0.89954887910E+03  0.00000000000E+00 0.  1.
         -6    2    1    2    0  503  0.66880592844E+02  0.31224518604E+02 -0.80826372615E+03  0.83086066010E+03  0.17773913815E+03 0.  0.
        -24    2    3    3    0    0  0.11177894207E+02  0.41284272227E+02 -0.19650800905E+03  0.21647386281E+03  0.80101181061E+02 0.  0.
          6    2    1    2  501    0 -0.66880592844E+02 -0.31224518604E+02  0.30031289776E+02  0.19000466174E+03  0.17248741652E+03 0.  0.
         24    2    5    5    0    0  0.12114633505E+02  0.28565488204E+02  0.19887896169E+01  0.86933994163E+02  0.81183819790E+02 0.  0.
          5    1    5    5  501    0 -0.78995226348E+02 -0.59790006808E+02  0.28042500160E+02  0.10307066758E+03  0.47000000000E+01 0. -1.
        -11    1    6    6    0    0  0.36843399748E+02  0.21149394972E+02  0.27526284076E+02  0.50620443772E+02  0.00000000000E+00 0.  1.
         12    1    6    6    0    0 -0.24728766243E+02  0.74160932327E+01 -0.25537494460E+02  0.36313550391E+02  0.00000000000E+00 0. -1.
         -5    1    3    3    0  503  0.55702698636E+02 -0.10059753623E+02 -0.61175571710E+03  0.61438679729E+03  0.47000000000E+01 0.  1.
         13    1    4    4    0    0  0.42998510700E+02  0.40338937050E+02 -0.12926439024E+03  0.14207527705E+03  0.00000000000E+00 0. -1.
        -14    1    4    4    0    0 -0.31820616493E+02  0.94533517739E+00 -0.67243618810E+02  0.74398585761E+02  0.00000000000E+00 0.  1.
</event>
<event>
12    1  0.1593360E-001  0.1985988E+03  0.7818608E-02  0.1151169E+00
         21   -1    0    0  503  502  0.00000000000E+00  0.00000000000E+00  0.46035355876E+03  0.46035355876E+03  0.00000000000E+00 0. -1.
         21   -1    0    0  501  503 -0.00000000000E+00 -0.00000000000E+00 -0.10576599138E+03  0.10576599138E+03  0.00000000000E+00 0. -1.
          6    2    1    2  501    0 -0.96004283583E+02  0.85031907444E+01  0.52029192733E+02  0.20420372831E+03  0.17234558028E+03 0.  0.
         24    2    3    3    0    0 -0.46970450068E+02  0.21798247501E+02  0.98059270784E+02  0.13548740239E+03  0.77844902504E+02 0.  0.
         -6    2    1    2    0  502  0.96004283583E+02 -0.85031907444E+01  0.30255837464E+03  0.36191582182E+03  0.17364436444E+03 0.  0.
        -24    2    5    5    0    0 -0.62762036603E+01 -0.81225672777E+01  0.19697533545E+03  0.21483995327E+03  0.85156067996E+02 0.  0.
          5    1    3    3  501    0 -0.49033833515E+02 -0.13295056756E+02 -0.46030078050E+02  0.68716325925E+02  0.47000000000E+01 0. -1.
        -11    1    4    4    0    0  0.10217322537E+02 -0.10137384233E+02 -0.33369759361E+01  0.14774831550E+02  0.00000000000E+00 0.  1.
         12    1    4    4    0    0 -0.57187772605E+02  0.31935631734E+02  0.10139624672E+03  0.12071257084E+03  0.00000000000E+00 0. -1.
         -5    1    5    5    0  502  0.10228048724E+03 -0.38062346671E+00  0.10558303919E+03  0.14707586855E+03  0.47000000000E+01 0.  1.
         11    1    6    6    0    0 -0.13153004463E+02  0.37163115311E+02  0.79141941390E+02  0.88416884999E+02  0.00000000000E+00 0. -1.
        -12    1    6    6    0    0  0.68768008023E+01 -0.45285682589E+02  0.11783339406E+03  0.12642306827E+03  0.00000000000E+00 0.  1.
</event>
<event>
12    1  0.1593360E-001  0.2136697E+03  0.7818608E-02  0.1138841E+00
         21   -1    0    0  501  502  0.00000000000E+00  0.00000000000E+00  0.12558133348E+03  0.12558133348E+03  0.00000000000E+00 0.  1.
         21   -1    0    0  502  503 -0.00000000000E+00 -0.00000000000E+00 -0.46527038135E+03  0.46527038135E+03  0.00000000000E+00 0.  1.
         -6    2    1    2    0  503 -0.75310692627E+01  0.12652286999E+03 -0.30594480463E+02  0.21509357000E+03  0.17106860607E+03 0.  0.
        -24    2    3    3    0    0  0.51674429417E+02  0.38116889582E+02 -0.38016860061E+00  0.10438718767E+03  0.82300646992E+02 0.  0.
          6    2    1    2  501    0  0.75310692627E+01 -0.12652286999E+03 -0.30909456741E+03  0.37575814483E+03  0.17201737752E+03 0.  0.
         24    2    5    5    0    0 -0.46898480958E+02 -0.10067059360E+03 -0.27328378454E+03  0.30550561248E+03  0.79470852715E+02 0.  0.
          5    1    5    5  501    0  0.54429550220E+02 -0.25852276388E+02 -0.35810782866E+02  0.70252532347E+02  0.47000000000E+01 0. -1.
        -11    1    6    6    0    0  0.93423948961E+01 -0.17686986865E+02 -0.73594229730E+01  0.21313633038E+02  0.00000000000E+00 0.  1.
         12    1    6    6    0    0 -0.56240875854E+02 -0.82983606736E+02 -0.26592436157E+03  0.28419197944E+03  0.00000000000E+00 0. -1.
         -5    1    3    3    0  503 -0.59205498679E+02  0.88405980408E+02 -0.30214311862E+02  0.11070638232E+03  0.47000000000E+01 0.  1.
         13    1    4    4    0    0  0.64764769970E+02  0.33417421538E+02 -0.24211218481E+02  0.76794417713E+02  0.00000000000E+00 0. -1.
        -14    1    4    4    0    0 -0.13090340553E+02  0.46994680431E+01  0.23831049881E+02  0.27592769961E+02  0.00000000000E+00 0.  1.
</event>
<event>
12    1  0.1593360E-001  0.1754115E+03  0.7818608E-02  0.1172700E+00
         21   -1    0    0  501  502  0.00000000000E+00  0.00000000000E+00  0.53563884564E+03  0.53563884564E+03  0.00000000000E+00 0.  1.
         21   -1    0    0  502  503 -0.00000000000E+00 -0.00000000000E+00 -0.80460262800E+02  0.80460262800E+02  0.00000000000E+00 0.  1.
         -6    2    1    2    0  503  0.21220180758E+02  0.17638420905E+02  0.61767051892E+02  0.18596871305E+03  0.17322754854E+03 0.  0.
        -24    2    3    3    0    0  0.25703083708E+02 -0.45056703859E+02 -0.91723143056E+00  0.97074481162E+02  0.82047903718E+02 0.  0.
          6    2    1    2  501    0 -0.21220180758E+02 -0.17638420905E+02  0.39341153095E+03  0.43013039539E+03  0.17169191707E+03 0.  0.
         24    2    5    5    0    0 -0.66559929787E+02  0.28227176736E+02  0.23779767961E+03  0.26161598468E+03  0.81658981441E+02 0.  0.
          5    1    5    5  501    0  0.45339749029E+02 -0.45865597641E+02  0.15561385134E+03  0.16851441071E+03  0.47000000000E+01 0. -1.
        -13    1    6    6    0    0 -0.65104865184E+02 -0.68883917414E+01  0.19789083357E+03  0.20843914081E+03  0.00000000000E+00 0.  1.
         14    1    6    6    0    0 -0.14550646030E+01  0.35115568478E+02  0.39906846045E+02  0.53176843868E+02  0.00000000000E+00 0. -1.
         -5    1    3    3    0  503 -0.44829029503E+01  0.62695124764E+02  0.62684283322E+02  0.88894231892E+02  0.47000000000E+01 0.  1.
         11    1    4    4    0    0 -0.14282898266E+02  0.15099915255E+02 -0.11992944638E+02  0.23996652781E+02  0.00000000000E+00 0. -1.
        -12    1    4    4    0    0  0.39985981974E+02 -0.60156619115E+02  0.11075713208E+02  0.73077828381E+02  0.00000000000E+00 0.  1.
</event>
<event>
12    1  0.1593360E-001  0.2496743E+03  0.7818608E-02  0.1113581E+00
         21   -1    0    0  503  502  0.00000000000E+00  0.00000000000E+00  0.21723451670E+03  0.21723451670E+03  0.00000000000E+00 0.  1.
         21   -1    0    0  501  503 -0.00000000000E+00 -0.00000000000E+00 -0.31344143566E+03  0.31344143566E+03  0.00000000000E+00 0.  1.
          6    2    1    2  501    0  0.15279734401E+03 -0.97324890486E+02 -0.12600948152E+03  0.27967057056E+03  0.17180825348E+03 0.  0.
         24    2    3    3    0    0  0.77989411325E+01 -0.35726709620E+02 -0.16065257044E+02  0.87502167290E+02  0.77854450955E+02 0.  0.
         -6    2    1    2    0  502 -0.15279734401E+03  0.97324890486E+02  0.29802562563E+02  0.25100538180E+03  0.17116175482E+03 0.  0.
        -24    2    5    5    0    0 -0.13460899681E+03  0.58292351652E+02  0.74608214086E+02  0.18868370443E+03  0.92290706060E+02 0.  0.
          5    1    3    3  501    0  0.14499840287E+03 -0.61598180866E+02 -0.10994422447E+03  0.19216840327E+03  0.47000000000E+01 0. -1.
        -11    1    4    4    0    0 -0.18683720354E+02  0.15083427967E+02  0.80654840179E+01  0.25330677802E+02  0.00000000000E+00 0.  1.
         12    1    4    4    0    0  0.26482661486E+02 -0.50810137587E+02 -0.24130741062E+02  0.62171489488E+02  0.00000000000E+00 0. -1.
         -5    1    5    5    0  502 -0.18188347200E+02  0.39032538834E+02 -0.44805651523E+02  0.62321677369E+02  0.47000000000E+01 0.  1.
         13    1    6    6    0    0 -0.10885304220E+03  0.74983990840E+02  0.31699197479E+02  0.13592800594E+03  0.00000000000E+00 0. -1.
        -14    1    6    6    0    0 -0.25755954604E+02 -0.16691639188E+02  0.42909016607E+02  0.52755698484E+02  0.00000000000E+00 0.  1.
</event>
<event>
12    1  0.1593360E-001  0.2535039E+03  0.7818608E-02  0.1111142E+00
         21   -1    0    0  501  502  0.00000000000E+00  0.00000000000E+00  0.82300510764E+02  0.82300510764E+02  0.00000000000E+00 0.  1.
         21   -1    0    0  502  503 -0.00000000000E+00 -0.00000000000E+00 -0.85950942276E+03  0.85950942276E+03  0.00000000000E+00 0. -1.
         -6    2    1    2    0  503 -0.17791247550E+03 -0.56714433200E+02 -0.53148724682E+03  0.58876126546E+03  0.17114835174E+03 0.  0.
        -24    2    3    3    0    0 -0.49566097214E+02 -0.26303648395E+02 -0.35776722784E+03  0.37059081914E+03  0.78685996261E+02 0.  0.
          6    2    1    2  501    0  0.17791247550E+03  0.56714433200E+02 -0.24572166517E+03  0.35304866806E+03  0.17144926191E+03 0.  0.
         24    2    5    5    0    0  0.65968854759E+02  0.68970299450E+02 -0.66616619997E+02  0.14143040871E+03  0.80349203132E+02 0.  0.
          5    1    5    5  501    0  0.11194362074E+03 -0.12255866250E+02 -0.17910504517E+03  0.21161825935E+03  0.47000000000E+01 0. -1.
        -13    1    6    6    0    0  0.67588751484E+02  0.84984607110E+02 -0.56304911994E+02  0.12231461845E+03  0.00000000000E+00 0.  1.
         14    1    6    6    0    0 -0.16198967253E+01 -0.16014307660E+02 -0.10311708003E+02  0.19115790257E+02  0.00000000000E+00 0. -1.
         -5    1    3    3    0  503 -0.12834637828E+03 -0.30410784805E+02 -0.17372001898E+03  0.21817044632E+03  0.47000000000E+01 0.  1.
         11    1    4    4    0    0 -0.21526958468E+02  0.27538653636E+02 -0.15713437080E+03  0.16097514675E+03  0.00000000000E+00 0. -1.
        -12    1    4    4    0    0 -0.28039138746E+02 -0.53842302031E+02 -0.20063285704E+03  0.20961567239E+03  0.00000000000E+00 0.  1.
</event>
<event>
12    1  0.1593360E-001  0.2744378E+03  0.7818608E-02  0.1098819E+00
         21   -1    0    0  501  502  0.00000000000E+00  0.00000000000E+00  0.39783884588E+03  0.39783884588E+03  0.00000000000E+00 0.  1.
         21   -1    0    0  502  503 -0.00000000000E+00 -0.00000000000E+00 -0.21420934668E+03  0.21420934668E+03  0.00000000000E+00 0.  1.
         -6    2    1    2    0  503 -0.83235253287E+02 -0.19666461395E+03  0.19662669724E+03  0.33730275014E+03  0.17177313357E+03 0.  0.
        -24    2    3    3    0    0 -0.28685294934E+02 -0.11942665659E+03  0.19341156491E+03  0.24257246412E+03  0.79673047264E+02 0.  0.
          6    2    1    2  501    0  0.83235253287E+02  0.19666461395E+03 -0.12997198037E+02  0.27474544242E+03  0.17236894502E+03 0.  0.
         24    2    5    5    0    0  0.10198481320E+03  0.14244569081E+03 -0.57314577723E+02  0.20210001748E+03  0.82872065799E+02 0.  0.
          5    1    5    5  501    0 -0.18749559916E+02  0.54218923136E+02  0.44317379686E+02  0.72645424945E+02  0.47000000000E+01 0. -1.
        -11    1    6    6    0    0  0.59330851806E+02  0.78791665794E+02  0.11258717217E+02  0.99272530380E+02  0.00000000000E+00 0.  1.
         12    1    6    6    0    0  0.42653961397E+02  0.63654025017E+02 -0.68573294940E+02  0.10282748710E+03  0.00000000000E+00 0. -1.
         -5    1    3    3    0  503 -0.54549958353E+02 -0.77237957354E+02  0.32151323315E+01  0.94730286014E+02  0.47000000000E+01 0.  1.
         13    1    4    4    0    0 -0.17168963611E+02 -0.35323774834E+02  0.13221652068E+03  0.13792661354E+03  0.00000000000E+00 0. -1.
        -14    1    4    4    0    0 -0.11516331323E+02 -0.84102881760E+02  0.61195044224E+02  0.10464585059E+03  0.00000000000E+00 0.  1.
</event>
<event>
12    1  0.1593360E-001  0.1889146E+03  0.7818608E-02  0.1159564E+00
         21   -1    0    0  503  502  0.00000000000E+00  0.00000000000E+00  0.34882601770E+03  0.34882601770E+03  0.00000000000E+00 0. -1.
         21   -1    0    0  501  503 -0.00000000000E+00 -0.00000000000E+00 -0.10640503466E+03  0.10640503466E+03  0.00000000000E+00 0. -1.
          6    2    1    2  501    0 -0.62596166454E+02  0.45734486000E+02  0.75193845720E+02  0.20332941570E+03  0.17227540042E+03 0.  0.
         24    2    3    3    0    0 -0.38243420426E+02 -0.26944885381E+02 -0.12671785289E+01  0.94960944765E+02  0.82628017253E+02 0.  0.
         -6    2    1    2    0  502  0.62596166454E+02 -0.45734486000E+02  0.16722713732E+03  0.25190163665E+03  0.17169623126E+03 0.  0.
        -24    2    5    5    0    0  0.52615429360E+02 -0.91198454681E+02  0.15453539295E+03  0.20342733484E+03  0.80099633853E+02 0.  0.
          5    1    3    3  501    0 -0.24352746028E+02  0.72679371381E+02  0.76461024249E+02  0.10836847093E+03  0.47000000000E+01 0. -1.
        -11    1    4    4    0    0  0.12029538035E+01  0.14262983242E+02 -0.28391699231E+02  0.31795728865E+02  0.00000000000E+00 0.  1.
         12    1    4    4    0    0 -0.39446374230E+02 -0.41207868623E+02  0.27124520703E+02  0.63165215900E+02  0.00000000000E+00 0. -1.
         -5    1    5    5    0  502  0.99807370938E+01  0.45463968681E+02  0.12691744364E+02  0.48474301812E+02  0.47000000000E+01 0.  1.
         13    1    6    6    0    0  0.64474625027E+02 -0.33084961877E+02  0.93836418118E+02  0.11856165206E+03  0.00000000000E+00 0. -1.
        -14    1    6    6    0    0 -0.11859195667E+02 -0.58113492804E+02  0.60698974834E+02  0.84865682779E+02  0.00000000000E+00 0.  1.
</event>
<event>
12    1  0.1593360E-001  0.3705897E+03  0.7818608E-02  0.1054519E+00
         21   -1    0    0  501  502  0.00000000000E+00  0.00000000000E+00  0.86899220977E+03  0.86899220977E+03  0.00000000000E+00 0.  1.
         21   -1    0    0  502  503 -0.00000000000E+00 -0.00000000000E+00 -0.16765300630E+03  0.16765300630E+03  0.00000000000E+00 0. -1.
         -6    2    1    2    0  503 -0.14888543968E+03  0.29210430336E+03  0.47649697494E+03  0.60364403844E+03  0.17275693859E+03 0.  0.
        -24    2    3    3    0    0 -0.10318661972E+03  0.27862730714E+03  0.45882603564E+03  0.55261107196E+03  0.81098773691E+02 0.  0.
          6    2    1    2  501    0  0.14888543968E+03 -0.29210430336E+03  0.22484222853E+03  0.43300117762E+03  0.17159310563E+03 0.  0.
         24    2    5    5    0    0  0.15565674211E+03 -0.18556873664E+03  0.19804612112E+03  0.32283857559E+03  0.79609687950E+02 0.  0.
          5    1    5    5  501    0 -0.67713024315E+01 -0.10653556673E+03  0.26796107406E+02  0.11016260203E+03  0.47000000000E+01 0. -1.
        -13    1    6    6    0    0  0.70141084072E+02 -0.52046171160E+02  0.11328356014E+03  0.14304454063E+03  0.00000000000E+00 0.  1.
         14    1    6    6    0    0  0.85515658035E+02 -0.13352256548E+03  0.84762560981E+02  0.17979403495E+03  0.00000000000E+00 0. -1.
         -5    1    3    3    0  503 -0.45698819957E+02  0.13476996224E+02  0.17670939298E+02  0.51032966486E+02  0.47000000000E+01 0.  1.
         13    1    4    4    0    0 -0.14969858205E+02  0.14967767194E+03  0.19947837920E+03  0.24983819944E+03  0.00000000000E+00 0. -1.
        -14    1    4    4    0    0 -0.88216761514E+02  0.12894963521E+03  0.25934765644E+03  0.30277287252E+03  0.00000000000E+00 0.  1.
</event>
<event>
12    1  0.1593360E-001  0.2326465E+03  0.7818608E-02  0.1124838E+00
         21   -1    0    0  503  502  0.00000000000E+00  0.00000000000E+00  0.22967596614E+04  0.22967596614E+04  0.00000000000E+00 0. -1.
         21   -1    0    0  501  503 -0.00000000000E+00 -0.00000000000E+00 -0.78015840725E+02  0.78015840725E+02  0.00000000000E+00 0. -1.
          6    2    1    2  501    0 -0.15224218501E+03 -0.32940223827E+02  0.11694474654E+03  0.26013989307E+03  0.17243534724E+03 0.  0.
         24    2    3    3    0    0 -0.36888893895E+02 -0.15223143688E+02  0.67976460308E+02  0.13348974598E+03  0.10773197543E+03 0.  0.
         -6    2    1    2    0  502  0.15224218501E+03  0.32940223827E+02  0.21017990742E+04  0.21146356091E+04  0.17280529456E+03 0.  0.
        -24    2    5    5    0    0  0.66866282043E+02 -0.41941471310E+02  0.13384043826E+04  0.13428261389E+04  0.75003742696E+02 0.  0.
          5    1    3    3  501    0 -0.11535329111E+03 -0.17717080139E+02  0.48968286232E+02  0.12665014708E+03  0.47000000000E+01 0. -1.
        -13    1    4    4    0    0 -0.46268900741E+02 -0.35514197727E+02 -0.36644100857E+01  0.58442256264E+02  0.00000000000E+00 0.  1.
         14    1    4    4    0    0  0.93800068457E+01  0.20291054039E+02  0.71640870393E+02  0.75047489719E+02  0.00000000000E+00 0. -1.
         -5    1    5    5    0  502  0.85375902967E+02  0.74881695137E+02  0.76339469160E+03  0.77180947016E+03  0.47000000000E+01 0.  1.
         13    1    6    6    0    0  0.42684332889E+02 -0.11944182837E+01  0.26860669928E+03  0.27197966433E+03  0.00000000000E+00 0. -1.
        -14    1    6    6    0    0  0.24181949154E+02 -0.40747053026E+02  0.10697976833E+04  0.10708464746E+04  0.00000000000E+00 0.  1.
</event>
<event>
12    1  0.1593360E-001  0.2086905E+03  0.7818608E-02  0.1143417E+00
         21   -1    0    0  501  502  0.00000000000E+00  0.00000000000E+00  0.10778868009E+03  0.10778868009E+03  0.00000000000E+00 0. -1.
         21   -1    0    0  502  503 -0.00000000000E+00 -0.00000000000E+00 -0.43626923821E+03  0.43626923821E+03  0.00000000000E+00 0. -1.
         -6    2    1    2    0  503  0.66622377467E+02  0.88756176162E+02 -0.24801728308E+03  0.32413621632E+03  0.17673571807E+03 0.  0.
        -24    2    3    3    0    0  0.49033912290E+01 -0.19856546966E+02 -0.10030664948E+03  0.13062529114E+03  0.81137026395E+02 0.  0.
          6    2    1    2  501    0 -0.66622377467E+02 -0.88756176162E+02 -0.80463275037E+02  0.21992170198E+03  0.17197388286E+03 0.  0.
         24    2    5    5    0    0 -0.65410401264E+02 -0.74453032434E+02  0.99959534379E+01  0.12821013879E+03  0.80722648437E+02 0.  0.
          5    1    5    5  501    0 -0.12119762026E+01 -0.14303143728E+02 -0.90459228475E+02  0.91711563192E+02  0.47000000000E+01 0. -1.
        -11    1    6    6    0    0  0.41285870440E+01 -0.29604208560E+02  0.30766915944E+02  0.42895891553E+02  0.00000000000E+00 0.  1.
         12    1    6    6    0    0 -0.69538988308E+02 -0.44848823874E+02 -0.20770962506E+02  0.85314247235E+02  0.00000000000E+00 0. -1.
         -5    1    3    3    0  503  0.61718986238E+02  0.10861272313E+03 -0.14771063360E+03  0.19351092518E+03  0.47000000000E+01 0.  1.
         11    1    4    4    0    0  0.10972999114E+02  0.30707827023E+02 -0.42855863673E+02  0.53851670366E+02  0.00000000000E+00 0. -1.
        -12    1    4    4    0    0 -0.60696078849E+01 -0.50564373989E+02 -0.57450785811E+02  0.76773620777E+02  0.00000000000E+00 0.  1.
</event>
<event>
12    1  0.1593360E-001  0.1836770E+03  0.7818608E-02  0.1164715E+00
         21   -1    0    0  503  502  0.00000000000E+00  0.00000000000E+00  0.23899624984E+03  0.23899624984E+03  0.00000000000E+00 0. -1.
         21   -1    0    0  501  503 -0.00000000000E+00 -0.00000000000E+00 -0.14016414168E+03  0.14016414168E+03  0.00000000000E+00 0. -1.
          6    2    1    2  501    0  0.72186019956E+01 -0.61873224732E+02  0.39369095415E+02  0.18609802300E+03  0.17088634918E+03 0.  0.
         24    2    3    3    0    0  0.52314977910E+02 -0.27248547842E+02  0.69803097491E+02  0.12143837675E+03  0.79971661576E+02 0.  0.
         -6    2    1    2    0  502 -0.72186019956E+01  0.61873224732E+02  0.59463012740E+02  0.19306236853E+03  0.17279127323E+03 0.  0.
        -24    2    5    5    0    0 -0.23698956803E+02  0.10210127513E+03  0.70310862348E+02  0.14801057639E+03  0.77312369153E+02 0.  0.
          5    1    3    3  501    0 -0.45096375914E+02 -0.34624676890E+02 -0.30434002077E+02  0.64659646247E+02  0.47000000000E+01 0. -1.
        -13    1    4    4    0    0  0.18237486901E+02 -0.27608898264E+02  0.79412384410E+02  0.86030134194E+02  0.00000000000E+00 0.  1.
         14    1    4    4    0    0  0.34077491009E+02  0.36035042173E+00 -0.96092869182E+01  0.35408242557E+02  0.00000000000E+00 0. -1.
         -5    1    5    5    0  502  0.16480354808E+02 -0.40228050396E+02 -0.10847849608E+02  0.45051792133E+02  0.47000000000E+01 0.  1.
         11    1    6    6    0    0  0.16734720223E+02  0.25202042283E+02 -0.77315058095E+01  0.31224509255E+02  0.00000000000E+00 0. -1.
        -12    1    6    6    0    0 -0.40433677026E+02  0.76899232845E+02  0.78042368157E+02  0.11678606714E+03  0.00000000000E+00 0.  1.
</event>
<event>
12    1  0.1593360E-001  0.2215863E+03  0.7818608E-02  0.1135741E+00
         21   -1    0    0  503  502  0.00000000000E+00  0.00000000000E+00  0.32568622400E+02  0.32568622400E+02  0.00000000000E+00 0. -1.
         21   -1    0    0  501  503 -0.00000000000E+00 -0.00000000000E+00 -0.15602668004E+04  0.15602668004E+04  0.00000000000E+00 0. -1.
          6    2    1    2  501    0  0.10713774865E+03  0.29060900481E+02 -0.53574209371E+03  0.57975862599E+03  0.19177445167E+03 0.  0.
         24    2    3    3    0    0  0.80751471818E+02  0.43241952341E+02 -0.15794890309E+03  0.20075054861E+03  0.83440159023E+02 0.  0.
         -6    2    1    2    0  502 -0.10713774865E+03 -0.29060900481E+02 -0.99195608430E+03  0.10130767968E+04  0.17327633987E+03 0.  0.
        -24    2    5    5    0    0 -0.11899216206E+03 -0.57840571615E+02 -0.93737957446E+03  0.95007297143E+03  0.80333791571E+02 0.  0.
          5    1    3    3  501    0  0.26386276831E+02 -0.14181051860E+02 -0.37779319062E+03  0.37900807738E+03  0.47000000000E+01 0. -1.
        -13    1    4    4    0    0  0.57851467038E+02 -0.14035673553E+02 -0.56826235328E+02  0.82298319497E+02  0.00000000000E+00 0.  1.
         14    1    4    4    0    0  0.22900004780E+02  0.57277625894E+02 -0.10112266776E+03  0.11845222911E+03  0.00000000000E+00 0. -1.
         -5    1    5    5    0  502  0.11854413413E+02  0.28779671134E+02 -0.54576509844E+02  0.63003825397E+02  0.47000000000E+01 0.  1.
         13    1    6    6    0    0 -0.20146277157E+02 -0.41590288928E+02 -0.45883306950E+03  0.46115443214E+03  0.00000000000E+00 0. -1.
        -14    1    6    6    0    0 -0.98845884906E+02 -0.16250282687E+02 -0.47854650495E+03  0.48891853928E+03  0.00000000000E+00 0.  1.
</event>
<event>
12    1  0.1593360E-001  0.3413792E+03  0.7818608E-02  0.1066228E+00
         21   -1    0    0  503  502  0.00000000000E+00  0.00000000000E+00  0.80812391007E+02  0.80812391007E+02  0.00000000000E+00 0.  1.
         21   -1    0    0  501  503 -0.00000000000E+00 -0.00000000000E+00 -0.15570879415E+04  0.15570879415E+04  0.00000000000E+00 0.  1.
          6    2    1    2  501    0 -0.26659871384E+03 -0.12549369732E+03 -0.96155973241E+03  0.10203611386E+04  0.17238385050E+03 0.  0.
         24    2    3    3    0    0 -0.79540676638E+02 -0.96505426618E+02 -0.34795002268E+03  0.37820072642E+03  0.79539641511E+02 0.  0.
         -6    2    1    2    0  502  0.26659871384E+03  0.12549369732E+03 -0.51471581809E+03  0.61753919390E+03  0.17204284444E+03 0.  0.
        -24    2    5    5    0    0  0.19423996963E+03  0.13156272568E+03 -0.28821878963E+03  0.37964086505E+03  0.77583497783E+02 0.  0.
          5    1    3    3  501    0 -0.18705803720E+03 -0.28988270700E+02 -0.61360970972E+03  0.64216041219E+03  0.47000000000E+01 0. -1.
        -13    1    4    4    0    0 -0.68345836034E+01 -0.56954353577E+02 -0.20645597202E+03  0.21427687301E+03  0.00000000000E+00 0.  1.
         14    1    4    4    0    0 -0.72706093035E+02 -0.39551073041E+02 -0.14149405066E+03  0.16392385341E+03  0.00000000000E+00 0. -1.
         -5    1    5    5    0  502  0.72358744206E+02 -0.60690283649E+01 -0.22649702846E+03  0.23789832885E+03  0.47000000000E+01 0.  1.
         13    1    6    6    0    0  0.42361430998E+02  0.72627542189E+02 -0.92879934752E+02  0.12528341071E+03  0.00000000000E+00 0. -1.
        -14    1    6    6    0    0  0.15187853863E+03  0.58935183493E+02 -0.19533885487E+03  0.25435745433E+03  0.00000000000E+00 0.  1.
</event>
<event>
12    1  0.1593360E-001  0.2425464E+03  0.7818608E-02  0.1118309E+00
         21   -1    0    0  501  502  0.00000000000E+00  0.00000000000E+00  0.16551594048E+03  0.16551594048E+03  0.00000000000E+00 0. -1.
         21   -1    0    0  502  503 -0.00000000000E+00 -0.00000000000E+00 -0.36274597107E+03  0.36274597107E+03  0.00000000000E+00 0.  1.
         -6    2    1    2    0  503 -0.34753971183E+02  0.16635791329E+03 -0.14021326379E+03  0.27910395784E+03  0.17133728757E+03 0.  0.
        -24    2    3    3    0    0 -0.82025583279E+02  0.10480964961E+03 -0.67041303866E+02  0.17233776567E+03  0.86559286543E+02 0.  0.
          6    2    1    2  501    0  0.34753971183E+02 -0.16635791329E+03 -0.57016766808E+02  0.24915795371E+03  0.17304906927E+03 0.  0.
         24    2    5    5    0    0  0.64851604669E+02 -0.56002316366E+02 -0.65277415391E+02  0.13437749532E+03  0.80337912730E+02 0.  0.
          5    1    5    5  501    0 -0.30097633486E+02 -0.11035559692E+03  0.82606485837E+01  0.11478045839E+03  0.47000000000E+01 0. -1.
        -11    1    6    6    0    0  0.10160552032E+02  0.15869288379E+02 -0.33868675216E+02  0.38757686878E+02  0.00000000000E+00 0.  1.
         12    1    6    6    0    0  0.54691052637E+02 -0.71871604744E+02 -0.31408740176E+02  0.95619808442E+02  0.00000000000E+00 0. -1.
         -5    1    3    3    0  503  0.47271612096E+02  0.61548263674E+02 -0.73171959921E+02  0.10676619217E+03  0.47000000000E+01 0.  1.
         11    1    4    4    0    0 -0.15200697549E+02  0.34342016750E+02  0.19448359100E+02  0.42292717956E+02  0.00000000000E+00 0. -1.
        -12    1    4    4    0    0 -0.66824885730E+02  0.70467632865E+02 -0.86489662966E+02  0.13004504771E+03  0.00000000000E+00 0.  1.
</event>
<event>
12    1  0.1593360E-001  0.2975658E+03  0.7818608E-02  0.1086471E+00
         21   -1    0    0  503  502  0.00000000000E+00  0.00000000000E+00  0.97478645654E+03  0.97478645654E+03  0.00000000000E+00 0.  1.
         21   -1    0    0  501  503 -0.00000000000E+00 -0.00000000000E+00 -0.99689187939E+02  0.99689187939E+02  0.00000000000E+00 0.  1.
          6    2    1    2  501    0  0.19544229283E+03  0.14404814631E+03  0.59785082767E+03  0.66781063574E+03  0.17204032893E+03 0.  0.
         24    2    3    3    0    0  0.16145113675E+03  0.49190602228E+02  0.46479582715E+03  0.50084035238E+03  0.79496620901E+02 0.  0.
         -6    2    1    2    0  502 -0.19544229283E+03 -0.14404814631E+03  0.27724644093E+03  0.40666500873E+03  0.17193976283E+03 0.  0.
        -24    2    5    5    0    0 -0.89540470952E+02 -0.12827635596E+01  0.10257533670E+03  0.15740764166E+03  0.78970402896E+02 0.  0.
          5    1    3    3  501    0  0.33991156084E+02  0.94857544080E+02  0.13305500053E+03  0.16697028336E+03  0.47000000000E+01 0. -1.
        -11    1    4    4    0    0  0.47395974243E+02  0.53529815759E+02  0.20384107420E+03  0.21601621023E+03  0.00000000000E+00 0.  1.
         12    1    4    4    0    0  0.11405516251E+03 -0.43392135316E+01  0.26095475295E+03  0.28482414216E+03  0.00000000000E+00 0. -1.
         -5    1    5    5    0  502 -0.10590182188E+03 -0.14276538275E+03  0.17467110423E+03  0.24925736708E+03  0.47000000000E+01 0.  1.
         13    1    6    6    0    0 -0.10076256542E+03 -0.12569507500E+02  0.97311497371E+02  0.14064357301E+03  0.00000000000E+00 0. -1.
        -14    1    6    6    0    0  0.11222094471E+02  0.11286743940E+02  0.52638393255E+01  0.16764068645E+02  0.00000000000E+00 0.  1.
</event>
<event>
12    1  0.1593360E-001  0.1941964E+03  0.7818608E-02  0.1154984E+00
         21   -1    0    0  503  502  0.00000000000E+00  0.00000000000E+00  0.94003958009E+02  0.94003958009E+02  0.00000000000E+00 0.  1.
         21   -1    0    0  501  503 -0.00000000000E+00 -0.00000000000E+00 -0.52606489924E+03  0.52606489924E+03  0.00000000000E+00 0.  1.
          6    2    1    2  501    0  0.39399146308E+02  0.80667276778E+02 -0.36901441479E+03  0.41699388279E+03  0.17219976099E+03 0.  0.
         24    2    3    3    0    0  0.24802470793E+02  0.11948890563E+03 -0.32418105034E+03  0.35573784332E+03  0.81014187923E+02 0.  0.
         -6    2    1    2    0  502 -0.39399146308E+02 -0.80667276778E+02 -0.63046526437E+02  0.20307497446E+03  0.17089493405E+03 0.  0.
        -24    2    5    5    0    0 -0.48416401524E+02 -0.10583433927E+03 -0.89069152086E+02  0.16547232865E+03  0.76829176696E+02 0.  0.
          5    1    3    3  501    0  0.14596675515E+02 -0.38821628854E+02 -0.44833364457E+02  0.61256039469E+02  0.47000000000E+01 0. -1.
        -13    1    4    4    0    0 -0.21548363676E+02  0.24954166647E+02 -0.35464208737E+02  0.48422644615E+02  0.00000000000E+00 0.  1.
         14    1    4    4    0    0  0.46350834469E+02  0.94534738986E+02 -0.28871684160E+03  0.30731519870E+03  0.00000000000E+00 0. -1.
         -5    1    5    5    0  502  0.90172552162E+01  0.25167062489E+02  0.26022625649E+02  0.37602645807E+02  0.47000000000E+01 0.  1.
         11    1    6    6    0    0 -0.46697725287E+02 -0.16208725997E+02 -0.37591505984E+02  0.62100899088E+02  0.00000000000E+00 0. -1.
        -12    1    6    6    0    0 -0.17186762371E+01 -0.89625613271E+02 -0.51477646103E+02  0.10337142957E+03  0.00000000000E+00 0.  1.
</event>
<event>
12    1  0.1593360E-001  0.1883745E+03  0.7818608E-02  0.1160425E+00
         21   -1    0    0  501  502  0.00000000000E+00  0.00000000000E+00  0.12592280206E+03  0.12592280206E+03  0.00000000000E+00 0.  1.
         21   -1    0    0  502  503 -0.00000000000E+00 -0.00000000000E+00 -0.34965529272E+03  0.34965529272E+03  0.00000000000E+00 0. -1.
         -6    2    1    2    0  503  0.12423149759E+02  0.78853787083E+02 -0.21853974602E+03  0.28713206020E+03  0.16826450909E+03 0.  0.
        -24    2    3    3    0    0  0.68342510992E+02  0.28157430911E+02 -0.16059798889E+03  0.19186174631E+03  0.74536406794E+02 0.  0.
          6    2    1    2  501    0 -0.12423149759E+02 -0.78853787083E+02 -0.51927446383E+01  0.18844603458E+03  0.17062440905E+03 0.  0.
         24    2    5    5    0    0  0.45767388005E+02 -0.75729648534E+01 -0.21835462054E+02  0.94818237714E+02  0.79760310923E+02 0.  0.
          5    1    5    5  501    0 -0.58190537764E+02 -0.71280822229E+02  0.16642717416E+02  0.93627796866E+02  0.47000000000E+01 0. -1.
        -13    1    6    6    0    0  0.33585080717E+01 -0.36416106235E+02 -0.23557784520E+02  0.43501512403E+02  0.00000000000E+00 0.  1.
         14    1    6    6    0    0  0.42408879934E+02  0.28843141382E+02  0.17223224665E+01  0.51316725311E+02  0.00000000000E+00 0. -1.
         -5    1    3    3    0  503 -0.55919361233E+02  0.50696356172E+02 -0.57941757123E+02  0.95270313888E+02  0.47000000000E+01 0.  1.
         11    1    4    4    0    0 -0.34777923380E+01  0.21168271008E+02 -0.83714868856E+02  0.86419731570E+02  0.00000000000E+00 0. -1.
        -12    1    4    4    0    0  0.71820303330E+02  0.69891599025E+01 -0.76883120037E+02  0.10544201474E+03  0.00000000000E+00 0.  1.
</event>
<event>
12    1  0.1593360E-001  0.1845494E+03  0.7818608E-02  0.1163517E+00
         21   -1    0    0  501  502  0.00000000000E+00  0.00000000000E+00  0.62483591653E+03  0.62483591653E+03  0.00000000000E+00 0.  1.
         21   -1    0    0  502  503 -0.00000000000E+00 -0.00000000000E+00 -0.60561514511E+02  0.60561514511E+02  0.00000000000E+00 0. -1.
         -6    2    1    2    0  503 -0.53727280723E+02  0.41698345445E+02  0.17314077057E+03  0.25291157863E+03  0.17135100661E+03 0.  0.
        -24    2    3    3    0    0  0.65937851161E+01 -0.18640261948E+02  0.32804812043E+02  0.88608049205E+02  0.79901772966E+02 0.  0.
          6    2    1    2  501    0  0.53727280723E+02 -0.41698345445E+02  0.39113363145E+03  0.43248585241E+03  0.17156084104E+03 0.  0.
         24    2    5    5    0    0 -0.27475356058E+02 -0.38322976648E+02  0.27320729540E+03  0.28918905528E+03  0.82246809681E+02 0.  0.
          5    1    5    5  501    0  0.81202636780E+02 -0.33753687966E+01  0.11792633604E+03  0.14329679713E+03  0.47000000000E+01 0. -1.
        -13    1    6    6    0    0 -0.32346606343E+02 -0.45448687949E+02  0.90727555529E+02  0.10650528396E+03  0.00000000000E+00 0.  1.
         14    1    6    6    0    0  0.48712502855E+01  0.71257113012E+01  0.18247973987E+03  0.18268377132E+03  0.00000000000E+00 0. -1.
         -5    1    3    3    0  503 -0.60321065839E+02  0.60338607393E+02  0.14033595853E+03  0.16430352942E+03  0.47000000000E+01 0.  1.
         13    1    4    4    0    0  0.41537893487E+02  0.21142695324E+01  0.14672150884E+02  0.44103727083E+02  0.00000000000E+00 0. -1.
        -14    1    4    4    0    0 -0.34944108371E+02 -0.20754531481E+02  0.18132661158E+02  0.44504322122E+02  0.00000000000E+00 0.  1.
</event>
<event>
12    1  0.1593360E-001  0.1917549E+03  0.7818608E-02  0.1157183E+00
         21   -1    0    0  501  502  0.00000000000E+00  0.00000000000E+00  0.74618480092E+03  0.74618480092E+03  0.00000000000E+00 0. -1.
         21   -1    0    0  502  503 -0.00000000000E+00 -0.00000000000E+00 -0.10067950785E+03  0.10067950785E+03  0.00000000000E+00 0.  1.
         -6    2    1    2    0  503 -0.84275172074E+02  0.65966696186E+01  0.19746429733E+02  0.19276895853E+03  0.17211661514E+03 0.  0.
        -24    2    3    3    0    0 -0.38993255882E+02  0.70217896789E+02  0.19071613050E+01  0.11252905587E+03  0.78791650043E+02 0.  0.
          6    2    1    2  501    0  0.84275172074E+02 -0.65966696186E+01  0.62575886334E+03  0.65409535023E+03  0.17064803390E+03 0.  0.
         24    2    5    5    0    0  0.60157101636E+02 -0.93277366743E+01  0.16952888492E+03  0.19719599233E+03  0.80251685459E+02 0.  0.
          5    1    5    5  501    0  0.24118070438E+02  0.27310670557E+01  0.45622997841E+03  0.45689935790E+03  0.47000000000E+01 0. -1.
        -11    1    6    6    0    0  0.73483020221E+02 -0.16947329833E+02  0.16463433484E+03  0.18108404252E+03  0.00000000000E+00 0.  1.
         12    1    6    6    0    0 -0.13325918585E+02  0.76195931590E+01  0.48945500862E+01  0.16111949807E+02  0.00000000000E+00 0. -1.
         -5    1    3    3    0  503 -0.45281916192E+02 -0.63621227171E+02  0.17839268428E+02  0.80239902659E+02  0.47000000000E+01 0.  1.
         11    1    4    4    0    0 -0.15706530716E+02  0.28571661879E+02  0.39906446496E+02  0.51532120484E+02  0.00000000000E+00 0. -1.
        -12    1    4    4    0    0 -0.23286725166E+02  0.41646234910E+02 -0.37999285191E+02  0.60996935384E+02  0.00000000000E+00 0.  1.
</event>
<event>
12    1  0.1593360E-001  0.1839939E+03  0.7818608E-02  0.1164059E+00
         21   -1    0    0  501  502  0.00000000000E+00  0.00000000000E+00  0.81260347503E+03  0.81260347503E+03  0.00000000000E+00 0.  1.
         21   -1    0    0  502  503 -0.00000000000E+00 -0.00000000000E+00 -0.50069278707E+02  0.50069278707E+02  0.00000000000E+00 0.  1.
         -6    2    1    2    0  503 -0.47078524697E+02  0.44367920096E+02  0.20358926734E+03  0.27422294159E+03  0.17194397953E+03 0.  0.
        -24    2    3    3    0    0 -0.24729930834E+02 -0.26010582183E+02  0.40245455664E+02  0.94902323577E+02  0.78093754259E+02 0.  0.
          6    2    1    2  501    0  0.47078524697E+02 -0.44367920096E+02  0.55894492899E+03  0.58844981216E+03  0.17224647445E+03 0.  0.
         24    2    5    5    0    0  0.56961943423E+02  0.34482270936E+02  0.30282775951E+03  0.32024629038E+03  0.80120812300E+02 0.  0.
          5    1    5    5  501    0 -0.98834187258E+01 -0.78850191032E+02  0.25611716948E+03  0.26820352177E+03  0.47000000000E+01 0. -1.
        -11    1    6    6    0    0  0.58535734251E+02 -0.54584609204E+01  0.22746290434E+03  0.23493743812E+03  0.00000000000E+00 0.  1.
         12    1    6    6    0    0 -0.15737908283E+01  0.39940731856E+02  0.75364855178E+02  0.85308852265E+02  0.00000000000E+00 0. -1.
         -5    1    3    3    0  503 -0.22348593863E+02  0.70378502279E+02  0.16334381167E+03  0.17932061801E+03  0.47000000000E+01 0.  1.
         13    1    4    4    0    0  0.40131478553E+01  0.15438475102E+02  0.41486072134E+02  0.44447115208E+02  0.00000000000E+00 0. -1.
        -14    1    4    4    0    0 -0.28743078689E+02 -0.41449057285E+02 -0.12406164704E+01  0.50455208369E+02  0.00000000000E+00 0.  1.
</event>
<event>
12    1  0.1593360E-001  0.2095573E+03  0.7818608E-02  0.1142072E+00
         21   -1    0    0  501  502  0.00000000000E+00  0.00000000000E+00  0.31614707400E+03  0.31614707400E+03  0.00000000000E+00 0. -1.
         21   -1    0    0  502  503 -0.00000000000E+00 -0.00000000000E+00 -0.13889826087E+03  0.13889826087E+03  0.00000000000E+00 0. -1.
         -6    2    1    2    0  503  0.67491539376E+02  0.95253004224E+02  0.74994534942E+02  0.22257233548E+03  0.17402879517E+03 0.  0.
        -24    2    3    3    0    0  0.69892202400E+02  0.65607444777E+02 -0.15666649765E+02  0.12704138348E+03  0.81882919069E+02 0.  0.
          6    2    1    2  501    0 -0.67491539376E+02 -0.95253004224E+02  0.10225427818E+03  0.23247299939E+03  0.17308817215E+03 0.  0.
         24    2    5    5    0    0 -0.41473911533E+02 -0.10334790856E+03  0.10902004583E+02  0.13702787208E+03  0.79100622517E+02 0.  0.
          5    1    5    5  501    0 -0.26017627843E+02  0.80949043357E+01  0.91352273599E+02  0.95445127307E+02  0.47000000000E+01 0. -1.
        -13    1    6    6    0    0  0.17068714212E+02 -0.42965718962E+02 -0.15689317980E+02  0.48821600849E+02  0.00000000000E+00 0.  1.
         14    1    6    6    0    0 -0.58542625745E+02 -0.60382189597E+02  0.26591322562E+02  0.88206271235E+02  0.00000000000E+00 0. -1.
         -5    1    3    3    0  503 -0.24006630243E+01  0.29645559447E+02  0.90661184707E+02  0.95530952002E+02  0.47000000000E+01 0.  1.
         11    1    4    4    0    0  0.23740406562E+02  0.71882543468E+02  0.54587306917E+01  0.75897988773E+02  0.00000000000E+00 0. -1.
        -12    1    4    4    0    0  0.46151795839E+02 -0.62750986907E+01 -0.21125380456E+02  0.51143394707E+02  0.00000000000E+00 0.  1.
</event>
<event>
12    1  0.1593360E-001  0.2103505E+03  0.7818608E-02  0.1143870E+00
         21   -1    0    0  503  502  0.00000000000E+00  0.00000000000E+00  0.35081911231E+03  0.35081911231E+03  0.00000000000E+00 0.  1.
         21   -1    0    0  501  503 -0.00000000000E+00 -0.00000000000E+00 -0.20967126252E+03  0.20967126252E+03  0.00000000000E+00 0.  1.
          6    2    1    2  501    0 -0.89288038504E+02 -0.38008440837E+02 -0.11524889536E+03  0.22884806996E+03  0.17225601832E+03 0.  0.
         24    2    3    3    0    0 -0.12000687152E+03  0.33773909848E+01 -0.97556677763E+02  0.17415311278E+03  0.79993408058E+02 0.  0.
         -6    2    1    2    0  502  0.89288038504E+02  0.38008440837E+02  0.25639674515E+03  0.33164230486E+03  0.18662886181E+03 0.  0.
        -24    2    5    5    0    0  0.80830402857E+01  0.84556870813E+02  0.13576859861E+03  0.17888678841E+03  0.79700506640E+02 0.  0.
          5    1    3    3  501    0  0.30718833019E+02 -0.41385831822E+02 -0.17692217602E+02  0.54694957184E+02  0.47000000000E+01 0. -1.
        -11    1    4    4    0    0 -0.12373734879E+03 -0.54417198949E+01 -0.10472064772E+03  0.16219419799E+03  0.00000000000E+00 0.  1.
         12    1    4    4    0    0  0.37304772707E+01  0.88191108797E+01  0.71639699613E+01  0.11958914791E+02  0.00000000000E+00 0. -1.
         -5    1    5    5    0  502  0.81204998218E+02 -0.46548429976E+02  0.12062814654E+03  0.15275551645E+03  0.47000000000E+01 0.  1.
         13    1    6    6    0    0 -0.13038063911E+01  0.71278415949E+02  0.39995935295E+02  0.81743423780E+02  0.00000000000E+00 0. -1.
        -14    1    6    6    0    0  0.93868466768E+01  0.13278454865E+02  0.95772663311E+02  0.97143364631E+02  0.00000000000E+00 0.  1.
</event>
<event>
12    1  0.1593360E-001  0.2741634E+03  0.7818608E-02  0.1098980E+00
         21   -1    0    0  503  502  0.00000000000E+00  0.00000000000E+00  0.31664406982E+03  0.31664406982E+03  0.00000000000E+00 0. -1.
         21   -1    0    0  501  503 -0.00000000000E+00 -0.00000000000E+00 -0.33761102542E+03  0.33761102542E+03  0.00000000000E+00 0.  1.
          6    2    1    2  501    0 -0.16940766062E+03  0.13029436403E+03 -0.18905757696E+03  0.33302907328E+03  0.17172658346E+03 0.  0.
         24    2    3    3    0    0 -0.59554234614E+02  0.21621793935E+02 -0.13325096412E+03  0.16866979994E+03  0.81728043766E+02 0.  0.
         -6    2    1    2    0  502  0.16940766062E+03 -0.13029436403E+03  0.16809062136E+03  0.32122602196E+03  0.17104421481E+03 0.  0.
        -24    2    5    5    0    0  0.15942990165E+03 -0.15369437450E+03  0.17635861561E+03  0.29406785757E+03  0.79584478759E+02 0.  0.
          5    1    3    3  501    0 -0.10985342601E+03  0.10867257009E+03 -0.55806612833E+02  0.16435927334E+03  0.47000000000E+01 0. -1.
        -13    1    4    4    0    0 -0.49118518938E+02  0.39712448903E+02 -0.43927328491E+02  0.76937102160E+02  0.00000000000E+00 0.  1.
         14    1    4    4    0    0 -0.10435715676E+02 -0.18090654968E+02 -0.89323635634E+02  0.91732697779E+02  0.00000000000E+00 0. -1.
         -5    1    5    5    0  502  0.99777589706E+01  0.23400010477E+02 -0.82679942490E+01  0.27158164394E+02  0.47000000000E+01 0.  1.
         13    1    6    6    0    0  0.56465054270E+02 -0.10520208606E+03  0.10987471535E+03  0.16225977425E+03  0.00000000000E+00 0. -1.
        -14    1    6    6    0    0  0.10296484738E+03 -0.48492288442E+02  0.66483900259E+02  0.13180808332E+03  0.00000000000E+00 0.  1.
</event>
<event>
12    1  0.1593360E-001  0.2003148E+03  0.7818608E-02  0.1150044E+00
         21   -1    0    0  503  502  0.00000000000E+00  0.00000000000E+00  0.44698449734E+03  0.44698449734E+03  0.00000000000E+00 0. -1.
         21   -1    0    0  501  503 -0.00000000000E+00 -0.00000000000E+00 -0.89809870950E+02  0.89809870950E+02  0.00000000000E+00 0. -1.
          6    2    1    2  501    0  0.61379558282E+02  0.74811991170E+02  0.14584329851E+03  0.24561237325E+03  0.17231043489E+03 0.  0.
         24    2    3    3    0    0  0.58279540009E+02  0.91745520509E+02  0.42401846432E+02  0.14064295609E+03  0.78541576255E+02 0.  0.
         -6    2    1    2    0  502 -0.61379558282E+02 -0.74811991170E+02  0.21133132788E+03  0.29118199505E+03  0.17539025029E+03 0.  0.
        -24    2    5    5    0    0 -0.23581286183E+02 -0.36698126756E+02  0.21919129580E+03  0.23672793065E+03  0.78054208274E+02 0.  0.
          5    1    3    3  501    0  0.31000182724E+01 -0.16933529339E+02  0.10344145208E+03  0.10496941715E+03  0.47000000000E+01 0. -1.
        -11    1    4    4    0    0 -0.19300870450E+02  0.13962375083E+02  0.33825695667E+01  0.24060617094E+02  0.00000000000E+00 0.  1.
         12    1    4    4    0    0  0.77580410459E+02  0.77783145426E+02  0.39019276865E+02  0.11658233900E+03  0.00000000000E+00 0. -1.
         -5    1    5    5    0  502 -0.37798272099E+02 -0.38113864414E+02 -0.78599679142E+01  0.54454064401E+02  0.47000000000E+01 0.  1.
         11    1    6    6    0    0 -0.43211039855E+02 -0.17924623473E+02  0.64550633569E+02  0.79719949737E+02  0.00000000000E+00 0. -1.
        -12    1    6    6    0    0  0.19629753671E+02 -0.18773503283E+02  0.15464066223E+03  0.15700798091E+03  0.00000000000E+00 0.  1.
</event>
<event>
12    1  0.1593360E-001  0.2492609E+03  0.7818608E-02  0.1114125E+00
         21   -1    0    0  501  502  0.00000000000E+00  0.00000000000E+00  0.31766733484E+03  0.31766733484E+03  0.00000000000E+00 0.  1.
         21   -1    0    0  502  503 -0.00000000000E+00 -0.00000000000E+00 -0.37530181776E+03  0.37530181776E+03  0.00000000000E+00 0.  1.
         -6    2    1    2    0  503 -0.20397312699E+02  0.17903273681E+03 -0.26980164966E+03  0.36731995383E+03  0.17222731232E+03 0.  0.
        -24    2    3    3    0    0 -0.37483571637E+02  0.15144196608E+03 -0.11686284237E+03  0.21090524976E+03  0.80525854334E+02 0.  0.
          6    2    1    2  501    0  0.20397312699E+02 -0.17903273681E+03  0.21216716674E+03  0.32564919878E+03  0.16900805545E+03 0.  0.
         24    2    5    5    0    0  0.84129723448E+01 -0.81732144575E+02  0.19534274656E+03  0.22606917680E+03  0.78724599095E+02 0.  0.
          5    1    5    5  501    0  0.11984340354E+02 -0.97300592235E+02  0.16824420178E+02  0.99580021979E+02  0.47000000000E+01 0. -1.
        -13    1    6    6    0    0 -0.66823241246E+01 -0.71130945393E+02  0.72274098512E+02  0.10162583414E+03  0.00000000000E+00 0.  1.
         14    1    6    6    0    0  0.15095296469E+02 -0.10601199182E+02  0.12306864805E+03  0.12444334266E+03  0.00000000000E+00 0. -1.
         -5    1    3    3    0  503  0.17086258938E+02  0.27590770728E+02 -0.15293880729E+03  0.15641470407E+03  0.47000000000E+01 0.  1.
         11    1    4    4    0    0 -0.40343014518E+02  0.27352039790E+02 -0.50380154160E+02  0.70098878980E+02  0.00000000000E+00 0. -1.
        -12    1    4    4    0    0  0.28594428803E+01  0.12408992629E+03 -0.66482688207E+02  0.14080637078E+03  0.00000000000E+00 0.  1.
</event>
<event>
12    1  0.1593360E-001  0.2909004E+03  0.7818608E-02  0.1090542E+00
         21   -1    0    0  503  502  0.00000000000E+00  0.00000000000E+00  0.29543655523E+03  0.29543655523E+03  0.00000000000E+00 0.  1.
         21   -1    0    0  501  503 -0.00000000000E+00 -0.00000000000E+00 -0.33636730201E+03  0.33636730201E+03  0.00000000000E+00 0. -1.
          6    2    1    2  501    0 -0.46032569932E+01 -0.22833092700E+03 -0.14791237006E+03  0.32185531772E+03  0.17192025514E+03 0.  0.
         24    2    3    3    0    0 -0.31776827264E+02 -0.16109135144E+03 -0.31573949849E+02  0.18468286619E+03  0.78426121247E+02 0.  0.
         -6    2    1    2    0  502  0.46032569932E+01  0.22833092700E+03  0.10698162328E+03  0.30994853952E+03  0.18018553559E+03 0.  0.
        -24    2    5    5    0    0  0.73779876244E+02  0.86618097820E+02  0.36337844143E+02  0.13708858426E+03  0.67280576757E+02 0.  0.
          5    1    3    3  501    0  0.27173570271E+02 -0.67239575555E+02 -0.11633842021E+03  0.13717245153E+03  0.47000000000E+01 0. -1.
        -13    1    4    4    0    0 -0.10171615453E+01  0.90263736979E+01 -0.13065245775E+01  0.91769845927E+01  0.00000000000E+00 0.  1.
         14    1    4    4    0    0 -0.30759665719E+02 -0.17011772514E+03 -0.30267425272E+02  0.17550588159E+03  0.00000000000E+00 0. -1.
         -5    1    5    5    0  502 -0.69176619251E+02  0.14171282918E+03  0.70643779133E+02  0.17285995527E+03  0.47000000000E+01 0.  1.
         13    1    6    6    0    0  0.33901124159E+02  0.80520121257E+02  0.78827594930E+01  0.87720659162E+02  0.00000000000E+00 0. -1.
        -14    1    6    6    0    0  0.39878752084E+02  0.60979765623E+01  0.28455084650E+02  0.49367925097E+02  0.00000000000E+00 0.  1.
</event>
<event>
12    1  0.1593360E-001  0.2092006E+03  0.7818608E-02  0.1142554E+00
         21   -1    0    0  503  502  0.00000000000E+00  0.00000000000E+00  0.47421799350E+03  0.47421799350E+03  0.00000000000E+00 0.  1.
         21   -1    0    0  501  503 -0.00000000000E+00 -0.00000000000E+00 -0.92541614680E+02  0.92541614680E+02  0.00000000000E+00 0.  1.
          6    2    1    2  501    0  0.55741286702E+02 -0.10438626142E+03  0.16012105784E+03  0.26204392101E+03  0.17036631345E+03 0.  0.
         24    2    3    3    0    0  0.93672259653E+02 -0.61526500010E+02  0.61814337053E+02  0.14819305712E+03  0.74700518609E+02 0.  0.
         -6    2    1    2    0  502 -0.55741286702E+02  0.10438626142E+03  0.22155532098E+03  0.30471568717E+03  0.17251465774E+03 0.  0.
        -24    2    5    5    0    0  0.31733199574E+02  0.22869767948E+02  0.10411423858E+03  0.13705167107E+03  0.80083479121E+02 0.  0.
          5    1    3    3  501    0 -0.37930972951E+02 -0.42859761414E+02  0.98306720785E+02  0.11385086389E+03  0.47000000000E+01 0. -1.
        -11    1    4    4    0    0  0.62033299098E+02 -0.47373941297E+02  0.84273548164E+00  0.78058508275E+02  0.00000000000E+00 0.  1.
         12    1    4    4    0    0  0.31638960555E+02 -0.14152558713E+02  0.60971601572E+02  0.70134548843E+02  0.00000000000E+00 0. -1.
         -5    1    5    5    0  502 -0.87474486276E+02  0.81516493476E+02  0.11744108240E+03  0.16766401610E+03  0.47000000000E+01 0.  1.
         11    1    6    6    0    0  0.18031528098E+02  0.37828134683E+02  0.13250098234E+02  0.43950755197E+02  0.00000000000E+00 0. -1.
        -12    1    6    6    0    0  0.13701671475E+02 -0.14958366735E+02  0.90864140345E+02  0.93100915877E+02  0.00000000000E+00 0.  1.
</event>
<event>
12    1  0.1593360E-001  0.1721807E+03  0.7818608E-02  0.1175706E+00
         21   -1    0    0  501  502  0.00000000000E+00  0.00000000000E+00  0.94664227546E+02  0.94664227546E+02  0.00000000000E+00 0. -1.
         21   -1    0    0  502  503 -0.00000000000E+00 -0.00000000000E+00 -0.31492889974E+03  0.31492889974E+03  0.00000000000E+00 0. -1.
         -6    2    1    2    0  503  0.80377227647E+01 -0.89938776608E+01 -0.12845868557E+03  0.21446616063E+03  0.17131434654E+03 0.  0.
        -24    2    3    3    0    0 -0.43013826033E+02 -0.96908027447E+01 -0.13640577220E+03  0.16258174558E+03  0.76695426306E+02 0.  0.
          6    2    1    2  501    0 -0.80377227647E+01  0.89938776608E+01 -0.91805986618E+02  0.19512696666E+03  0.17175767557E+03 0.  0.
         24    2    5    5    0    0 -0.47074473828E+02  0.56632367889E+02 -0.69680865489E+02  0.12951519432E+03  0.80594859418E+02 0.  0.
          5    1    5    5  501    0  0.39036751063E+02 -0.47638490229E+02 -0.22125121130E+02  0.65611772342E+02  0.47000000000E+01 0. -1.
        -13    1    6    6    0    0  0.11477291999E+02 -0.51367370980E+01 -0.35739259265E+02  0.37886791266E+02  0.00000000000E+00 0.  1.
         14    1    6    6    0    0 -0.58551765827E+02  0.61769104987E+02 -0.33941606224E+02  0.91628403050E+02  0.00000000000E+00 0. -1.
         -5    1    3    3    0  503  0.51051548798E+02  0.69692508393E+00  0.79470866295E+01  0.51884415050E+02  0.47000000000E+01 0.  1.
         11    1    4    4    0    0  0.15149804002E+02 -0.13509318021E+02 -0.75897132696E+02  0.78564578445E+02  0.00000000000E+00 0. -1.
        -12    1    4    4    0    0 -0.58163630035E+02  0.38185152765E+01 -0.60508639507E+02  0.84017167131E+02  0.00000000000E+00 0.  1.
</event>
<event>
12    1  0.1593360E-001  0.2511971E+03  0.7818608E-02  0.1112679E+00
         21   -1    0    0  501  502  0.00000000000E+00  0.00000000000E+00  0.91924489886E+03  0.91924489886E+03  0.00000000000E+00 0. -1.
         21   -1    0    0  502  503 -0.00000000000E+00 -0.00000000000E+00 -0.10299530959E+03  0.10299530959E+03  0.00000000000E+00 0.  1.
         -6    2    1    2    0  503  0.63436285196E+02  0.17100602446E+03  0.11242662858E+03  0.27520854003E+03  0.17272165762E+03 0.  0.
        -24    2    3    3    0    0  0.97394593757E+02  0.17540570245E+03  0.90787946200E+02  0.23443052559E+03  0.80388760451E+02 0.  0.
          6    2    1    2  501    0 -0.63436285196E+02 -0.17100602446E+03  0.70382296068E+03  0.74703166841E+03  0.17152938801E+03 0.  0.
         24    2    5    5    0    0 -0.19973404354E+02 -0.90239051950E+01  0.24078803786E+03  0.25453734487E+03  0.79561378883E+02 0.  0.
          5    1    5    5  501    0 -0.43462880842E+02 -0.16198211926E+03  0.46303492283E+03  0.49249432355E+03  0.47000000000E+01 0. -1.
        -11    1    6    6    0    0  0.13057735556E+02 -0.26770871386E+02  0.37850654585E+02  0.48164884149E+02  0.00000000000E+00 0.  1.
         12    1    6    6    0    0 -0.33031139910E+02  0.17746966191E+02  0.20293738327E+03  0.20637246072E+03  0.00000000000E+00 0. -1.
         -5    1    3    3    0  503 -0.33958308561E+02 -0.43996779947E+01  0.21638682382E+02  0.40778014445E+02  0.47000000000E+01 0.  1.
         13    1    4    4    0    0  0.41654487371E+02  0.69863976198E+02  0.80810122132E+02  0.11465752190E+03  0.00000000000E+00 0. -1.
        -14    1    4    4    0    0  0.55740106386E+02  0.10554172625E+03  0.99778240687E+01  0.11977300369E+03  0.00000000000E+00 0.  1.
</event>
<event>
12    1  0.1593360E-001  0.1799906E+03  0.7818608E-02  0.1169665E+00
         21   -1    0    0  501  502  0.00000000000E+00  0.00000000000E+00  0.14722694432E+03  0.14722694432E+03  0.00000000000E+00 0.  1.
         21   -1    0    0  502  503 -0.00000000000E+00 -0.00000000000E+00 -0.25272812076E+03  0.25272812076E+03  0.00000000000E+00 0.  1.
         -6    2    1    2    0  503  0.34019863644E+02 -0.41754972212E+02 -0.13306974805E+03  0.21786536375E+03  0.16388084101E+03 0.  0.
        -24    2    3    3    0    0 -0.34149991416E+02  0.24632578480E+01 -0.98595753108E+02  0.12947459876E+03  0.76617619644E+02 0.  0.
          6    2    1    2  501    0 -0.34019863644E+02  0.41754972212E+02  0.27568571601E+02  0.18208970133E+03  0.17174342597E+03 0.  0.
         24    2    5    5    0    0 -0.53332994085E+02  0.16379744475E+02 -0.41197475836E+02  0.10614394128E+03  0.80352971119E+02 0.  0.
          5    1    5    5  501    0  0.19313130441E+02  0.25375227737E+02  0.68766047437E+02  0.75945760054E+02  0.47000000000E+01 0. -1.
        -13    1    6    6    0    0 -0.64508592663E+02  0.31804219095E+02 -0.14535020136E+02  0.73376656301E+02  0.00000000000E+00 0.  1.
         14    1    6    6    0    0  0.11175598577E+02 -0.15424474619E+02 -0.26662455700E+02  0.32767284977E+02  0.00000000000E+00 0. -1.
         -5    1    3    3    0  503  0.68169855060E+02 -0.44218230060E+02 -0.34473994938E+02  0.88390764990E+02  0.47000000000E+01 0.  1.
         13    1    4    4    0    0 -0.95605043732E+01  0.34962242873E+02 -0.21161844959E+02  0.41971244355E+02  0.00000000000E+00 0. -1.
        -14    1    4    4    0    0 -0.24589487043E+02 -0.32498985025E+02 -0.77433908149E+02  0.87503354404E+02  0.00000000000E+00 0.  1.
</event>
<event>
12    1  0.1593360E-001  0.1869373E+03  0.7818608E-02  0.1161766E+00
         21   -1    0    0  501  502  0.00000000000E+00  0.00000000000E+00  0.55362620567E+03  0.55362620567E+03  0.00000000000E+00 0. -1.
         21   -1    0    0  502  503 -0.00000000000E+00 -0.00000000000E+00 -0.84418141207E+02  0.84418141207E+02  0.00000000000E+00 0.  1.
         -6    2    1    2    0  503 -0.66180796929E+02  0.73257995329E+01  0.70561374989E+02  0.19774359480E+03  0.17230802774E+03 0.  0.
        -24    2    3    3    0    0  0.33283354340E+02 -0.21274962500E+01  0.20120569870E+02  0.85721958455E+02  0.76361697945E+02 0.  0.
          6    2    1    2  501    0  0.66180796929E+02 -0.73257995329E+01  0.39864668947E+03  0.44030075208E+03  0.17467685602E+03 0.  0.
         24    2    5    5    0    0 -0.11513055511E+02 -0.40474132438E+02  0.12926338769E+03  0.15794530240E+03  0.80417593282E+02 0.  0.
          5    1    5    5  501    0  0.77693852440E+02  0.33148332905E+02  0.26938330178E+03  0.28235544968E+03  0.47000000000E+01 0. -1.
        -13    1    6    6    0    0 -0.30936906848E+02  0.67080401729E+01  0.83894233842E+02  0.89667901058E+02  0.00000000000E+00 0.  1.
         14    1    6    6    0    0  0.19423851337E+02 -0.47182172611E+02  0.45369153848E+02  0.68277401342E+02  0.00000000000E+00 0. -1.
         -5    1    3    3    0  503 -0.99464151269E+02  0.94532957830E+01  0.50440805119E+02  0.11202163635E+03  0.47000000000E+01 0.  1.
         13    1    4    4    0    0 -0.17624440991E+02  0.18145206679E+02  0.17698832179E+02  0.30872610939E+02  0.00000000000E+00 0. -1.
        -14    1    4    4    0    0  0.50907795331E+02 -0.20272702929E+02  0.24217376906E+01  0.54849347516E+02  0.00000000000E+00 0.  1.
</event>
<event>
12    1  0.1593360E-001  0.2374334E+03  0.7818608E-02  0.1121603E+00
         21   -1    0    0  503  502  0.00000000000E+00  0.00000000000E+00  0.12295621594E+04  0.12295621594E+04  0.00000000000E+00 0. -1.
         21   -1    0    0  501  503 -0.00000000000E+00 -0.00000000000E+00 -0.47733293665E+02  0.47733293665E+02  0.00000000000E+00 0. -1.
          6    2    1    2  501    0  0.14397874010E+03 -0.76301846938E+02  0.46006245107E+03  0.51747879541E+03  0.17197382176E+03 0.  0.
         24    2    3    3    0    0  0.82147861210E+02  0.23852469659E+02  0.25262215236E+03  0.27892584061E+03  0.81636151830E+02 0.  0.
         -6    2    1    2    0  502 -0.14397874010E+03  0.76301846938E+02  0.72176641468E+03  0.75981665767E+03  0.17269263580E+03 0.  0.
        -24    2    5    5    0    0 -0.37431344963E+02 -0.21209293468E+02  0.26287160472E+03  0.27870616462E+03  0.82004304227E+02 0.  0.
          5    1    3    3  501    0  0.61830878892E+02 -0.10015431660E+03  0.20744029871E+03  0.23855295481E+03  0.47000000000E+01 0. -1.
        -11    1    4    4    0    0  0.82822769370E+02  0.31892819886E+02  0.13835501517E+03  0.16437418687E+03  0.00000000000E+00 0.  1.
         12    1    4    4    0    0 -0.67490815975E+00 -0.80403502266E+01  0.11426713718E+03  0.11455165373E+03  0.00000000000E+00 0. -1.
         -5    1    5    5    0  502 -0.10654739514E+03  0.97511140407E+02  0.45889480996E+03  0.48111049305E+03  0.47000000000E+01 0.  1.
         11    1    6    6    0    0 -0.25893984224E+02  0.29217956916E+02  0.86448209537E+02  0.94855049193E+02  0.00000000000E+00 0. -1.
        -12    1    6    6    0    0 -0.11537360739E+02 -0.50427250385E+02  0.17642339519E+03  0.18385111543E+03  0.00000000000E+00 0.  1.
</event>
<event>
12    1  0.1593360E-001  0.1894522E+03  0.7818608E-02  0.1159120E+00
         21   -1    0    0  503  502  0.00000000000E+00  0.00000000000E+00  0.19014856160E+04  0.19014856160E+04  0.00000000000E+00 0. -1.
         21   -1    0    0  501  503 -0.00000000000E+00 -0.00000000000E+00 -0.29148817933E+02  0.29148817933E+02  0.00000000000E+00 0.  1.
          6    2    1    2  501    0 -0.78413869858E+02 -0.13428587010E+02  0.36224969543E+03  0.40879943870E+03  0.17193916747E+03 0.  0.
         24    2    3    3    0    0 -0.59301096252E+02  0.47125347772E+02  0.14397038279E+03  0.18142304270E+03  0.80308348769E+02 0.  0.
         -6    2    1    2    0  502  0.78413869858E+02  0.13428587010E+02  0.15100871026E+04  0.15218349952E+04  0.17114214332E+03 0.  0.
        -24    2    5    5    0    0  0.52897323563E+01  0.48258677413E+02  0.10614526996E+04  0.10659236088E+04  0.84583834776E+02 0.  0.
          5    1    3    3  501    0 -0.19112773606E+02 -0.60553934782E+02  0.21827931264E+03  0.22737639600E+03  0.47000000000E+01 0. -1.
        -11    1    4    4    0    0 -0.48966903484E+02 -0.70712016537E+01  0.39616680232E+02  0.63381707789E+02  0.00000000000E+00 0.  1.
         12    1    4    4    0    0 -0.10334192768E+02  0.54196549426E+02  0.10435370255E+03  0.11804133491E+03  0.00000000000E+00 0. -1.
         -5    1    5    5    0  502  0.73124137502E+02 -0.34830090403E+02  0.44863440298E+03  0.45591138637E+03  0.47000000000E+01 0.  1.
         11    1    6    6    0    0 -0.14339504494E+02 -0.19805078514E+02  0.38392124982E+03  0.38469908837E+03  0.00000000000E+00 0. -1.
        -12    1    6    6    0    0  0.19629236850E+02  0.68063755927E+02  0.67753144979E+03  0.68122452045E+03  0.00000000000E+00 0.  1.
</event>
<event>
12    1  0.1593360E-001  0.1891792E+03  0.7818608E-02  0.1159316E+00
         21   -1    0    0  503  502  0.00000000000E+00  0.00000000000E+00  0.68600270251E+03  0.68600270251E+03  0.00000000000E+00 0. -1.
         21   -1    0    0  501  503 -0.00000000000E+00 -0.00000000000E+00 -0.91236788202E+02  0.91236788202E+02  0.00000000000E+00 0. -1.
          6    2    1    2  501    0 -0.73973956236E+02 -0.24516635157E+02  0.42422596091E+02  0.19339712268E+03  0.17184166783E+03 0.  0.
         24    2    3    3    0    0 -0.85371911954E+02 -0.63145977093E+02  0.64253027798E+02  0.14734500871E+03  0.79412355692E+02 0.  0.
         -6    2    1    2    0  502  0.73973956236E+02  0.24516635157E+02  0.55234331822E+03  0.58384236803E+03  0.17238201161E+03 0.  0.
        -24    2    5    5    0    0  0.72494695818E+02 -0.21313723604E+02  0.50866885379E+03  0.52034308584E+03  0.79392496068E+02 0.  0.
          5    1    3    3  501    0  0.11397955718E+02  0.38629341936E+02 -0.21830431707E+02  0.46052113974E+02  0.47000000000E+01 0. -1.
        -13    1    4    4    0    0 -0.54993552714E+02 -0.13420210902E+02  0.68566923383E+02  0.88914655052E+02  0.00000000000E+00 0.  1.
         14    1    4    4    0    0 -0.30378359241E+02 -0.49725766191E+02 -0.43138955851E+01  0.58430353658E+02  0.00000000000E+00 0. -1.
         -5    1    5    5    0  502  0.14792604184E+01  0.45830358761E+02  0.43674464434E+02  0.63499282194E+02  0.47000000000E+01 0.  1.
         11    1    6    6    0    0 -0.57524290109E+01 -0.15844852697E+01  0.23373822050E+03  0.23381436387E+03  0.00000000000E+00 0. -1.
        -12    1    6    6    0    0  0.78247124829E+02 -0.19729238334E+02  0.27493063329E+03  0.28652872197E+03  0.00000000000E+00 0.  1.
</event>
<event>
12    1  0.1593360E-001  0.1946825E+03  0.7818608E-02  0.1154422E+00
         21   -1    0    0  503  502  0.00000000000E+00  0.00000000000E+00  0.64696141465E+02  0.64696141465E+02  0.00000000000E+00 0. -1.
         21   -1    0    0  501  503 -0.00000000000E+00 -0.00000000000E+00 -0.10984790818E+04  0.10984790818E+04  0.00000000000E+00 0. -1.
          6    2    1    2  501    0 -0.88376586827E+02  0.11700500046E+02 -0.91444525391E+03  0.93482734975E+03  0.17246660153E+03 0.  0.
         24    2    3    3    0    0  0.10797126289E+01  0.44079173087E+02 -0.31263630565E+03  0.32552700658E+03  0.79260539513E+02 0.  0.
         -6    2    1    2    0  502  0.88376586827E+02 -0.11700500046E+02 -0.11933768639E+03  0.22834787347E+03  0.17307208073E+03 0.  0.
        -24    2    5    5    0    0  0.12770805446E+03  0.42898077426E+01 -0.83459727648E+02  0.17256281981E+03  0.80527330857E+02 0.  0.
          5    1    3    3  501    0 -0.89456299456E+02 -0.32378673041E+02 -0.60180894826E+03  0.60930034317E+03  0.47000000000E+01 0. -1.
        -13    1    4    4    0    0  0.48787433422E+00 -0.16717551318E+02 -0.17552549623E+02  0.24244721934E+02  0.00000000000E+00 0.  1.
         14    1    4    4    0    0  0.59183829473E+00  0.60796724405E+02 -0.29508375602E+03  0.30128228464E+03  0.00000000000E+00 0. -1.
         -5    1    5    5    0  502 -0.39331467636E+02 -0.15990307788E+02 -0.35877958738E+02  0.55785053668E+02  0.47000000000E+01 0.  1.
         11    1    6    6    0    0  0.48170350142E+02  0.32666861248E+02 -0.69604212221E+01  0.58617010501E+02  0.00000000000E+00 0. -1.
        -12    1    6    6    0    0  0.79537704322E+02 -0.28377053505E+02 -0.76499306425E+02  0.11394580930E+03  0.00000000000E+00 0.  1.
</event>
<event>
12    1  0.1593360E-001  0.2277585E+03  0.7818608E-02  0.1128942E+00
         21   -1    0    0  503  502  0.00000000000E+00  0.00000000000E+00  0.14208174234E+04  0.14208174234E+04  0.00000000000E+00 0. -1.
         21   -1    0    0  501  503 -0.00000000000E+00 -0.00000000000E+00 -0.82647978493E+02  0.82647978493E+02  0.00000000000E+00 0. -1.
          6    2    1    2  501    0  0.15214364652E+03 -0.20097003186E+02  0.10102550349E+03  0.24553095528E+03  0.16287332174E+03 0.  0.
         24    2    3    3    0    0  0.11970095629E+03 -0.73325957298E+02  0.68971365006E+02  0.17527849982E+03  0.79123247890E+02 0.  0.
         -6    2    1    2    0  502 -0.15214364652E+03  0.20097003186E+02  0.12371439415E+04  0.12579344466E+04  0.16829248782E+03 0.  0.
        -24    2    5    5    0    0 -0.13230516320E+03 -0.38256194379E+02  0.10059003757E+04  0.10185720900E+04  0.81763953091E+02 0.  0.
          5    1    3    3  501    0  0.32442690231E+02  0.53228954112E+02  0.32054138481E+02  0.70252455466E+02  0.47000000000E+01 0. -1.
        -11    1    4    4    0    0  0.12182532504E+03 -0.72125667687E+02  0.80929526720E+02  0.16307394045E+03  0.00000000000E+00 0.  1.
         12    1    4    4    0    0 -0.21243687447E+01 -0.12002896112E+01 -0.11958161714E+02  0.12204559365E+02  0.00000000000E+00 0. -1.
         -5    1    5    5    0  502 -0.19838483322E+02  0.58353197565E+02  0.23124356576E+03  0.23936235667E+03  0.47000000000E+01 0.  1.
         13    1    6    6    0    0 -0.14915836253E+02  0.89808232780E+01  0.35844320071E+03  0.35886580429E+03  0.00000000000E+00 0. -1.
        -14    1    6    6    0    0 -0.11738932695E+03 -0.47237017657E+02  0.64745717499E+03  0.65970628568E+03  0.00000000000E+00 0.  1.
</event>
<event>
12    1  0.1593360E-001  0.1829089E+03  0.7818608E-02  0.1165549E+00
         21   -1    0    0  501  502  0.00000000000E+00  0.00000000000E+00  0.47900170656E+03  0.47900170656E+03  0.00000000000E+00 0. -1.
         21   -1    0    0  502  503 -0.00000000000E+00 -0.00000000000E+00 -0.73337286020E+02  0.73337286020E+02  0.00000000000E+00 0. -1.
         -6    2    1    2    0  503  0.18624835608E+02  0.58011685418E+02  0.27119428067E+03  0.32711158367E+03  0.17246277906E+03 0.  0.
        -24    2    3    3    0    0  0.65762791077E+02  0.50486852773E+02  0.24918064204E+03  0.27433563994E+03  0.79343455789E+02 0.  0.
          6    2    1    2  501    0 -0.18624835608E+02 -0.58011685418E+02  0.13447013987E+03  0.22522740891E+03  0.17009681672E+03 0.  0.
         24    2    5    5    0    0  0.52349646781E+01 -0.63817063623E+02  0.15920808769E+03  0.19005570795E+03  0.81694152017E+02 0.  0.
          5    1    5    5  501    0 -0.23859800286E+02  0.58053782052E+01 -0.24737947818E+02  0.35171700955E+02  0.47000000000E+01 0. -1.
        -11    1    6    6    0    0  0.19920820822E+02 -0.60554199907E+02  0.53326062897E+02  0.83110283435E+02  0.00000000000E+00 0.  1.
         12    1    6    6    0    0 -0.14685856144E+02 -0.32628637164E+01  0.10588202479E+03  0.10694542452E+03  0.00000000000E+00 0. -1.
         -5    1    3    3    0  503 -0.47137955469E+02  0.75248326447E+01  0.22013638624E+02  0.52775943739E+02  0.47000000000E+01 0.  1.
         13    1    4    4    0    0  0.87772128466E+01  0.30930749759E-01  0.14525068171E+03  0.14551563820E+03  0.00000000000E+00 0. -1.
        -14    1    4    4    0    0  0.56985578230E+02  0.50455922023E+02  0.10392996033E+03  0.12882000174E+03  0.00000000000E+00 0.  1.
</event>
<event>
12    1  0.1593360E-001  0.1757591E+03  0.7818608E-02  0.1174181E+00
         21   -1    0    0  503  502  0.00000000000E+00  0.00000000000E+00  0.77422969790E+03  0.77422969790E+03  0.00000000000E+00 0. -1.
         21   -1    0    0  501  503 -0.00000000000E+00 -0.00000000000E+00 -0.41355228754E+02  0.41355228754E+02  0.00000000000E+00 0. -1.
          6    2    1    2  501    0 -0.36820908997E+02  0.91945806246E+01  0.24129937411E+03  0.29353384832E+03  0.16277718670E+03 0.  0.
         24    2    3    3    0    0 -0.30977016340E+02  0.67542871276E+02  0.12907655681E+03  0.16682660770E+03  0.75158130068E+02 0.  0.
         -6    2    1    2    0  502  0.36820908997E+02 -0.91945806246E+01  0.49157509504E+03  0.52205107834E+03  0.17161274627E+03 0.  0.
        -24    2    5    5    0    0  0.48327240606E+02  0.34495759390E+02  0.16987162656E+03  0.19715655221E+03  0.80553441695E+02 0.  0.
          5    1    3    3  501    0 -0.58438926569E+01 -0.58348290651E+02  0.11222281730E+03  0.12670724062E+03  0.47000000000E+01 0. -1.
        -13    1    4    4    0    0  0.22148192899E+02  0.22714039997E+02  0.64810112759E+02  0.72158303593E+02  0.00000000000E+00 0.  1.
         14    1    4    4    0    0 -0.53125209238E+02  0.44828831279E+02  0.64266444055E+02  0.94668304104E+02  0.00000000000E+00 0. -1.
         -5    1    5    5    0  502 -0.11506331610E+02 -0.43690340014E+02  0.32170346848E+03  0.32489452613E+03  0.47000000000E+01 0.  1.
         13    1    6    6    0    0  0.30530781653E+02 -0.10143455610E+02  0.15951872922E+02  0.35909338198E+02  0.00000000000E+00 0. -1.
        -14    1    6    6    0    0  0.17796458953E+02  0.44639215000E+02  0.15391975363E+03  0.16124721401E+03  0.00000000000E+00 0.  1.
</event>
<event>
12    1  0.1593360E-001  0.1789939E+03  0.7818608E-02  0.1170703E+00
         21   -1    0    0  503  502  0.00000000000E+00  0.00000000000E+00  0.38214022076E+03  0.38214022076E+03  0.00000000000E+00 0.  1.
         21   -1    0    0  501  503 -0.00000000000E+00 -0.00000000000E+00 -0.87975343444E+02  0.87975343444E+02  0.00000000000E+00 0.  1.
          6    2    1    2  501    0  0.58171777718E+01  0.34653959082E+02  0.74581366263E+02  0.18682115332E+03  0.16764553885E+03 0.  0.
         24    2    3    3    0    0 -0.56727650199E+02  0.12457592348E+02  0.61490737496E+02  0.11901268214E+03  0.83723890301E+02 0.  0.
         -6    2    1    2    0  502 -0.58171777718E+01 -0.34653959082E+02  0.21958351106E+03  0.28329441089E+03  0.17551087852E+03 0.  0.
        -24    2    5    5    0    0  0.59540134608E+02 -0.14970284285E+02  0.89648165547E+02  0.13644649859E+03  0.82533122749E+02 0.  0.
          5    1    3    3  501    0  0.62544827971E+02  0.22196366734E+02  0.13090628767E+02  0.67808471179E+02  0.47000000000E+01 0. -1.
        -13    1    4    4    0    0 -0.13418817788E+02  0.43080488660E+01 -0.21115344747E+02  0.25386644907E+02  0.00000000000E+00 0.  1.
         14    1    4    4    0    0 -0.43308832411E+02  0.81495434824E+01  0.82606082242E+02  0.93626037229E+02  0.00000000000E+00 0. -1.
         -5    1    5    5    0  502 -0.65357312379E+02 -0.19683674798E+02  0.12993534551E+03  0.14684791230E+03  0.47000000000E+01 0.  1.
         13    1    6    6    0    0  0.43872004448E+02 -0.26844444806E+02  0.10128887369E+03  0.11359935266E+03  0.00000000000E+00 0. -1.
        -14    1    6    6    0    0  0.15668130160E+02  0.11874160522E+02 -0.11640708147E+02  0.22847145926E+02  0.00000000000E+00 0.  1.
</event>
<event>
12    1  0.1593360E-001  0.1844803E+03  0.7818608E-02  0.1163623E+00
         21   -1    0    0  503  502  0.00000000000E+00  0.00000000000E+00  0.14834995970E+03  0.14834995970E+03  0.00000000000E+00 0. -1.
         21   -1    0    0  501  503 -0.00000000000E+00 -0.00000000000E+00 -0.23581374724E+03  0.23581374724E+03  0.00000000000E+00 0. -1.
          6    2    1    2  501    0 -0.64440543174E+02  0.19700814987E+02 -0.76545638790E+02  0.19973038371E+03  0.17173318154E+03 0.  0.
         24    2    3    3    0    0 -0.80997087596E+02  0.65762256042E+02 -0.41583129662E+02  0.13939596103E+03  0.82564367377E+02 0.  0.
         -6    2    1    2    0  502  0.64440543174E+02 -0.19700814987E+02 -0.10918148749E+02  0.18443332324E+03  0.17133516578E+03 0.  0.
        -24    2    5    5    0    0  0.81596412459E+02 -0.39041844430E+02 -0.54900641440E+02  0.13319906776E+03  0.80905321705E+02 0.  0.
          5    1    3    3  501    0  0.16556544422E+02 -0.46061441055E+02 -0.34962509129E+02  0.60334422677E+02  0.47000000000E+01 0. -1.
        -13    1    4    4    0    0 -0.73096004730E+02  0.27317981251E+02 -0.57616221685E+02  0.96999623754E+02  0.00000000000E+00 0.  1.
         14    1    4    4    0    0 -0.79010828661E+01  0.38444274790E+02  0.16033092023E+02  0.42396337276E+02  0.00000000000E+00 0. -1.
         -5    1    5    5    0  502 -0.17155869285E+02  0.19341029443E+02  0.43982492691E+02  0.51234255476E+02  0.47000000000E+01 0.  1.
         13    1    6    6    0    0 -0.85066718182E+01  0.12176605875E+02 -0.17641874825E+02  0.23062284002E+02  0.00000000000E+00 0. -1.
        -14    1    6    6    0    0  0.90103084277E+02 -0.51218450305E+02 -0.37258766615E+02  0.11013678376E+03  0.00000000000E+00 0.  1.
</event>
<event>
12    1  0.1593360E-001  0.2299383E+03  0.7818608E-02  0.1126725E+00
         21   -1    0    0  501  502  0.00000000000E+00  0.00000000000E+00  0.24181738052E+03  0.24181738052E+03  0.00000000000E+00 0. -1.
         21   -1    0    0  502  503 -0.00000000000E+00 -0.00000000000E+00 -0.90839371373E+03  0.90839371373E+03  0.00000000000E+00 0.  1.
         -6    2    1    2    0  503  0.96422961536E+02  0.11481403439E+03 -0.83454731874E+03  0.86564476813E+03  0.17433297847E+03 0.  0.
        -24    2    3    3    0    0  0.94411100730E+02  0.12749526786E+03 -0.49556143683E+03  0.52638324748E+03  0.79559325549E+02 0.  0.
          6    2    1    2  501    0 -0.96422961536E+02 -0.11481403439E+03  0.16797098554E+03  0.28456632612E+03  0.17402325124E+03 0.  0.
         24    2    5    5    0    0 -0.47961111929E+00 -0.69626267108E+02  0.30356395469E+02  0.11076492739E+03  0.80618306200E+02 0.  0.
          5    1    5    5  501    0 -0.95943350417E+02 -0.45187767279E+02  0.13761459007E+03  0.17380139873E+03  0.47000000000E+01 0. -1.
        -11    1    6    6    0    0 -0.19470038587E+02  0.10272159700E+02 -0.28180540131E+01  0.22193266905E+02  0.00000000000E+00 0.  1.
         12    1    6    6    0    0  0.18990427468E+02 -0.79898426808E+02  0.33174449482E+02  0.88571660480E+02  0.00000000000E+00 0. -1.
         -5    1    3    3    0  503  0.20118608064E+01 -0.12681233475E+02 -0.33898588190E+03  0.33926152066E+03  0.47000000000E+01 0.  1.
         11    1    4    4    0    0  0.73783410821E+02  0.48078790526E+02 -0.18086472429E+03  0.20116562903E+03  0.00000000000E+00 0. -1.
        -12    1    4    4    0    0  0.20627689909E+02  0.79416477336E+02 -0.31469671255E+03  0.32521761845E+03  0.00000000000E+00 0.  1.
</event>
<event>
12    1  0.1593360E-001  0.2457241E+03  0.7818608E-02  0.1116187E+00
         21   -1    0    0  501  502  0.00000000000E+00  0.00000000000E+00  0.91594119686E+03  0.91594119686E+03  0.00000000000E+00 0.  1.
         21   -1    0    0  502  503 -0.00000000000E+00 -0.00000000000E+00 -0.72381448818E+02  0.72381448818E+02  0.00000000000E+00 0. -1.
         -6    2    1    2    0  503  0.16156430626E+03 -0.65531487948E+02  0.27062289027E+03  0.36491509768E+03  0.17183968926E+03 0.  0.
        -24    2    3    3    0    0  0.55824766784E+02 -0.69676692389E+02  0.21460242217E+03  0.24508849056E+03  0.77736237052E+02 0.  0.
          6    2    1    2  501    0 -0.16156430626E+03  0.65531487948E+02  0.57293685778E+03  0.62340754800E+03  0.17315578806E+03 0.  0.
         24    2    5    5    0    0 -0.69403851958E+02 -0.22491292445E+02  0.17620407223E+03  0.20668155609E+03  0.79665787242E+02 0.  0.
          5    1    5    5  501    0 -0.92160454304E+02  0.88022780394E+02  0.39673278555E+03  0.41672599191E+03  0.47000000000E+01 0. -1.
        -11    1    6    6    0    0 -0.24383515229E+02 -0.12450205324E+01  0.14689993796E+03  0.14891506862E+03  0.00000000000E+00 0.  1.
         12    1    6    6    0    0 -0.45020336729E+02 -0.21246271913E+02  0.29304134272E+02  0.57766487471E+02  0.00000000000E+00 0. -1.
         -5    1    3    3    0  503  0.10573953948E+03  0.41452044410E+01  0.56020468096E+02  0.11982660712E+03  0.47000000000E+01 0.  1.
         11    1    4    4    0    0  0.54931470523E+02 -0.25067776173E+02  0.63879545125E+02  0.87900262466E+02  0.00000000000E+00 0. -1.
        -12    1    4    4    0    0  0.89329626096E+00 -0.44608916216E+02  0.15072287705E+03  0.15718822809E+03  0.00000000000E+00 0.  1.
</event>
<event>
12    1  0.1593360E-001  0.1954554E+03  0.7818608E-02  0.1153731E+00
         21   -1    0    0  501  502  0.00000000000E+00  0.00000000000E+00  0.13468995548E+03  0.13468995548E+03  0.00000000000E+00 0. -1.
         21   -1    0    0  502  503 -0.00000000000E+00 -0.00000000000E+00 -0.29110445832E+03  0.29110445832E+03  0.00000000000E+00 0. -1.
         -6    2    1    2    0  503  0.93521984092E+02 -0.41326619672E+01 -0.11371214964E+03  0.22572862809E+03  0.17105414395E+03 0.  0.
        -24    2    3    3    0    0 -0.73355688405E+01 -0.27119587314E+02 -0.19517331227E+02  0.85745062856E+02  0.78625740058E+02 0.  0.
          6    2    1    2  501    0 -0.93521984092E+02  0.41326619672E+01 -0.42702353197E+02  0.20006578570E+03  0.17157909906E+03 0.  0.
         24    2    5    5    0    0 -0.20235869683E+02  0.58447788456E+02 -0.40464790020E+02  0.10869793457E+03  0.79700736206E+02 0.  0.
          5    1    5    5  501    0 -0.73286114408E+02 -0.54315126489E+02 -0.22375631773E+01  0.91367851127E+02  0.47000000000E+01 0. -1.
        -13    1    6    6    0    0  0.29095591698E+02  0.99184286116E+01 -0.19453215759E+02  0.36377964288E+02  0.00000000000E+00 0.  1.
         14    1    6    6    0    0 -0.49331461382E+02  0.48529359844E+02 -0.21011574261E+02  0.72319970284E+02  0.00000000000E+00 0. -1.
         -5    1    3    3    0  503  0.10085755293E+03  0.22986925347E+02 -0.94194818415E+02  0.13998356524E+03  0.47000000000E+01 0.  1.
         11    1    4    4    0    0 -0.26927218154E+02 -0.19684419661E+02 -0.42903545343E+02  0.54343956959E+02  0.00000000000E+00 0. -1.
        -12    1    4    4    0    0  0.19591649314E+02 -0.74351676537E+01  0.23386214117E+02  0.31401105897E+02  0.00000000000E+00 0.  1.
</event>
<event>
12    1  0.1593360E-001  0.1799450E+03  0.7818608E-02  0.1168495E+00
         21   -1    0    0  501  502  0.00000000000E+00  0.00000000000E+00  0.22245896979E+03  0.22245896979E+03  0.00000000000E+00 0. -1.
         21   -1    0    0  502  503 -0.00000000000E+00 -0.00000000000E+00 -0.29184129906E+03  0.29184129906E+03  0.00000000000E+00 0. -1.
         -6    2    1    2    0  503 -0.26189176130E+02  0.34796633220E+02 -0.21793150442E+03  0.28096133664E+03  0.17189663592E+03 0.  0.
        -24    2    3    3    0    0 -0.33281240255E+02  0.32067207198E+01 -0.23019797855E+03  0.24602172684E+03  0.80110278611E+02 0.  0.
          6    2    1    2  501    0  0.26189176130E+02 -0.34796633220E+02  0.14854917514E+03  0.23333893221E+03  0.17459530698E+03 0.  0.
         24    2    5    5    0    0  0.84716551442E+02 -0.36469727272E+02  0.10281114135E+03  0.15889223558E+03  0.78547289231E+02 0.  0.
          5    1    5    5  501    0 -0.58527375312E+02  0.16730940527E+01  0.45738033788E+02  0.74446696632E+02  0.47000000000E+01 0. -1.
        -13    1    6    6    0    0  0.33335642336E+02  0.12206563480E+01 -0.49271919718E+01  0.33719909143E+02  0.00000000000E+00 0.  1.
         14    1    6    6    0    0  0.51380909106E+02 -0.37690383620E+02  0.10773833332E+03  0.12517232644E+03  0.00000000000E+00 0. -1.
         -5    1    3    3    0  503  0.70920641249E+01  0.31589912500E+02  0.12266474132E+02  0.34939609799E+02  0.47000000000E+01 0.  1.
         11    1    4    4    0    0 -0.41486619333E+02  0.28582674500E+02 -0.88492691524E+02  0.10182860756E+03  0.00000000000E+00 0. -1.
        -12    1    4    4    0    0  0.82053790783E+01 -0.25375953780E+02 -0.14170528702E+03  0.14419311928E+03  0.00000000000E+00 0.  1.
</event>
<event>
12    1  0.1593360E-001  0.2417705E+03  0.7818608E-02  0.1118858E+00
         21   -1    0    0  503  502  0.00000000000E+00  0.00000000000E+00  0.38892233684E+03  0.38892233684E+03  0.00000000000E+00 0. -1.
         21   -1    0    0  501  503 -0.00000000000E+00 -0.00000000000E+00 -0.28983542309E+03  0.28983542309E+03  0.00000000000E+00 0. -1.
          6    2    1    2  501    0 -0.16488438687E+03  0.39438412349E+02 -0.18676994682E+03  0.30436879336E+03  0.17033819282E+03 0.  0.
         24    2    3    3    0    0 -0.14626684519E+02 -0.86463138185E+01 -0.61919089820E+02  0.10312430399E+03  0.80696652636E+02 0.  0.
         -6    2    1    2    0  502  0.16488438687E+03 -0.39438412349E+02  0.28585686057E+03  0.37438896657E+03  0.17236793248E+03 0.  0.
        -24    2    5    5    0    0  0.14096440456E+03  0.31574378916E+02  0.17169925660E+03  0.23775430544E+03  0.78603882095E+02 0.  0.
          5    1    3    3  501    0 -0.15025770235E+03  0.48084726167E+02 -0.12485085700E+03  0.20124448937E+03  0.47000000000E+01 0. -1.
        -13    1    4    4    0    0  0.15642995880E+02  0.10093828873E+02 -0.64786018767E+02  0.67407840264E+02  0.00000000000E+00 0.  1.
         14    1    4    4    0    0 -0.30269680399E+02 -0.18740142691E+02  0.28669289469E+01  0.35716463726E+02  0.00000000000E+00 0. -1.
         -5    1    5    5    0  502  0.23919982307E+02 -0.71012791264E+02  0.11415760398E+03  0.13663466113E+03  0.47000000000E+01 0.  1.
         11    1    6    6    0    0  0.78150138302E+02 -0.11877194952E+01  0.13956969678E+03  0.15996423054E+03  0.00000000000E+00 0. -1.
        -12    1    6    6    0    0  0.62814266261E+02  0.32762098411E+02  0.32129559821E+02  0.77790074897E+02  0.00000000000E+00 0.  1.
</event>
<event>
12    1  0.1593360E-001  0.1725752E+03  0.7818608E-02  0.1175289E+00
         21   -1    0    0  501  502  0.00000000000E+00  0.00000000000E+00  0.19847582530E+03  0.19847582530E+03  0.00000000000E+00 0.  1.
         21   -1    0    0  502  503 -0.00000000000E+00 -0.00000000000E+00 -0.20491732964E+03  0.20491732964E+03  0.00000000000E+00 0.  1.
         -6    2    1    2    0  503 -0.11627305816E+01 -0.71230435430E+01 -0.10790636240E+03  0.20319997061E+03  0.17203010003E+03 0.  0.
        -24    2    3    3    0    0 -0.62436667425E+02 -0.21588410804E+02 -0.90882220613E+02  0.13781148852E+03  0.79799946272E+02 0.  0.
          6    2    1    2  501    0  0.11627305816E+01  0.71230435430E+01  0.10146485807E+03  0.20019318433E+03  0.17242419766E+03 0.  0.
         24    2    5    5    0    0 -0.63167010444E+02 -0.26109173690E+02  0.63089883644E+02  0.11811136841E+03  0.72788747549E+02 0.  0.
          5    1    5    5  501    0  0.64329741026E+02  0.33232217233E+02  0.38374974422E+02  0.82081815919E+02  0.47000000000E+01 0. -1.
        -11    1    6    6    0    0  0.12499644628E+02 -0.15352158912E+02  0.27290421779E+02  0.33714937638E+02  0.00000000000E+00 0.  1.
         12    1    6    6    0    0 -0.75666655073E+02 -0.10757014778E+02  0.35799461866E+02  0.84396430770E+02  0.00000000000E+00 0. -1.
         -5    1    3    3    0  503  0.61273936843E+02  0.14465367261E+02 -0.17024141788E+02  0.65388482089E+02  0.47000000000E+01 0.  1.
         11    1    4    4    0    0 -0.99880046666E+01 -0.63160857745E+01  0.14744038575E+02  0.18895498147E+02  0.00000000000E+00 0. -1.
        -12    1    4    4    0    0 -0.52448662758E+02 -0.15272325030E+02 -0.10562625919E+03  0.11891599038E+03  0.00000000000E+00 0.  1.
</event>
<event>
12    1  0.1593360E-001  0.1769641E+03  0.7818608E-02  0.1171035E+00
         21   -1    0    0  501  502  0.00000000000E+00  0.00000000000E+00  0.10433282078E+04  0.10433282078E+04  0.00000000000E+00 0. -1.
         21   -1    0    0  502  503 -0.00000000000E+00 -0.00000000000E+00 -0.44135235694E+02  0.44135235694E+02  0.00000000000E+00 0. -1.
         -6    2    1    2    0  503  0.12911313996E+02  0.34941554114E+02  0.19113072106E+03  0.26047503364E+03  0.17299906468E+03 0.  0.
        -24    2    3    3    0    0  0.37649589114E+02  0.29714222951E+02  0.20927326073E+03  0.22900204534E+03  0.79663118855E+02 0.  0.
          6    2    1    2  501    0 -0.12911313996E+02 -0.34941554114E+02  0.80806225103E+03  0.82698840985E+03  0.17192328011E+03 0.  0.
         24    2    5    5    0    0  0.46843750655E+02 -0.80632429176E+01  0.63661625691E+03  0.64338849083E+03  0.80057096508E+02 0.  0.
          5    1    5    5  501    0 -0.59755064651E+02 -0.26878311197E+02  0.17144599412E+03  0.18359991902E+03  0.47000000000E+01 0. -1.
        -11    1    6    6    0    0  0.32440670640E+02 -0.32718967183E+02  0.55522878353E+03  0.55713726314E+03  0.00000000000E+00 0.  1.
         12    1    6    6    0    0  0.14403080015E+02  0.24655724265E+02  0.81387473385E+02  0.86251227684E+02  0.00000000000E+00 0. -1.
         -5    1    3    3    0  503 -0.24738275118E+02  0.52273311629E+01 -0.18142539667E+02  0.31472988299E+02  0.47000000000E+01 0.  1.
         11    1    4    4    0    0  0.54121382588E+02 -0.43327775102E+01  0.10761493348E+03  0.12053576616E+03  0.00000000000E+00 0. -1.
        -12    1    4    4    0    0 -0.16471793474E+02  0.34047000461E+02  0.10165832725E+03  0.10846627918E+03  0.00000000000E+00 0.  1.
</event>
<event>
12    1  0.1593360E-001  0.1814338E+03  0.7818608E-02  0.1166567E+00
         21   -1    0    0  503  502  0.00000000000E+00  0.00000000000E+00  0.11884439001E+04  0.11884439001E+04  0.00000000000E+00 0. -1.
         21   -1    0    0  501  503 -0.00000000000E+00 -0.00000000000E+00 -0.46035423571E+02  0.46035423571E+02  0.00000000000E+00 0. -1.
          6    2    1    2  501    0  0.57182389464E+02 -0.67846918981E+01  0.18124395180E+03  0.25645193895E+03  0.17205339060E+03 0.  0.
         24    2    3    3    0    0 -0.29817626016E+01 -0.39085198930E+02  0.16285885090E+03  0.18557775547E+03  0.79872112317E+02 0.  0.
         -6    2    1    2    0  502 -0.57182389464E+02  0.67846918981E+01  0.96116452474E+03  0.97802738473E+03  0.17141897201E+03 0.  0.
        -24    2    5    5    0    0 -0.15019549128E+02 -0.37111722246E+02  0.24164036059E+03  0.25591817341E+03  0.74169945619E+02 0.  0.
          5    1    3    3  501    0  0.60164152066E+02  0.32300507032E+02  0.18385100903E+02  0.70874183477E+02  0.47000000000E+01 0. -1.
        -11    1    4    4    0    0  0.23555966092E+01 -0.59561393014E+02  0.14846937926E+03  0.15998832754E+03  0.00000000000E+00 0.  1.
         12    1    4    4    0    0 -0.53373592108E+01  0.20476194084E+02  0.14389471640E+02  0.25589427926E+02  0.00000000000E+00 0. -1.
         -5    1    5    5    0  502 -0.42162840335E+02  0.43896414144E+02  0.71952416415E+03  0.72210921132E+03  0.47000000000E+01 0.  1.
         11    1    6    6    0    0  0.91371539158E+01 -0.44802862408E+02  0.21218260170E+03  0.21705354299E+03  0.00000000000E+00 0. -1.
        -12    1    6    6    0    0 -0.24156703044E+02  0.76911401620E+01  0.29457758894E+02  0.38864630424E+02  0.00000000000E+00 0.  1.
</event>
<event>
12    1  0.1593360E-001  0.2837648E+03  0.7818608E-02  0.1094169E+00
         21   -1    0    0  503  502  0.00000000000E+00  0.00000000000E+00  0.35147137326E+03  0.35147137326E+03  0.00000000000E+00 0.  1.
         21   -1    0    0  501  503 -0.00000000000E+00 -0.00000000000E+00 -0.32474902695E+03  0.32474902695E+03  0.00000000000E+00 0. -1.
          6    2    1    2  501    0 -0.17288605656E+03 -0.13714507155E+03  0.19972466889E+03  0.34387678930E+03  0.17222933448E+03 0.  0.
         24    2    3    3    0    0 -0.80027337171E+02 -0.13624099110E+03  0.17316013029E+03  0.24717454611E+03  0.78389050060E+02 0.  0.
         -6    2    1    2    0  502  0.17288605656E+03  0.13714507155E+03 -0.17300232258E+03  0.33234361091E+03  0.17839314137E+03 0.  0.
        -24    2    5    5    0    0  0.99916907525E+02  0.36530723465E+01 -0.83339084873E+02  0.15569085333E+03  0.85425437649E+02 0.  0.
          5    1    3    3  501    0 -0.92858719391E+02 -0.90408044374E+00  0.26564538597E+02  0.96702243196E+02  0.47000000000E+01 0. -1.
        -13    1    4    4    0    0 -0.17464264805E+01 -0.21331794789E+02  0.72309324939E+02  0.75410436596E+02  0.00000000000E+00 0.  1.
         14    1    4    4    0    0 -0.78280910690E+02 -0.11490919632E+03  0.10085080535E+03  0.17176410951E+03  0.00000000000E+00 0. -1.
         -5    1    5    5    0  502  0.72969149036E+02  0.13349199920E+03 -0.89663237710E+02  0.17665275757E+03  0.47000000000E+01 0.  1.
         13    1    6    6    0    0  0.57569576499E+02 -0.99007734071E+01 -0.93344284702E+02  0.11011556175E+03  0.00000000000E+00 0. -1.
        -14    1    6    6    0    0  0.42347331026E+02  0.13553845754E+02  0.10005199828E+02  0.45575291588E+02  0.00000000000E+00 0.  1.
</event>
<event>
12    1  0.1593360E-001  0.2153729E+03  0.7818608E-02  0.1137559E+00
         21   -1    0    0  503  502  0.00000000000E+00  0.00000000000E+00  0.27905429752E+04  0.27905429752E+04  0.00000000000E+00 0.  1.
         21   -1    0    0  501  503 -0.00000000000E+00 -0.00000000000E+00 -0.36981784630E+02  0.36981784630E+02  0.00000000000E+00 0. -1.
          6    2    1    2  501    0 -0.84769054866E+01 -0.12870867600E+03  0.32729570413E+03  0.39180094536E+03  0.17247527834E+03 0.  0.
         24    2    3    3    0    0  0.35447625135E+02 -0.10565825057E+03  0.13198185009E+03  0.19023140876E+03  0.79677977418E+02 0.  0.
         -6    2    1    2    0  502  0.84769054866E+01  0.12870867600E+03  0.24262654865E+04  0.24357238145E+04  0.17131406391E+03 0.  0.
        -24    2    5    5    0    0  0.51477526060E+02  0.23701435877E+02  0.12694048455E+04  0.12733021155E+04  0.81840831057E+02 0.  0.
          5    1    3    3  501    0 -0.43924530622E+02 -0.23050425430E+02  0.19531385404E+03  0.20156953659E+03  0.47000000000E+01 0. -1.
        -11    1    4    4    0    0  0.16171035130E+01 -0.93762544521E+00  0.57079563313E+02  0.57110162959E+02  0.00000000000E+00 0.  1.
         12    1    4    4    0    0  0.33830521623E+02 -0.10472062513E+03  0.74902286777E+02  0.13312124580E+03  0.00000000000E+00 0. -1.
         -5    1    5    5    0  502 -0.43000620574E+02  0.10500724012E+03  0.11568606409E+04  0.11624216990E+04  0.47000000000E+01 0.  1.
         11    1    6    6    0    0  0.14766388639E+02  0.47822983116E+02  0.46199568435E+03  0.46469893082E+03  0.00000000000E+00 0. -1.
        -12    1    6    6    0    0  0.36711137421E+02 -0.24121547240E+02  0.80740916119E+03  0.80860318465E+03  0.00000000000E+00 0.  1.
</event>
<event>
12    1  0.1593360E-001  0.2526055E+03  0.7818608E-02  0.1111727E+00
         21   -1    0    0  501  502  0.00000000000E+00  0.00000000000E+00  0.59458436538E+03  0.59458436538E+03  0.00000000000E+00 0.  1.
         21   -1    0    0  502  503 -0.00000000000E+00 -0.00000000000E+00 -0.88745205595E+03  0.88745205595E+03  0.00000000000E+00 0. -1.
         -6    2    1    2    0  503  0.66032353384E+02  0.17257449851E+03 -0.84126102007E+03  0.87826097699E+03  0.17169743910E+03 0.  0.
        -24    2    3    3    0    0  0.11891321152E+02  0.13322891847E+03 -0.74408842744E+03  0.76017656313E+03  0.79432178879E+02 0.  0.
          6    2    1    2  501    0 -0.66032353384E+02 -0.17257449851E+03  0.54839332950E+03  0.60377544433E+03  0.17224202189E+03 0.  0.
         24    2    5    5    0    0 -0.13859346491E+02 -0.14589315084E+03  0.50158883136E+03  0.52863112979E+03  0.79891317985E+02 0.  0.
          5    1    5    5  501    0 -0.52173006893E+02 -0.26681347668E+02  0.46804498142E+02  0.75144314542E+02  0.47000000000E+01 0. -1.
        -13    1    6    6    0    0  0.15903945669E+02 -0.94337084106E+02  0.39624413551E+03  0.40762953260E+03  0.00000000000E+00 0.  1.
         14    1    6    6    0    0 -0.29763292160E+02 -0.51556066738E+02  0.10534469585E+03  0.12100159719E+03  0.00000000000E+00 0. -1.
         -5    1    3    3    0  503  0.54141032232E+02  0.39345580041E+02 -0.97172592625E+02  0.11808441386E+03  0.47000000000E+01 0.  1.
         11    1    4    4    0    0 -0.32916904741E+02  0.39344025245E+02 -0.26592697383E+03  0.27082952267E+03  0.00000000000E+00 0. -1.
        -12    1    4    4    0    0  0.44808225893E+02  0.93884893225E+02 -0.47816145362E+03  0.48934704046E+03  0.00000000000E+00 0.  1.
</event>
<event>
12    1  0.1593360E-001  0.2147806E+03  0.7818608E-02  0.1138100E+00
         21   -1    0    0  501  502  0.00000000000E+00  0.00000000000E+00  0.33998122321E+02  0.33998122321E+02  0.00000000000E+00 0.  1.
         21   -1    0    0  502  503 -0.00000000000E+00 -0.00000000000E+00 -0.15543666801E+04  0.15543666801E+04  0.00000000000E+00 0. -1.
         -6    2    1    2    0  503  0.12941305409E+03 -0.16423999721E+02 -0.10473091200E+04  0.10688304397E+04  0.16889236133E+03 0.  0.
        -24    2    3    3    0    0  0.46077972950E+02 -0.13888116044E+01 -0.23120615493E+03  0.24833246153E+03  0.78023182345E+02 0.  0.
          6    2    1    2  501    0 -0.12941305409E+03  0.16423999721E+02 -0.47305943781E+03  0.51953436272E+03  0.17062601212E+03 0.  0.
         24    2    5    5    0    0  0.14010393884E+01  0.52051457369E+01 -0.11133516200E+03  0.13469058734E+03  0.75610710669E+02 0.  0.
          5    1    5    5  501    0 -0.13081409348E+03  0.11218853984E+02 -0.36172427581E+03  0.38484377538E+03  0.47000000000E+01 0. -1.
        -11    1    6    6    0    0  0.19827548853E+02  0.33069381677E+02 -0.80370253019E+02  0.89140861946E+02  0.00000000000E+00 0.  1.
         12    1    6    6    0    0 -0.18426509465E+02 -0.27864235940E+02 -0.30964908978E+02  0.45549725396E+02  0.00000000000E+00 0. -1.
         -5    1    3    3    0  503  0.83335081143E+02 -0.15035188117E+02 -0.81610296503E+03  0.82049797816E+03  0.47000000000E+01 0.  1.
         13    1    4    4    0    0 -0.17045575774E+02  0.14725538605E+02 -0.90736573265E+02  0.93490742154E+02  0.00000000000E+00 0. -1.
        -14    1    4    4    0    0  0.63123548724E+02 -0.16114350210E+02 -0.14046958167E+03  0.15484171938E+03  0.00000000000E+00 0.  1.
</event>
<event>
12    1  0.1593360E-001  0.1875893E+03  0.7818608E-02  0.1160970E+00
         21   -1    0    0  501  502  0.00000000000E+00  0.00000000000E+00  0.22668303758E+02  0.22668303758E+02  0.00000000000E+00 0.  1.
         21   -1    0    0  502  503 -0.00000000000E+00 -0.00000000000E+00 -0.15478302573E+04  0.15478302573E+04  0.00000000000E+00 0. -1.
         -6    2    1    2    0  503  0.71880092244E+02  0.70238288023E+01 -0.81183714078E+03  0.83292007436E+03  0.17163981270E+03 0.  0.
        -24    2    3    3    0    0  0.63065613790E+02  0.64348452057E+01 -0.81535790527E+03  0.82231216624E+03  0.85849322624E+02 0.  0.
          6    2    1    2  501    0 -0.71880092244E+02 -0.70238288023E+01 -0.71332481276E+03  0.73757848668E+03  0.17312900882E+03 0.  0.
         24    2    5    5    0    0 -0.11339385553E+03  0.21215563722E+01 -0.52986335910E+03  0.54919795269E+03  0.89445762566E+02 0.  0.
          5    1    5    5  501    0  0.41513763291E+02 -0.91453851745E+01 -0.18346145365E+03  0.18838053400E+03  0.47000000000E+01 0. -1.
        -11    1    6    6    0    0 -0.53968028416E+02 -0.20912674227E+02 -0.10784910420E+03  0.12239819162E+03  0.00000000000E+00 0.  1.
         12    1    6    6    0    0 -0.59425827118E+02  0.23034230599E+02 -0.42201425490E+03  0.42679976107E+03  0.00000000000E+00 0. -1.
         -5    1    3    3    0  503  0.88144784541E+01  0.58898359655E+00  0.35207644910E+01  0.10607908121E+02  0.47000000000E+01 0.  1.
         13    1    4    4    0    0 -0.41257971788E+01  0.33548524371E+02 -0.22505977932E+03  0.22758389652E+03  0.00000000000E+00 0. -1.
        -14    1    4    4    0    0  0.67191410969E+02 -0.27113679166E+02 -0.59029812595E+03  0.59472826972E+03  0.00000000000E+00 0.  1.
</event>
<event>
12    1  0.1593360E-001  0.1788549E+03  0.7818608E-02  0.1168989E+00
         21   -1    0    0  501  502  0.00000000000E+00  0.00000000000E+00  0.60329109004E+03  0.60329109004E+03  0.00000000000E+00 0. -1.
         21   -1    0    0  502  503 -0.00000000000E+00 -0.00000000000E+00 -0.72108333420E+02  0.72108333420E+02  0.00000000000E+00 0. -1.
         -6    2    1    2    0  503  0.31894856463E+02  0.35720617223E+02  0.91622748884E+02  0.20095720783E+03  0.17232477159E+03 0.  0.
        -24    2    3    3    0    0 -0.21164902020E+02  0.47102609065E+02  0.30634964944E+00  0.94629118986E+02  0.79296705175E+02 0.  0.
          6    2    1    2  501    0 -0.31894856463E+02 -0.35720617223E+02  0.43956000774E+03  0.47444221563E+03  0.17201503192E+03 0.  0.
         24    2    5    5    0    0  0.25320855769E+02  0.20803602723E+01  0.35872598001E+03  0.36833480936E+03  0.79628697207E+02 0.  0.
          5    1    5    5  501    0 -0.57215712231E+02 -0.37800977496E+02  0.80834027728E+02  0.10610740627E+03  0.47000000000E+01 0. -1.
        -11    1    6    6    0    0  0.34365198256E+02 -0.17917350402E+02  0.81543777548E+02  0.90285026187E+02  0.00000000000E+00 0.  1.
         12    1    6    6    0    0 -0.90443424878E+01  0.19997710674E+02  0.27718220246E+03  0.27804978318E+03  0.00000000000E+00 0. -1.
         -5    1    3    3    0  503  0.53059758483E+02 -0.11381991842E+02  0.91316399234E+02  0.10632808885E+03  0.47000000000E+01 0.  1.
         13    1    4    4    0    0  0.80251611928E+01 -0.12060288311E+02 -0.20813864565E+02  0.25358839178E+02  0.00000000000E+00 0. -1.
        -14    1    4    4    0    0 -0.29190063213E+02  0.59162897376E+02  0.21120214214E+02  0.69270279808E+02  0.00000000000E+00 0.  1.
</event>
<event>
12    1  0.1593360E-001  0.2687890E+03  0.7818608E-02  0.1102017E+00
         21   -1    0    0  501  502  0.00000000000E+00  0.00000000000E+00  0.11546685670E+03  0.11546685670E+03  0.00000000000E+00 0.  1.
         21   -1    0    0  502  503 -0.00000000000E+00 -0.00000000000E+00 -0.10322877711E+04  0.10322877711E+04  0.00000000000E+00 0.  1.
         -6    2    1    2    0  503 -0.17660276120E+03 -0.10643923148E+03 -0.81902261315E+03  0.86200091187E+03  0.17242298557E+03 0.  0.
        -24    2    3    3    0    0 -0.11255740336E+03 -0.15353429674E+02 -0.29035938152E+03  0.32171826951E+03  0.79304335636E+02 0.  0.
          6    2    1    2  501    0  0.17660276120E+03  0.10643923148E+03 -0.97798301263E+02  0.28575371595E+03  0.17196753527E+03 0.  0.
         24    2    5    5    0    0  0.11089704104E+03 -0.64268650892E+01 -0.35554650577E+02  0.14100441727E+03  0.79237959373E+02 0.  0.
          5    1    5    5  501    0  0.65705720154E+02  0.11286609657E+03 -0.62243650686E+02  0.14474929867E+03  0.47000000000E+01 0. -1.
        -13    1    6    6    0    0  0.66951010084E+02  0.33858469395E+02 -0.83991237787E+01  0.75494231444E+02  0.00000000000E+00 0.  1.
         14    1    6    6    0    0  0.43946030960E+02 -0.40285334484E+02 -0.27155526798E+02  0.65510185829E+02  0.00000000000E+00 0. -1.
         -5    1    3    3    0  503 -0.64045357842E+02 -0.91085801807E+02 -0.52866323163E+03  0.54028264236E+03  0.47000000000E+01 0.  1.
         11    1    4    4    0    0 -0.66525646607E+02 -0.39220903699E+02 -0.22740035800E+03  0.24015591552E+03  0.00000000000E+00 0. -1.
        -12    1    4    4    0    0 -0.46031756749E+02  0.23867474026E+02 -0.62959023517E+02  0.81562353988E+02  0.00000000000E+00 0.  1.
</event>
<event>
12    1  0.1593360E-001  0.2046842E+03  0.7818608E-02  0.1146441E+00
         21   -1    0    0  503  502  0.00000000000E+00  0.00000000000E+00  0.59296998291E+03  0.59296998291E+03  0.00000000000E+00 0. -1.
         21   -1    0    0  501  503 -0.00000000000E+00 -0.00000000000E+00 -0.69838079371E+02  0.69838079371E+02  0.00000000000E+00 0. -1.
          6    2    1    2  501    0 -0.10609692531E+03  0.58456330960E+01  0.24302789279E+03  0.31588750114E+03  0.17155648549E+03 0.  0.
         24    2    3    3    0    0 -0.12263147827E+03  0.86848769210E+01  0.25515728758E+03  0.29465863011E+03  0.81268446178E+02 0.  0.
         -6    2    1    2    0  502  0.10609692531E+03 -0.58456330960E+01  0.28010401074E+03  0.34692056114E+03  0.17494253319E+03 0.  0.
        -24    2    5    5    0    0  0.12799443608E+03 -0.42197055200E+02  0.24734318423E+03  0.29310338340E+03  0.81041812894E+02 0.  0.
          5    1    3    3  501    0  0.16534552954E+02 -0.28392438250E+01 -0.12129394792E+02  0.21228871023E+02  0.47000000000E+01 0. -1.
        -11    1    4    4    0    0  0.48035421286E+01 -0.16346145410E+02  0.22689621061E+02  0.28374097178E+02  0.00000000000E+00 0.  1.
         12    1    4    4    0    0 -0.12743502040E+03  0.25031022332E+02  0.23246766652E+03  0.26628453294E+03  0.00000000000E+00 0. -1.
         -5    1    5    5    0  502 -0.21897510766E+02  0.36351422104E+02  0.32760826511E+02  0.53817177744E+02  0.47000000000E+01 0.  1.
         13    1    6    6    0    0  0.58074429291E+02 -0.14402222865E+01  0.40018164989E+02  0.70541952814E+02  0.00000000000E+00 0. -1.
        -14    1    6    6    0    0  0.69920006788E+02 -0.40756832913E+02  0.20732501924E+03  0.22256143058E+03  0.00000000000E+00 0.  1.
</event>
<event>
12    1  0.1593360E-001  0.1846546E+03  0.7818608E-02  0.1163475E+00
         21   -1    0    0  503  502  0.00000000000E+00  0.00000000000E+00  0.67851590835E+02  0.67851590835E+02  0.00000000000E+00 0.  1.
         21   -1    0    0  501  503 -0.00000000000E+00 -0.00000000000E+00 -0.55642645019E+03  0.55642645019E+03  0.00000000000E+00 0.  1.
          6    2    1    2  501    0 -0.51416425551E+01 -0.65330617545E+02 -0.34275805932E+03  0.38933328116E+03  0.17263484733E+03 0.  0.
         24    2    3    3    0    0 -0.54500229610E+02  0.98725783642E+01 -0.17973314286E+03  0.20307806868E+03  0.76609115017E+02 0.  0.
         -6    2    1    2    0  502  0.51416425551E+01  0.65330617545E+02 -0.14581680003E+03  0.23494475986E+03  0.17216844931E+03 0.  0.
        -24    2    5    5    0    0 -0.63132286563E+01  0.42913643280E+02 -0.34052435108E+01  0.90248953978E+02  0.79068580201E+02 0.  0.
          5    1    3    3  501    0  0.49358587055E+02 -0.75203195910E+02 -0.16302491646E+03  0.18625521248E+03  0.47000000000E+01 0. -1.
        -11    1    4    4    0    0 -0.36167086289E+02 -0.32302389892E+02 -0.95693318116E+02  0.10727867288E+03  0.00000000000E+00 0.  1.
         12    1    4    4    0    0 -0.18333143321E+02  0.42174968256E+02 -0.84039824749E+02  0.95799395798E+02  0.00000000000E+00 0. -1.
         -5    1    5    5    0  502  0.11454871211E+02  0.22416974265E+02 -0.14241155652E+03  0.14469580588E+03  0.47000000000E+01 0.  1.
         11    1    6    6    0    0  0.11887291353E+02 -0.41303615978E+01 -0.30497395018E+02  0.32991797247E+02  0.00000000000E+00 0. -1.
        -12    1    6    6    0    0 -0.18200520010E+02  0.47044004878E+02  0.27092151508E+02  0.57257156731E+02  0.00000000000E+00 0.  1.
</event>
<event>
12    1  0.1593360E-001  0.2805609E+03  0.7818608E-02  0.1095603E+00
         21   -1    0    0  503  502  0.00000000000E+00  0.00000000000E+00  0.20657796879E+03  0.20657796879E+03  0.00000000000E+00 0.  1.
         21   -1    0    0  501  503 -0.00000000000E+00 -0.00000000000E+00 -0.53168681200E+03  0.53168681200E+03  0.00000000000E+00 0. -1.
          6    2    1    2  501    0  0.19325001352E+03 -0.10858356927E+03 -0.36079672530E+03  0.45704342350E+03  0.17198387930E+03 0.  0.
         24    2    3    3    0    0  0.11363756379E+03 -0.50910362371E+02 -0.10123775988E+03  0.17945147932E+03  0.80301858660E+02 0.  0.
         -6    2    1    2    0  502 -0.19325001352E+03  0.10858356927E+03  0.35687882084E+02  0.28122135729E+03  0.16933950403E+03 0.  0.
        -24    2    5    5    0    0 -0.15787407324E+03  0.13276023682E+03  0.62876840209E+02  0.23025766582E+03  0.80719217973E+02 0.  0.
          5    1    3    3  501    0  0.79612449729E+02 -0.57673206903E+02 -0.25955896541E+03  0.27759194418E+03  0.47000000000E+01 0. -1.
        -13    1    4    4    0    0  0.76288837934E+02  0.60307710786E+01 -0.33954501897E+02  0.83721354458E+02  0.00000000000E+00 0.  1.
         14    1    4    4    0    0  0.37348725857E+02 -0.56941133449E+02 -0.67283257988E+02  0.95730124867E+02  0.00000000000E+00 0. -1.
         -5    1    5    5    0  502 -0.35375940279E+02 -0.24176667548E+02 -0.27188958124E+02  0.50963691470E+02  0.47000000000E+01 0.  1.
         13    1    6    6    0    0 -0.18516584369E+01  0.15413643149E+01  0.22253534498E+02  0.22383570774E+02  0.00000000000E+00 0. -1.
        -14    1    6    6    0    0 -0.15602241480E+03  0.13121887251E+03  0.40623305711E+02  0.20787409504E+03  0.00000000000E+00 0.  1.
</event>
<event>
12    1  0.1593360E-001  0.2005120E+03  0.7818608E-02  0.1149322E+00
         21   -1    0    0  501  502  0.00000000000E+00  0.00000000000E+00  0.56467286387E+02  0.56467286387E+02  0.00000000000E+00 0.  1.
         21   -1    0    0  502  503 -0.00000000000E+00 -0.00000000000E+00 -0.73780435797E+03  0.73780435797E+03  0.00000000000E+00 0.  1.
         -6    2    1    2    0  503  0.48918074489E+02  0.89225911616E+02 -0.41522930412E+03  0.46107738317E+03  0.17269260828E+03 0.  0.
        -24    2    3    3    0    0 -0.21763327181E+02  0.44056980542E+01 -0.11350086583E+03  0.13974816003E+03  0.78447747588E+02 0.  0.
          6    2    1    2  501    0 -0.48918074489E+02 -0.89225911616E+02 -0.26610776746E+03  0.33319426119E+03  0.17277392879E+03 0.  0.
         24    2    5    5    0    0 -0.57441666440E+02  0.82452147069E+01 -0.11318687324E+03  0.15158985051E+03  0.82466271266E+02 0.  0.
          5    1    5    5  501    0  0.85235919502E+01 -0.97471126323E+02 -0.15292089422E+03  0.18160441067E+03  0.47000000000E+01 0. -1.
        -13    1    6    6    0    0 -0.61303248960E+02 -0.41293567772E+01 -0.12152658646E+03  0.13617580966E+03  0.00000000000E+00 0.  1.
         14    1    6    6    0    0  0.38615825204E+01  0.12374571484E+02  0.83397132173E+01  0.15414040856E+02  0.00000000000E+00 0. -1.
         -5    1    3    3    0  503  0.70681401670E+02  0.84820213562E+02 -0.30172843830E+03  0.32132922314E+03  0.47000000000E+01 0.  1.
         13    1    4    4    0    0  0.20744094012E+02 -0.13986350772E+02 -0.11120710514E+02  0.27378927054E+02  0.00000000000E+00 0. -1.
        -14    1    4    4    0    0 -0.42507421193E+02  0.18392048826E+02 -0.10238015532E+03  0.11236923297E+03  0.00000000000E+00 0.  1.
</event>
<event>
12    1  0.1593360E-001  0.1895042E+03  0.7818608E-02  0.1159147E+00
         21   -1    0    0  503  502  0.00000000000E+00  0.00000000000E+00  0.17532091357E+03  0.17532091357E+03  0.00000000000E+00 0. -1.
         21   -1    0    0  501  503 -0.00000000000E+00 -0.00000000000E+00 -0.21986064237E+03  0.21986064237E+03  0.00000000000E+00 0. -1.
          6    2    1    2  501    0  0.47372468936E+02 -0.61281565527E+02 -0.75887247171E+02  0.20413409166E+03  0.17295164644E+03 0.  0.
         24    2    3    3    0    0 -0.20940450650E+02 -0.93321517176E+01  0.65139948529E+01  0.85064988761E+02  0.81657998107E+02 0.  0.
         -6    2    1    2    0  502 -0.47372468936E+02  0.61281565527E+02  0.31347518369E+02  0.19104746429E+03  0.17180478927E+03 0.  0.
        -24    2    5    5    0    0 -0.53721600672E+02  0.89312472976E+02  0.65683583819E+02  0.14602415214E+03  0.78396375030E+02 0.  0.
          5    1    3    3  501    0  0.68312919586E+02 -0.51949413810E+02 -0.82401242024E+02  0.11906910290E+03  0.47000000000E+01 0. -1.
        -13    1    4    4    0    0  0.20951875154E+02 -0.29446363365E+01  0.29927020994E+02  0.36650764538E+02  0.00000000000E+00 0.  1.
         14    1    4    4    0    0 -0.41892325804E+02 -0.63875153811E+01 -0.23413026141E+02  0.48414224223E+02  0.00000000000E+00 0. -1.
         -5    1    5    5    0  502  0.63491317358E+01 -0.28030907449E+02 -0.34336065450E+02  0.45023312148E+02  0.47000000000E+01 0.  1.
         13    1    6    6    0    0 -0.12272689462E+01  0.44239026944E+02  0.62731189229E+02  0.76771086980E+02  0.00000000000E+00 0. -1.
        -14    1    6    6    0    0 -0.52494331726E+02  0.45073446032E+02  0.29523945894E+01  0.69253065162E+02  0.00000000000E+00 0.  1.
</event>
<event>
12    1  0.1593360E-001  0.1975809E+03  0.7818608E-02  0.1152231E+00
         21   -1    0    0  501  502  0.00000000000E+00  0.00000000000E+00  0.12751552821E+03  0.12751552821E+03  0.00000000000E+00 0.  1.
         21   -1    0    0  502  503 -0.00000000000E+00 -0.00000000000E+00 -0.33263582895E+03  0.33263582895E+03  0.00000000000E+00 0.  1.
         -6    2    1    2    0  503 -0.61020284828E+02 -0.71515108683E+02 -0.34393479637E+02  0.20055209074E+03  0.17378246093E+03 0.  0.
        -24    2    3    3    0    0 -0.14556074886E+02  0.10925914758E+02  0.30603211412E+02  0.85651677337E+02  0.77899925241E+02 0.  0.
          6    2    1    2  501    0  0.61020284828E+02  0.71515108683E+02 -0.17072682110E+03  0.25959926643E+03  0.17148249403E+03 0.  0.
         24    2    5    5    0    0  0.81334862667E+02  0.10436325600E+03 -0.15722955772E+03  0.21841736538E+03  0.74013259553E+02 0.  0.
          5    1    5    5  501    0 -0.20314577839E+02 -0.32848147321E+02 -0.13497263373E+02  0.41181901046E+02  0.47000000000E+01 0. -1.
        -13    1    6    6    0    0  0.37784750839E+02  0.13199729943E+02 -0.85828527445E+02  0.94701934457E+02  0.00000000000E+00 0.  1.
         14    1    6    6    0    0  0.43550111828E+02  0.91163526061E+02 -0.71401030279E+02  0.12371543093E+03  0.00000000000E+00 0. -1.
         -5    1    3    3    0  503 -0.46464209942E+02 -0.82441023441E+02 -0.64996691050E+02  0.11490041340E+03  0.47000000000E+01 0.  1.
         13    1    4    4    0    0 -0.10361707804E+02  0.22484677132E+02 -0.21086066940E+02  0.32519961767E+02  0.00000000000E+00 0. -1.
        -14    1    4    4    0    0 -0.41943670816E+01 -0.11558762374E+02  0.51689278352E+02  0.53131715570E+02  0.00000000000E+00 0.  1.
</event>
<event>
12    1  0.1593360E-001  0.1955253E+03  0.7818608E-02  0.1154417E+00
         21   -1    0    0  503  502  0.00000000000E+00  0.00000000000E+00  0.15880108605E+04  0.15880108605E+04  0.00000000000E+00 0.  1.
         21   -1    0    0  501  503 -0.00000000000E+00 -0.00000000000E+00 -0.82564122490E+02  0.82564122490E+02  0.00000000000E+00 0.  1.
          6    2    1    2  501    0 -0.65028037478E+02 -0.66365407307E+02  0.49001356882E+02  0.20157202609E+03  0.17203818117E+03 0.  0.
         24    2    3    3    0    0 -0.10497269775E+03 -0.60992081777E+02  0.60177968957E+02  0.15948336765E+03  0.84108592288E+02 0.  0.
         -6    2    1    2    0  502  0.65028037478E+02  0.66365407307E+02  0.14564453812E+04  0.14690029569E+04  0.16764106370E+03 0.  0.
        -24    2    5    5    0    0 -0.95497920828E+01  0.64862361267E+02  0.11051546030E+04  0.11098492118E+04  0.78104110075E+02 0.  0.
          5    1    3    3  501    0  0.39944660272E+02 -0.53733255302E+01 -0.11176612075E+02  0.42088658436E+02  0.47000000000E+01 0. -1.
        -13    1    4    4    0    0 -0.24670387648E+02 -0.62269771364E+02  0.33242040155E+02  0.74774231431E+02  0.00000000000E+00 0.  1.
         14    1    4    4    0    0 -0.80302310102E+02  0.12776895878E+01  0.26935928803E+02  0.84709136219E+02  0.00000000000E+00 0. -1.
         -5    1    5    5    0  502  0.74577829561E+02  0.15030460396E+01  0.35129077817E+03  0.35915374513E+03  0.47000000000E+01 0.  1.
         13    1    6    6    0    0 -0.35272798914E+02  0.33165312586E+02  0.32078948106E+03  0.32442256312E+03  0.00000000000E+00 0. -1.
        -14    1    6    6    0    0  0.25723006831E+02  0.31697048681E+02  0.78436512193E+03  0.78542664870E+03  0.00000000000E+00 0.  1.
</event>
<event>
12    1  0.1593360E-001  0.1873493E+03  0.7818608E-02  0.1161254E+00
         21   -1    0    0  503  502  0.00000000000E+00  0.00000000000E+00  0.24427344792E+03  0.24427344792E+03  0.00000000000E+00 0. -1.
         21   -1    0    0  501  503 -0.00000000000E+00 -0.00000000000E+00 -0.14888358538E+03  0.14888358538E+03  0.00000000000E+00 0. -1.
          6    2    1    2  501    0  0.51336583739E+02 -0.47329940094E+02  0.65625261935E+01  0.18581658510E+03  0.17207314865E+03 0.  0.
         24    2    3    3    0    0  0.62558878258E+02 -0.81211771946E+02 -0.31622084606E+02  0.13333732323E+03  0.79182828821E+02 0.  0.
         -6    2    1    2    0  502 -0.51336583739E+02  0.47329940094E+02  0.88827336353E+02  0.20734044821E+03  0.17385107914E+03 0.  0.
        -24    2    5    5    0    0  0.15500861129E+01 -0.32922286103E+02  0.65758403196E+02  0.10838750315E+03  0.79607810920E+02 0.  0.
          5    1    3    3  501    0 -0.11222294519E+02  0.33881831852E+02  0.38184610800E+02  0.52479261865E+02  0.47000000000E+01 0. -1.
        -11    1    4    4    0    0  0.12514616395E+01 -0.61870393409E+02 -0.43219211149E+00  0.61884558064E+02  0.00000000000E+00 0.  1.
         12    1    4    4    0    0  0.61307416618E+02 -0.19341378538E+02 -0.31189892495E+02  0.71452765167E+02  0.00000000000E+00 0. -1.
         -5    1    5    5    0  502 -0.52886669852E+02  0.80252226198E+02  0.23068933157E+02  0.98952945053E+02  0.47000000000E+01 0.  1.
         13    1    6    6    0    0 -0.21167644284E+02  0.95875900217E+01 -0.40177236290E+01  0.23582475488E+02  0.00000000000E+00 0. -1.
        -14    1    6    6    0    0  0.22717730397E+02 -0.42509876125E+02  0.69776126825E+02  0.84805027665E+02  0.00000000000E+00 0.  1.
</event>
<event>
12    1  0.1593360E-001  0.2827385E+03  0.7818608E-02  0.1094209E+00
         21   -1    0    0  501  502  0.00000000000E+00  0.00000000000E+00  0.24832335787E+03  0.24832335787E+03  0.00000000000E+00 0.  1.
         21   -1    0    0  502  503 -0.00000000000E+00 -0.00000000000E+00 -0.44260816008E+03  0.44260816008E+03  0.00000000000E+00 0.  1.
         -6    2    1    2    0  503  0.20632275569E+03 -0.88696581877E+02  0.83297837491E+02  0.29470787246E+03  0.17169169230E+03 0.  0.
        -24    2    3    3    0    0  0.63818513346E+02 -0.95086682109E+02  0.45783014365E+02  0.14713502800E+03  0.80239343844E+02 0.  0.
          6    2    1    2  501    0 -0.20632275569E+03  0.88696581877E+02 -0.27758263970E+03  0.39622364549E+03  0.17176988160E+03 0.  0.
         24    2    5    5    0    0 -0.73424160528E+02  0.86717523034E+01 -0.47826812649E+02  0.11895871801E+03  0.79984160588E+02 0.  0.
          5    1    5    5  501    0 -0.13289859516E+03  0.80024829573E+02 -0.22975582705E+03  0.27726492748E+03  0.47000000000E+01 0. -1.
        -11    1    6    6    0    0 -0.89449358625E+02  0.36179664658E+01 -0.49107237079E+02  0.10210679788E+03  0.00000000000E+00 0.  1.
         12    1    6    6    0    0  0.16025198097E+02  0.50537858376E+01  0.12804244301E+01  0.16851920129E+02  0.00000000000E+00 0. -1.
         -5    1    3    3    0  503  0.14250424234E+03  0.63901002320E+01  0.37514823126E+02  0.14757284446E+03  0.47000000000E+01 0.  1.
         13    1    4    4    0    0  0.96578655687E+01 -0.18150708351E+02 -0.22802227582E+02  0.30702836411E+02  0.00000000000E+00 0. -1.
        -14    1    4    4    0    0  0.54160647777E+02 -0.76935973757E+02  0.68585241946E+02  0.11643219159E+03  0.00000000000E+00 0.  1.
</event>
<event>
12    1  0.1593360E-001  0.1948885E+03  0.7818608E-02  0.1154329E+00
         21   -1    0    0  503  502  0.00000000000E+00  0.00000000000E+00  0.65097687342E+03  0.65097687342E+03  0.00000000000E+00 0. -1.
         21   -1    0    0  501  503 -0.00000000000E+00 -0.00000000000E+00 -0.15941814183E+03  0.15941814183E+03  0.00000000000E+00 0. -1.
          6    2    1    2  501    0 -0.91493326289E+02 -0.26912783064E+01 -0.77517059347E+02  0.20887297223E+03  0.17099927574E+03 0.  0.
         24    2    3    3    0    0 -0.54979380943E+02 -0.31006788679E+02  0.88991096362E+01  0.11076649642E+03  0.90586253399E+02 0.  0.
         -6    2    1    2    0  502  0.91493326289E+02  0.26912783064E+01  0.56907579094E+03  0.60152204303E+03  0.17205592311E+03 0.  0.
        -24    2    5    5    0    0  0.47392477715E+02 -0.37539113699E+02  0.14917079529E+03  0.17736916415E+03  0.74516187657E+02 0.  0.
          5    1    3    3  501    0 -0.36513945346E+02  0.28315510372E+02 -0.86416168983E+02  0.98106475801E+02  0.47000000000E+01 0. -1.
        -11    1    4    4    0    0  0.16984545246E+02  0.16351326517E+02  0.70127898543E+01  0.24597151819E+02  0.00000000000E+00 0.  1.
         12    1    4    4    0    0 -0.71963926189E+02 -0.47358115195E+02  0.18863197818E+01  0.86169344605E+02  0.00000000000E+00 0. -1.
         -5    1    5    5    0  502  0.44100848574E+02  0.40230392005E+02  0.41990499565E+03  0.42415287887E+03  0.47000000000E+01 0.  1.
         13    1    6    6    0    0  0.31097802446E+02 -0.13442153826E+02  0.14386481844E+03  0.14780003654E+03  0.00000000000E+00 0. -1.
        -14    1    6    6    0    0  0.16294675268E+02 -0.24096959873E+02  0.53059768469E+01  0.29569127608E+02  0.00000000000E+00 0.  1.
</event>
<event>
12    1  0.1593360E-001  0.1876119E+03  0.7818608E-02  0.1160983E+00
         21   -1    0    0  503  502  0.00000000000E+00  0.00000000000E+00  0.95266577845E+02  0.95266577845E+02  0.00000000000E+00 0.  1.
         21   -1    0    0  501  503 -0.00000000000E+00 -0.00000000000E+00 -0.36793363851E+03  0.36793363851E+03  0.00000000000E+00 0.  1.
          6    2    1    2  501    0  0.57120089269E+02 -0.42476541310E+02 -0.12233866111E+03  0.22397542615E+03  0.17358364658E+03 0.  0.
         24    2    3    3    0    0  0.55972261829E+01 -0.84983243051E+02 -0.99285228053E+02  0.15315893168E+03  0.79665684611E+02 0.  0.
         -6    2    1    2    0  502 -0.57120089269E+02  0.42476541310E+02 -0.15032839956E+03  0.23922479020E+03  0.17193868493E+03 0.  0.
        -24    2    5    5    0    0 -0.10021420436E+03  0.15409726534E+02 -0.79323272951E+02  0.15174031603E+03  0.80328048958E+02 0.  0.
          5    1    3    3  501    0  0.51522863086E+02  0.42506701741E+02 -0.23053433054E+02  0.70816494470E+02  0.47000000000E+01 0. -1.
        -11    1    4    4    0    0  0.19558591763E+02 -0.71660567671E+01  0.58302680403E+01  0.21630601165E+02  0.00000000000E+00 0.  1.
         12    1    4    4    0    0 -0.13961365580E+02 -0.77817186284E+02 -0.10511549609E+03  0.13152833052E+03  0.00000000000E+00 0. -1.
         -5    1    5    5    0  502  0.43094115088E+02  0.27066814776E+02 -0.71005126608E+02  0.87484474177E+02  0.47000000000E+01 0.  1.
         11    1    6    6    0    0 -0.27500488584E+02 -0.16679029439E+02  0.85251488763E+01  0.33273789366E+02  0.00000000000E+00 0. -1.
        -12    1    6    6    0    0 -0.72713715773E+02  0.32088755974E+02 -0.87848421828E+02  0.11846652666E+03  0.00000000000E+00 0.  1.
</event>
<event>
12    1  0.1593360E-001  0.1835743E+03  0.7818608E-02  0.1165205E+00
         21   -1    0    0  501  502  0.00000000000E+00  0.00000000000E+00  0.19533346096E+03  0.19533346096E+03  0.00000000000E+00 0. -1.
         21   -1    0    0  502  503 -0.00000000000E+00 -0.00000000000E+00 -0.17194552850E+03  0.17194552850E+03  0.00000000000E+00 0. -1.
         -6    2    1    2    0  503 -0.43058017502E+02 -0.40821626459E+02 -0.11134717033E+02  0.18048674082E+03  0.17009139788E+03 0.  0.
        -24    2    3    3    0    0 -0.81375001578E+02 -0.63738291682E+01  0.26125686711E+02  0.11672727334E+03  0.79247638795E+02 0.  0.
          6    2    1    2  501    0  0.43058017502E+02  0.40821626459E+02  0.34522649489E+02  0.18679224864E+03  0.17372142287E+03 0.  0.
         24    2    5    5    0    0 -0.32322257793E+02  0.60473143611E+02  0.18449406203E+02  0.10711284615E+03  0.80193838759E+02 0.  0.
          5    1    5    5  501    0  0.75380275295E+02 -0.19651517153E+02  0.16073243286E+02  0.79679402481E+02  0.47000000000E+01 0. -1.
        -11    1    6    6    0    0 -0.79524853111E+01  0.34607963202E+02 -0.30372162612E+02  0.46727094938E+02  0.00000000000E+00 0.  1.
         12    1    6    6    0    0 -0.24369772482E+02  0.25865180409E+02  0.48821568815E+02  0.60385751217E+02  0.00000000000E+00 0. -1.
         -5    1    3    3    0  503  0.38316984076E+02 -0.34447797290E+02 -0.37260403744E+02  0.63759467486E+02  0.47000000000E+01 0.  1.
         13    1    4    4    0    0 -0.39745410230E+02 -0.35877405037E+02 -0.96560066290E+01  0.54407024276E+02  0.00000000000E+00 0. -1.
        -14    1    4    4    0    0 -0.41629591349E+02  0.29503575869E+02  0.35781693340E+02  0.62320249062E+02  0.00000000000E+00 0.  1.
</event>
<event>
12    1  0.1593360E-001  0.1800861E+03  0.7818608E-02  0.1170111E+00
         21   -1    0    0  503  502  0.00000000000E+00  0.00000000000E+00  0.91870090876E+02  0.91870090876E+02  0.00000000000E+00 0.  1.
         21   -1    0    0  501  503 -0.00000000000E+00 -0.00000000000E+00 -0.67258341540E+03  0.67258341540E+03  0.00000000000E+00 0.  1.
          6    2    1    2  501    0  0.43451436441E+02 -0.22768798099E+01 -0.55737044748E+03  0.58286088593E+03  0.16483866387E+03 0.  0.
         24    2    3    3    0    0  0.23638208980E+02  0.61938826613E+02 -0.35153639601E+03  0.36628303000E+03  0.78678060338E+02 0.  0.
         -6    2    1    2    0  502 -0.43451436441E+02  0.22768798099E+01 -0.23342877045E+02  0.18159262035E+03  0.17475061759E+03 0.  0.
        -24    2    5    5    0    0  0.36318298170E+02  0.65331376525E+01 -0.47238581748E+02  0.98079621399E+02  0.77630070583E+02 0.  0.
          5    1    3    3  501    0  0.19813227461E+02 -0.64215706423E+02 -0.20583405148E+03  0.21657785593E+03  0.47000000000E+01 0. -1.
        -11    1    4    4    0    0  0.20691099667E+02  0.43509933830E+02 -0.34190200379E+03  0.34527990985E+03  0.00000000000E+00 0.  1.
         12    1    4    4    0    0  0.29471093128E+01  0.18428892783E+02 -0.96343922130E+01  0.21003120145E+02  0.00000000000E+00 0. -1.
         -5    1    5    5    0  502 -0.79769734611E+02 -0.42562578426E+01  0.23895704703E+02  0.83512998952E+02  0.47000000000E+01 0.  1.
         11    1    6    6    0    0  0.41622034390E+02 -0.24799852018E+01  0.74879203359E+01  0.42362873183E+02  0.00000000000E+00 0. -1.
        -12    1    6    6    0    0 -0.53037362198E+01  0.90131228543E+01 -0.54726502084E+02  0.55716748216E+02  0.00000000000E+00 0.  1.
</event>
<event>
12    1  0.1593360E-001  0.1789486E+03  0.7818608E-02  0.1169005E+00
         21   -1    0    0  501  502  0.00000000000E+00  0.00000000000E+00  0.33407555929E+03  0.33407555929E+03  0.00000000000E+00 0. -1.
         21   -1    0    0  502  503 -0.00000000000E+00 -0.00000000000E+00 -0.11470627052E+03  0.11470627052E+03  0.00000000000E+00 0. -1.
         -6    2    1    2    0  503  0.47681051981E+02  0.86505764101E+01  0.17957408466E+02  0.17984739572E+03  0.17226230592E+03 0.  0.
        -24    2    3    3    0    0  0.82967720761E+02  0.26368126981E+02  0.49213426808E+02  0.12926983870E+03  0.81913423874E+02 0.  0.
          6    2    1    2  501    0 -0.47681051981E+02 -0.86505764101E+01  0.20141188030E+03  0.26893443408E+03  0.17149539094E+03 0.  0.
         24    2    5    5    0    0  0.10307663990E+02  0.27879758939E+02  0.50150734434E+02  0.10280442225E+03  0.84676585749E+02 0.  0.
          5    1    5    5  501    0 -0.57988715971E+02 -0.36530335349E+02  0.15126114587E+03  0.16613001183E+03  0.47000000000E+01 0. -1.
        -13    1    6    6    0    0  0.19067494213E+02  0.10759192222E+02 -0.20250930859E+02  0.29823308895E+02  0.00000000000E+00 0.  1.
         14    1    6    6    0    0 -0.87598302232E+01  0.17120566717E+02  0.70401665292E+02  0.72981113353E+02  0.00000000000E+00 0. -1.
         -5    1    3    3    0  503 -0.35286668779E+02 -0.17717550571E+02 -0.31256018342E+02  0.50577557023E+02  0.47000000000E+01 0.  1.
         13    1    4    4    0    0  0.39131677992E+02  0.47114665667E+02  0.15418712565E+01  0.61265465887E+02  0.00000000000E+00 0. -1.
        -14    1    4    4    0    0  0.43836042769E+02 -0.20746538686E+02  0.47671555552E+02  0.68004372814E+02  0.00000000000E+00 0.  1.
</event>
<event>
12    1  0.1593360E-001  0.1989084E+03  0.7818608E-02  0.1150892E+00
         21   -1    0    0  501  502  0.00000000000E+00  0.00000000000E+00  0.14396151126E+03  0.14396151126E+03  0.00000000000E+00 0.  1.
         21   -1    0    0  502  503 -0.00000000000E+00 -0.00000000000E+00 -0.30728743583E+03  0.30728743583E+03  0.00000000000E+00 0. -1.
         -6    2    1    2    0  503 -0.97678828417E+02  0.13083875159E+02 -0.15645453286E+03  0.25222191315E+03  0.17153871666E+03 0.  0.
        -24    2    3    3    0    0 -0.11558498517E+02  0.53677177273E+02 -0.49505473865E+02  0.10895740737E+03  0.80038031144E+02 0.  0.
          6    2    1    2  501    0  0.97678828417E+02 -0.13083875159E+02 -0.68713917169E+01  0.19902703394E+03  0.17277790051E+03 0.  0.
         24    2    5    5    0    0  0.43034425765E+02 -0.14586995006E+02  0.62280585488E+02  0.11075271117E+03  0.79514460809E+02 0.  0.
          5    1    5    5  501    0  0.54644402652E+02  0.15031198475E+01 -0.69151977205E+02  0.88274322777E+02  0.47000000000E+01 0. -1.
        -11    1    6    6    0    0 -0.15095590788E+02  0.18154709721E+02  0.24743710560E+02  0.34201192356E+02  0.00000000000E+00 0.  1.
         12    1    6    6    0    0  0.58130016553E+02 -0.32741704727E+02  0.37536874928E+02  0.76551518811E+02  0.00000000000E+00 0. -1.
         -5    1    3    3    0  503 -0.86120329900E+02 -0.40593302114E+02 -0.10694905899E+03  0.14326450578E+03  0.47000000000E+01 0.  1.
         11    1    4    4    0    0 -0.38321768673E+02  0.49989423428E+02 -0.52200671176E+02  0.81807154211E+02  0.00000000000E+00 0. -1.
        -12    1    4    4    0    0  0.26763270156E+02  0.36877538453E+01  0.26951973103E+01  0.27150253155E+02  0.00000000000E+00 0.  1.
</event>
<event>
12    1  0.1593360E-001  0.2692761E+03  0.7818608E-02  0.1102028E+00
         21   -1    0    0  503  502  0.00000000000E+00  0.00000000000E+00  0.50123548013E+03  0.50123548013E+03  0.00000000000E+00 0.  1.
         21   -1    0    0  501  503 -0.00000000000E+00 -0.00000000000E+00 -0.24272513193E+03  0.24272513193E+03  0.00000000000E+00 0.  1.
          6    2    1    2  501    0 -0.15417244823E+03  0.13480963181E+03 -0.10900107293E+03  0.28835741235E+03  0.17124830725E+03 0.  0.
         24    2    3    3    0    0 -0.87497252745E+01  0.61941588077E+02 -0.43505014862E+02  0.11294548639E+03  0.83370729580E+02 0.  0.
         -6    2    1    2    0  502  0.15417244823E+03 -0.13480963181E+03  0.36751142113E+03  0.45560319971E+03  0.17483377907E+03 0.  0.
        -24    2    5    5    0    0  0.61286007474E+02 -0.14628050890E+03  0.24824152428E+03  0.30392304217E+03  0.74775659071E+02 0.  0.
          5    1    3    3  501    0 -0.14542272295E+03  0.72868043736E+02 -0.65496058072E+02  0.17541192597E+03  0.47000000000E+01 0. -1.
        -13    1    4    4    0    0  0.39281961442E+01  0.67516038539E+02 -0.60694011659E+02  0.90871388435E+02  0.00000000000E+00 0.  1.
         14    1    4    4    0    0 -0.12677921419E+02 -0.55744504615E+01  0.17188996796E+02  0.22074097950E+02  0.00000000000E+00 0. -1.
         -5    1    5    5    0  502  0.92886440753E+02  0.11470877083E+02  0.11926989686E+03  0.15168015754E+03  0.47000000000E+01 0.  1.
         13    1    6    6    0    0 -0.64256307409E+01 -0.54212782433E+02  0.44981479270E+02  0.70736468578E+02  0.00000000000E+00 0. -1.
        -14    1    6    6    0    0  0.67711638215E+02 -0.92067726463E+02  0.20326004501E+03  0.23318657359E+03  0.00000000000E+00 0.  1.
</event>
<event>
12    1  0.1593360E-001  0.1873033E+03  0.7818608E-02  0.1161050E+00
         21   -1    0    0  503  502  0.00000000000E+00  0.00000000000E+00  0.35041464792E+03  0.35041464792E+03  0.00000000000E+00 0. -1.
         21   -1    0    0  501  503 -0.00000000000E+00 -0.00000000000E+00 -0.11108025085E+03  0.11108025085E+03  0.00000000000E+00 0. -1.
          6    2    1    2  501    0  0.28573675879E+02  0.68753498327E+02  0.46322117094E+02  0.19294623896E+03  0.17186917732E+03 0.  0.
         24    2    3    3    0    0 -0.48244367036E+02  0.52407148702E+02  0.38479355216E+02  0.11387782695E+03  0.80084146422E+02 0.  0.
         -6    2    1    2    0  502 -0.28573675879E+02 -0.68753498327E+02  0.19301227997E+03  0.26854865981E+03  0.17123417878E+03 0.  0.
        -24    2    5    5    0    0 -0.25927696601E+02  0.13992197519E+02  0.38901537080E+02  0.93545624234E+02  0.79808691154E+02 0.  0.
          5    1    3    3  501    0  0.76818042915E+02  0.16346349625E+02  0.78427618783E+01  0.79068412006E+02  0.47000000000E+01 0. -1.
        -13    1    4    4    0    0 -0.28506673418E+02  0.73057604279E+02  0.31185050435E+02  0.84395209242E+02  0.00000000000E+00 0.  1.
         14    1    4    4    0    0 -0.19737693618E+02 -0.20650455577E+02  0.72943047803E+01  0.29482617711E+02  0.00000000000E+00 0. -1.
         -5    1    5    5    0  502 -0.26459792778E+01 -0.82745695846E+02  0.15411074289E+03  0.17500303558E+03  0.47000000000E+01 0.  1.
         13    1    6    6    0    0  0.86820393223E+01 -0.67817115091E+00  0.52765941927E+02  0.53479737755E+02  0.00000000000E+00 0. -1.
        -14    1    6    6    0    0 -0.34609735924E+02  0.14670368669E+02 -0.13864404847E+02  0.40065886479E+02  0.00000000000E+00 0.  1.
</event>
<event>
12    1  0.1593360E-001  0.1824596E+03  0.7818608E-02  0.1165657E+00
         21   -1    0    0  503  502  0.00000000000E+00  0.00000000000E+00  0.14218119231E+03  0.14218119231E+03  0.00000000000E+00 0.  1.
         21   -1    0    0  501  503 -0.00000000000E+00 -0.00000000000E+00 -0.26661884359E+03  0.26661884359E+03  0.00000000000E+00 0.  1.
          6    2    1    2  501    0 -0.11605958363E+02 -0.53425289386E+02 -0.13466598911E+03  0.22605394414E+03  0.17313722078E+03 0.  0.
         24    2    3    3    0    0  0.37849066987E+02 -0.85333348152E+02 -0.87326341708E+02  0.15037662942E+03  0.79201695309E+02 0.  0.
         -6    2    1    2    0  502  0.11605958363E+02  0.53425289386E+02  0.10228337833E+02  0.18274609177E+03  0.17407629174E+03 0.  0.
        -24    2    5    5    0    0 -0.58410174931E+02  0.53436039090E+02  0.46402216395E+01  0.11235023905E+03  0.79585713225E+02 0.  0.
          5    1    3    3  501    0 -0.49455025350E+02  0.31908058766E+02 -0.47339647407E+02  0.75677314720E+02  0.47000000000E+01 0. -1.
        -11    1    4    4    0    0  0.23313088030E+02 -0.74033804832E+02 -0.19408382624E+02  0.80007434951E+02  0.00000000000E+00 0.  1.
         12    1    4    4    0    0  0.14535978957E+02 -0.11299543321E+02 -0.67917959084E+02  0.70369194465E+02  0.00000000000E+00 0. -1.
         -5    1    5    5    0  502  0.70016133294E+02 -0.10749703552E-01  0.55881161933E+01  0.70395852716E+02  0.47000000000E+01 0.  1.
         13    1    6    6    0    0  0.86748647144E+01 -0.64519688879E+01 -0.16729174985E+02  0.19918495827E+02  0.00000000000E+00 0. -1.
        -14    1    6    6    0    0 -0.67085039645E+02  0.59888007978E+02  0.21369396625E+02  0.92431743226E+02  0.00000000000E+00 0.  1.
</event>
<event>
12    1  0.1593360E-001  0.1947951E+03  0.7818608E-02  0.1154791E+00
         21   -1    0    0  503  502  0.00000000000E+00  0.00000000000E+00  0.23193886851E+03  0.23193886851E+03  0.00000000000E+00 0. -1.
         21   -1    0    0  501  503 -0.00000000000E+00 -0.00000000000E+00 -0.16265757888E+03  0.16265757888E+03  0.00000000000E+00 0. -1.
          6    2    1    2  501    0  0.85189796227E+02 -0.19228748888E+02  0.51923839935E+02  0.19902955253E+03  0.17114213818E+03 0.  0.
         24    2    3    3    0    0  0.14562766702E+02 -0.20970996764E+02  0.84669087135E+02  0.12101959200E+03  0.82613742516E+02 0.  0.
         -6    2    1    2    0  502 -0.85189796227E+02  0.19228748888E+02  0.17357449695E+02  0.19556689486E+03  0.17412088658E+03 0.  0.
        -24    2    5    5    0    0 -0.63577611391E+02 -0.14374585273E+02  0.71671911600E+02  0.12797679668E+03  0.83620907702E+02 0.  0.
          5    1    3    3  501    0  0.70627029525E+02  0.17422478759E+01 -0.32745247200E+02  0.78009960527E+02  0.47000000000E+01 0. -1.
        -13    1    4    4    0    0  0.37884268959E+02  0.13841947191E+02  0.60300409949E+02  0.72546238887E+02  0.00000000000E+00 0.  1.
         14    1    4    4    0    0 -0.23321502257E+02 -0.34812943955E+02  0.24368677186E+02  0.48473353114E+02  0.00000000000E+00 0. -1.
         -5    1    5    5    0  502 -0.21612184837E+02  0.33603334162E+02 -0.54314461904E+02  0.67590098181E+02  0.47000000000E+01 0.  1.
         13    1    6    6    0    0 -0.15230399669E+02  0.26432868040E+02  0.54440374050E+02  0.62405255497E+02  0.00000000000E+00 0. -1.
        -14    1    6    6    0    0 -0.48347211722E+02 -0.40807453314E+02  0.17231537550E+02  0.65571541186E+02  0.00000000000E+00 0.  1.
</event>
<event>
12    1  0.1593360E-001  0.4325437E+03  0.7818608E-02  0.1033202E+00
         21   -1    0    0  503  502  0.00000000000E+00  0.00000000000E+00  0.16849259367E+03  0.16849259367E+03  0.00000000000E+00 0.  1.
         21   -1    0    0  501  503 -0.00000000000E+00 -0.00000000000E+00 -0.12712158236E+04  0.12712158236E+04  0.00000000000E+00 0. -1.
          6    2    1    2  501    0 -0.24110595869E+03 -0.31311515104E+03 -0.81209551168E+03  0.92010496043E+03  0.17584321708E+03 0.  0.
         24    2    3    3    0    0 -0.25103955193E+03 -0.26996093315E+03 -0.77581339087E+03  0.86266416407E+03  0.80020500247E+02 0.  0.
         -6    2    1    2    0  502  0.24110595869E+03  0.31311515104E+03 -0.29062771830E+03  0.51960345688E+03  0.17131871070E+03 0.  0.
        -24    2    5    5    0    0  0.21929339718E+03  0.20062252736E+03 -0.16362113146E+03  0.34848028101E+03  0.79546458507E+02 0.  0.
          5    1    3    3  501    0  0.99335932417E+01 -0.43154217884E+02 -0.36282120813E+02  0.57440796361E+02  0.47000000000E+01 0. -1.
        -11    1    4    4    0    0 -0.87776972351E+02 -0.53992643565E+02 -0.26913925084E+03  0.28819427263E+03  0.00000000000E+00 0.  1.
         12    1    4    4    0    0 -0.16326257958E+03 -0.21596828959E+03 -0.50667414003E+03  0.57446989144E+03  0.00000000000E+00 0. -1.
         -5    1    5    5    0  502  0.21812561511E+02  0.11249262368E+03 -0.12700658684E+03  0.17112317587E+03  0.47000000000E+01 0.  1.
         13    1    6    6    0    0  0.14220444304E+02  0.22028025863E+02  0.73880937744E+01  0.27240390769E+02  0.00000000000E+00 0. -1.
        -14    1    6    6    0    0  0.20507295287E+03  0.17859450150E+03 -0.17100922524E+03  0.32123989024E+03  0.00000000000E+00 0.  1.
</event>
<event>
12    1  0.1593360E-001  0.1962991E+03  0.7818608E-02  0.1153268E+00
         21   -1    0    0  503  502  0.00000000000E+00  0.00000000000E+00  0.14305051116E+04  0.14305051116E+04  0.00000000000E+00 0. -1.
         21   -1    0    0  501  503 -0.00000000000E+00 -0.00000000000E+00 -0.80361430899E+02  0.80361430899E+02  0.00000000000E+00 0. -1.
          6    2    1    2  501    0 -0.10491245573E+01 -0.93061375338E+02  0.56816979924E+02  0.20272767879E+03  0.17090588725E+03 0.  0.
         24    2    3    3    0    0  0.37347518581E+02 -0.69651162492E+01 -0.72323292960E+01  0.88660715801E+02  0.79781363431E+02 0.  0.
         -6    2    1    2    0  502  0.10491245573E+01  0.93061375338E+02  0.12933267008E+04  0.13081388637E+04  0.17283463649E+03 0.  0.
        -24    2    5    5    0    0  0.54474144256E+02  0.73621309332E+02  0.11103584058E+04  0.11164838719E+04  0.72477013210E+02 0.  0.
          5    1    3    3  501    0 -0.38396643138E+02 -0.86096259089E+02  0.64049309220E+02  0.11406696299E+03  0.47000000000E+01 0. -1.
        -13    1    4    4    0    0  0.20992119768E+02  0.13774292475E+02 -0.39597073787E+02  0.46886335728E+02  0.00000000000E+00 0.  1.
         14    1    4    4    0    0  0.16355398813E+02 -0.20739408724E+02  0.32364744491E+02  0.41774380073E+02  0.00000000000E+00 0. -1.
         -5    1    5    5    0  502 -0.53425019699E+02  0.19440066007E+02  0.18296829503E+03  0.19165499180E+03  0.47000000000E+01 0.  1.
         11    1    6    6    0    0  0.34603386863E+02  0.53153279426E+02  0.35731752718E+03  0.36290285302E+03  0.00000000000E+00 0. -1.
        -12    1    6    6    0    0  0.19870757393E+02  0.20468029905E+02  0.75304087858E+03  0.75358101891E+03  0.00000000000E+00 0.  1.
</event>
<event>
12    1  0.1593360E-001  0.1732852E+03  0.7818608E-02  0.1174808E+00
         21   -1    0    0  501  502  0.00000000000E+00  0.00000000000E+00  0.30275718029E+03  0.30275718029E+03  0.00000000000E+00 0. -1.
         21   -1    0    0  502  503 -0.00000000000E+00 -0.00000000000E+00 -0.10844940468E+03  0.10844940468E+03  0.00000000000E+00 0. -1.
         -6    2    1    2    0  503  0.15116965185E+02  0.16695451601E+02  0.34948354839E+02  0.17677430316E+03  0.17181532531E+03 0.  0.
        -24    2    3    3    0    0  0.68073732185E+02 -0.20312249249E+01 -0.87562581664E+01  0.10544905670E+03  0.80029198504E+02 0.  0.
          6    2    1    2  501    0 -0.15116965185E+02 -0.16695451601E+02  0.15935942077E+03  0.23443228181E+03  0.17045764585E+03 0.  0.
         24    2    5    5    0    0 -0.32750344121E+02 -0.72550533179E+02  0.10974335231E+03  0.15752603733E+03  0.80216483074E+02 0.  0.
          5    1    5    5  501    0  0.17633378936E+02  0.55855081577E+02  0.49616068461E+02  0.76906244481E+02  0.47000000000E+01 0. -1.
        -13    1    6    6    0    0  0.17400582906E+02  0.54131369439E+01  0.80511667255E+01  0.19922440179E+02  0.00000000000E+00 0.  1.
         14    1    6    6    0    0 -0.50150927027E+02 -0.77963670123E+02  0.10169218558E+03  0.13760359715E+03  0.00000000000E+00 0. -1.
         -5    1    3    3    0  503 -0.52956767001E+02  0.18726676526E+02  0.43704613006E+02  0.71325246462E+02  0.47000000000E+01 0.  1.
         11    1    4    4    0    0  0.39337842049E+01  0.26560621033E+02  0.15681586549E+02  0.31094266425E+02  0.00000000000E+00 0. -1.
        -12    1    4    4    0    0  0.64139947981E+02 -0.28591845958E+02 -0.24437844716E+02  0.74354790273E+02  0.00000000000E+00 0.  1.
</event>
<event>
12    1  0.1593360E-001  0.1874623E+03  0.7818608E-02  0.1161114E+00
         21   -1    0    0  503  502  0.00000000000E+00  0.00000000000E+00  0.24222059447E+03  0.24222059447E+03  0.00000000000E+00 0.  1.
         21   -1    0    0  501  503 -0.00000000000E+00 -0.00000000000E+00 -0.15723119024E+03  0.15723119024E+03  0.00000000000E+00 0.  1.
          6    2    1    2  501    0 -0.72752745587E+02 -0.16728327433E+02 -0.15750889356E+02  0.18663562916E+03  0.17032900114E+03 0.  0.
         24    2    3    3    0    0 -0.92873539190E+02  0.38302556559E+02 -0.81599791185E+01  0.12736543053E+03  0.77863903792E+02 0.  0.
         -6    2    1    2    0  502  0.72752745587E+02  0.16728327433E+02  0.10074029359E+03  0.21281615554E+03  0.17195729231E+03 0.  0.
        -24    2    5    5    0    0  0.22679882508E+02 -0.21196822984E+02 -0.10171755164E+02  0.85265454997E+02  0.78759449195E+02 0.  0.
          5    1    3    3  501    0  0.20120793603E+02 -0.55030883991E+02 -0.75909102372E+01  0.59270198636E+02  0.47000000000E+01 0. -1.
        -11    1    4    4    0    0 -0.65620739998E+02  0.42402923195E+02 -0.37885595440E+02  0.86829763073E+02  0.00000000000E+00 0.  1.
         12    1    4    4    0    0 -0.27252799192E+02 -0.41003666366E+01  0.29725616321E+02  0.40535667455E+02  0.00000000000E+00 0. -1.
         -5    1    5    5    0  502  0.50072863079E+02  0.37925150416E+02  0.11091204875E+03  0.12755070054E+03  0.47000000000E+01 0.  1.
         13    1    6    6    0    0  0.41077197541E+01  0.28599561871E+02 -0.13750278724E+02  0.31998100972E+02  0.00000000000E+00 0. -1.
        -14    1    6    6    0    0  0.18572162754E+02 -0.49796384855E+02  0.35785235594E+01  0.53267354025E+02  0.00000000000E+00 0.  1.
</event>
<event>
12    1  0.1593360E-001  0.2149772E+03  0.7818608E-02  0.1138574E+00
         21   -1    0    0  503  502  0.00000000000E+00  0.00000000000E+00  0.41398234768E+03  0.41398234768E+03  0.00000000000E+00 0.  1.
         21   -1    0    0  501  503 -0.00000000000E+00 -0.00000000000E+00 -0.10932748392E+03  0.10932748392E+03  0.00000000000E+00 0. -1.
          6    2    1    2  501    0 -0.12559193575E+03  0.23956705415E+02  0.14462589186E+03  0.25530896700E+03  0.16708908395E+03 0.  0.
         24    2    3    3    0    0 -0.31807746182E+02  0.32240041049E+02  0.13109527827E+03  0.16007632887E+03  0.79920623836E+02 0.  0.
         -6    2    1    2    0  502  0.12559193575E+03 -0.23956705415E+02  0.16002897190E+03  0.26800086460E+03  0.17282341716E+03 0.  0.
        -24    2    5    5    0    0  0.11922005807E+03  0.14805137612E+02  0.17397449723E+03  0.22605269448E+03  0.80000504035E+02 0.  0.
          5    1    3    3  501    0 -0.93784189570E+02 -0.82833356343E+01  0.13530613586E+02  0.95232638137E+02  0.47000000000E+01 0. -1.
        -13    1    4    4    0    0 -0.11944844417E+02 -0.22754173555E+02  0.74069883862E+02  0.78401399335E+02  0.00000000000E+00 0.  1.
         14    1    4    4    0    0 -0.19862901765E+02  0.54994214605E+02  0.57025394409E+02  0.81674929532E+02  0.00000000000E+00 0. -1.
         -5    1    5    5    0  502  0.63718776798E+01 -0.38761843027E+02 -0.13945525329E+02  0.41948170124E+02  0.47000000000E+01 0.  1.
         13    1    6    6    0    0  0.44151913035E+02  0.36423894496E+02  0.36354961354E+02  0.67806892939E+02  0.00000000000E+00 0. -1.
        -14    1    6    6    0    0  0.75068145036E+02 -0.21618756884E+02  0.13761953588E+03  0.15824580154E+03  0.00000000000E+00 0.  1.
</event>
<event>
12    1  0.1593360E-001  0.2005970E+03  0.7818608E-02  0.1149566E+00
         21   -1    0    0  501  502  0.00000000000E+00  0.00000000000E+00  0.18740938497E+03  0.18740938497E+03  0.00000000000E+00 0.  1.
         21   -1    0    0  502  503 -0.00000000000E+00 -0.00000000000E+00 -0.22598593020E+03  0.22598593020E+03  0.00000000000E+00 0.  1.
         -6    2    1    2    0  503 -0.16501711956E+02  0.10127931444E+03 -0.68824208781E+02  0.21207524840E+03  0.17236395574E+03 0.  0.
        -24    2    3    3    0    0  0.37668308713E+02  0.57390507462E+02 -0.90670205846E+02  0.13886352731E+03  0.79683255207E+02 0.  0.
          6    2    1    2  501    0  0.16501711956E+02 -0.10127931444E+03  0.30247663554E+02  0.20132006677E+03  0.17054337308E+03 0.  0.
         24    2    5    5    0    0  0.68378978512E+02 -0.75106037938E+02  0.52369585326E+02  0.13896815733E+03  0.79075746259E+02 0.  0.
          5    1    5    5  501    0 -0.51877266557E+02 -0.26173276503E+02 -0.22121921772E+02  0.62351909443E+02  0.47000000000E+01 0. -1.
        -11    1    6    6    0    0 -0.85451835512E+01 -0.12842295501E+02  0.35324834935E+02  0.38545929472E+02  0.00000000000E+00 0.  1.
         12    1    6    6    0    0  0.76924162064E+02 -0.62263742437E+02  0.17044750390E+02  0.10042222785E+03  0.00000000000E+00 0. -1.
         -5    1    3    3    0  503 -0.54170020668E+02  0.43888806980E+02  0.21845997065E+02  0.73211721091E+02  0.47000000000E+01 0.  1.
         13    1    4    4    0    0 -0.17042390941E+02  0.12687651786E+02 -0.56540097637E+02  0.60400349648E+02  0.00000000000E+00 0. -1.
        -14    1    4    4    0    0  0.54710699654E+02  0.44702855676E+02 -0.34130108209E+02  0.78463177660E+02  0.00000000000E+00 0.  1.
</event>
<event>
12    1  0.1593360E-001  0.1940404E+03  0.7818608E-02  0.1154934E+00
         21   -1    0    0  503  502  0.00000000000E+00  0.00000000000E+00  0.46265030361E+03  0.46265030361E+03  0.00000000000E+00 0.  1.
         21   -1    0    0  501  503 -0.00000000000E+00 -0.00000000000E+00 -0.17966303233E+03  0.17966303233E+03  0.00000000000E+00 0.  1.
          6    2    1    2  501    0  0.61370256574E+02 -0.65681658510E+02 -0.96142707074E+02  0.21655273832E+03  0.17196301840E+03 0.  0.
         24    2    3    3    0    0  0.21234666825E+02 -0.85129545531E+02 -0.10465730000E+02  0.11984844538E+03  0.80970165845E+02 0.  0.
         -6    2    1    2    0  502 -0.61370256574E+02  0.65681658510E+02  0.37912997836E+03  0.42576059761E+03  0.17161630847E+03 0.  0.
        -24    2    5    5    0    0 -0.96228901125E+02  0.44883891191E+02  0.19160650760E+03  0.23383661707E+03  0.81804306886E+02 0.  0.
          5    1    3    3  501    0  0.40135589749E+02  0.19447887022E+02 -0.85676977074E+02  0.96704292949E+02  0.47000000000E+01 0. -1.
        -11    1    4    4    0    0  0.38030703250E+02 -0.22392361297E+02 -0.28387132215E+02  0.52474579651E+02  0.00000000000E+00 0.  1.
         12    1    4    4    0    0 -0.16796036425E+02 -0.62737184235E+02  0.17921402216E+02  0.67373865725E+02  0.00000000000E+00 0. -1.
         -5    1    5    5    0  502  0.34858644551E+02  0.20797767319E+02  0.18752347075E+03  0.19192398055E+03  0.47000000000E+01 0.  1.
         11    1    6    6    0    0 -0.27151050218E+02 -0.21707828623E+02  0.30119579024E+02  0.45995634489E+02  0.00000000000E+00 0. -1.
        -12    1    6    6    0    0 -0.69077850907E+02  0.66591719814E+02  0.16148692858E+03  0.18784098258E+03  0.00000000000E+00 0.  1.
</event>
<event>
12    1  0.1593360E-001  0.1766720E+03  0.7818608E-02  0.1171358E+00
         21   -1    0    0  503  502  0.00000000000E+00  0.00000000000E+00  0.17020148698E+03  0.17020148698E+03  0.00000000000E+00 0. -1.
         21   -1    0    0  501  503 -0.00000000000E+00 -0.00000000000E+00 -0.45662854592E+03  0.45662854592E+03  0.00000000000E+00 0. -1.
          6    2    1    2  501    0 -0.66753777086E+01 -0.39153858402E+02 -0.38600868519E+03  0.42402595930E+03  0.17093192744E+03 0.  0.
         24    2    3    3    0    0 -0.12707948491E+02  0.44443670621E+02 -0.18640019016E+03  0.20748363074E+03  0.78534669539E+02 0.  0.
         -6    2    1    2    0  502  0.66753777086E+01  0.39153858402E+02  0.99581626259E+02  0.20280407360E+03  0.17214937318E+03 0.  0.
        -24    2    5    5    0    0 -0.18009396963E+02  0.27744883004E+02 -0.12792472786E+02  0.87090932792E+02  0.79542858276E+02 0.  0.
          5    1    3    3  501    0  0.60325707820E+01 -0.83597529022E+02 -0.19960849504E+03  0.21654232856E+03  0.47000000000E+01 0. -1.
        -11    1    4    4    0    0  0.11295297597E+02  0.46135341438E+02 -0.49949758775E+02  0.68927729391E+02  0.00000000000E+00 0.  1.
         12    1    4    4    0    0 -0.24003246088E+02 -0.16916708172E+01 -0.13645043138E+03  0.13855590134E+03  0.00000000000E+00 0. -1.
         -5    1    5    5    0  502  0.24684774672E+02  0.11408975398E+02  0.11237409904E+03  0.11571314081E+03  0.47000000000E+01 0.  1.
         11    1    6    6    0    0 -0.39700827703E+02  0.32034362423E+02  0.13468014855E+02  0.52761193318E+02  0.00000000000E+00 0. -1.
        -12    1    6    6    0    0  0.21691430740E+02 -0.42894794193E+01 -0.26260487641E+02  0.34329739474E+02  0.00000000000E+00 0.  1.
</event>
<event>
12    1  0.1593360E-001  0.1872748E+03  0.7818608E-02  0.1162358E+00
         21   -1    0    0  501  502  0.00000000000E+00  0.00000000000E+00  0.27430055829E+02  0.27430055829E+02  0.00000000000E+00 0. -1.
         21   -1    0    0  502  503 -0.00000000000E+00 -0.00000000000E+00 -0.18988608971E+04  0.18988608971E+04  0.00000000000E+00 0. -1.
         -6    2    1    2    0  503  0.61471109079E+02  0.25614663104E+02 -0.15140468136E+04  0.15255850056E+04  0.17503441766E+03 0.  0.
        -24    2    3    3    0    0  0.59073542259E+02 -0.35044539918E+02 -0.50026824975E+03  0.50997959318E+03  0.71365682106E+02 0.  0.
          6    2    1    2  501    0 -0.61471109079E+02 -0.25614663104E+02 -0.35738402766E+03  0.40070594730E+03  0.16854407364E+03 0.  0.
         24    2    5    5    0    0 -0.10090650205E+03 -0.46184110250E+02 -0.25886238824E+03  0.29250772269E+03  0.78967952955E+02 0.  0.
          5    1    5    5  501    0  0.39435392972E+02  0.20569447146E+02 -0.98521639423E+02  0.10819822461E+03  0.47000000000E+01 0. -1.
        -13    1    6    6    0    0 -0.39968470871E+02 -0.46860096200E+02 -0.19384613238E+03  0.20339535471E+03  0.00000000000E+00 0.  1.
         14    1    6    6    0    0 -0.60938031180E+02  0.67598594967E+00 -0.65016255857E+02  0.89112367979E+02  0.00000000000E+00 0. -1.
         -5    1    3    3    0  503  0.23975668200E+01  0.60659203022E+02 -0.10137785638E+04  0.10156054124E+04  0.47000000000E+01 0.  1.
         11    1    4    4    0    0  0.56486940268E+02  0.63412616519E+01 -0.31943571838E+03  0.32445363952E+03  0.00000000000E+00 0. -1.
        -12    1    4    4    0    0  0.25866019916E+01 -0.41385801570E+02 -0.18083253137E+03  0.18552595366E+03  0.00000000000E+00 0.  1.
</event>
<event>
12    1  0.1593360E-001  0.2063034E+03  0.7818608E-02  0.1144842E+00
         21   -1    0    0  501  502  0.00000000000E+00  0.00000000000E+00  0.16421280736E+03  0.16421280736E+03  0.00000000000E+00 0. -1.
         21   -1    0    0  502  503 -0.00000000000E+00 -0.00000000000E+00 -0.45802562172E+03  0.45802562172E+03  0.00000000000E+00 0. -1.
         -6    2    1    2    0  503  0.10336505951E+03 -0.48107106183E+02 -0.35258490672E+03  0.40772672712E+03  0.17007744816E+03 0.  0.
        -24    2    3    3    0    0  0.86688606508E+02 -0.85492237802E+02 -0.18654914075E+03  0.23665446832E+03  0.79880649961E+02 0.  0.
          6    2    1    2  501    0 -0.10336505951E+03  0.48107106183E+02  0.58772092355E+02  0.21451170195E+03  0.17193743700E+03 0.  0.
         24    2    5    5    0    0 -0.97879623605E+02 -0.31118149564E+01  0.89170135311E+02  0.15451504450E+03  0.79583175591E+02 0.  0.
          5    1    5    5  501    0 -0.54854359017E+01  0.51218921139E+02 -0.30398042956E+02  0.59996657451E+02  0.47000000000E+01 0. -1.
        -13    1    6    6    0    0  0.13640292707E+02  0.33280089243E+01  0.61051721837E+01  0.15310334938E+02  0.00000000000E+00 0.  1.
         14    1    6    6    0    0 -0.11151991631E+03 -0.64398238807E+01  0.83064963127E+02  0.13920470957E+03  0.00000000000E+00 0. -1.
         -5    1    3    3    0  503  0.16676452999E+02  0.37385131620E+02 -0.16603576597E+03  0.17107225880E+03  0.47000000000E+01 0.  1.
         11    1    4    4    0    0  0.29881313507E+02  0.47778094819E+01 -0.81561893391E+02  0.86994613706E+02  0.00000000000E+00 0. -1.
        -12    1    4    4    0    0  0.56807293002E+02 -0.90270047284E+02 -0.10498724736E+03  0.14965985461E+03  0.00000000000E+00 0.  1.
</event>
<event>
12    1  0.1593360E-001  0.1865368E+03  0.7818608E-02  0.1161739E+00
         21   -1    0    0  501  502  0.00000000000E+00  0.00000000000E+00  0.59449962737E+03  0.59449962737E+03  0.00000000000E+00 0.  1.
         21   -1    0    0  502  503 -0.00000000000E+00 -0.00000000000E+00 -0.80459555891E+02  0.80459555891E+02  0.00000000000E+00 0.  1.
         -6    2    1    2    0  503 -0.61498896260E+02  0.35502500003E+02  0.80451598889E+02  0.20314638074E+03  0.17249188530E+03 0.  0.
        -24    2    3    3    0    0 -0.49288159354E+02 -0.35836247395E+02  0.83007417689E+02  0.13057268588E+03  0.80283470437E+02 0.  0.
          6    2    1    2  501    0  0.61498896260E+02 -0.35502500003E+02  0.43358847259E+03  0.47181280253E+03  0.17194712942E+03 0.  0.
         24    2    5    5    0    0  0.94777385749E+02 -0.55652265040E+02  0.26906361006E+03  0.30268565721E+03  0.84518952698E+02 0.  0.
          5    1    5    5  501    0 -0.33278489489E+02  0.20149765037E+02  0.16452486253E+03  0.16912714532E+03  0.47000000000E+01 0. -1.
        -11    1    6    6    0    0  0.18727279691E+02 -0.16895879008E+02  0.57318951084E+01  0.25865737059E+02  0.00000000000E+00 0.  1.
         12    1    6    6    0    0  0.76050106058E+02 -0.38756386032E+02  0.26333171495E+03  0.27681992015E+03  0.00000000000E+00 0. -1.
         -5    1    3    3    0  503 -0.12210736906E+02  0.71338747398E+02 -0.25558188000E+01  0.72573694862E+02  0.47000000000E+01 0.  1.
         11    1    4    4    0    0 -0.18378201471E+02 -0.34647094972E+02  0.90597501318E+02  0.98722270661E+02  0.00000000000E+00 0. -1.
        -12    1    4    4    0    0 -0.30909957884E+02 -0.11891524228E+01 -0.75900836291E+01  0.31850415215E+02  0.00000000000E+00 0.  1.
</event>
<event>
12    1  0.1593360E-001  0.1760988E+03  0.7818608E-02  0.1172079E+00
         21   -1    0    0  503  502  0.00000000000E+00  0.00000000000E+00  0.65295051952E+02  0.65295051952E+02  0.00000000000E+00 0. -1.
         21   -1    0    0  501  503 -0.00000000000E+00 -0.00000000000E+00 -0.91728685293E+03  0.91728685293E+03  0.00000000000E+00 0.  1.
          6    2    1    2  501    0  0.37039297876E+02 -0.22215910200E+01 -0.77011900170E+03  0.78999624506E+03  0.17214512883E+03 0.  0.
         24    2    3    3    0    0  0.19313193843E+02  0.63764969772E+02 -0.54200052499E+03  0.55181864245E+03  0.79374266865E+02 0.  0.
         -6    2    1    2    0  502 -0.37039297876E+02  0.22215910200E+01 -0.81872799281E+02  0.19258565982E+03  0.17032097949E+03 0.  0.
        -24    2    5    5    0    0 -0.65036196704E+02  0.23052115351E+02 -0.24803192570E+01  0.10573525411E+03  0.80079242468E+02 0.  0.
          5    1    3    3  501    0  0.17726104032E+02 -0.65986560792E+02 -0.22811847671E+03  0.23817760261E+03  0.47000000000E+01 0. -1.
        -11    1    4    4    0    0 -0.15416372513E+02  0.48549873201E+02 -0.44106049985E+03  0.44399225134E+03  0.00000000000E+00 0.  1.
         12    1    4    4    0    0  0.34729566357E+02  0.15215096570E+02 -0.10094002514E+03  0.10782639110E+03  0.00000000000E+00 0. -1.
         -5    1    5    5    0  502  0.27996898829E+02 -0.20830524331E+02 -0.79392480024E+02  0.86850405712E+02  0.47000000000E+01 0.  1.
         11    1    6    6    0    0 -0.70607084796E+01 -0.23422414959E+02  0.15919579059E+02  0.29187259621E+02  0.00000000000E+00 0. -1.
        -12    1    6    6    0    0 -0.57975488225E+02  0.46474530309E+02 -0.18399898316E+02  0.76547994490E+02  0.00000000000E+00 0.  1.
</event>
<event>
12    1  0.1593360E-001  0.1796137E+03  0.7818608E-02  0.1168213E+00
         21   -1    0    0  501  502  0.00000000000E+00  0.00000000000E+00  0.32530959141E+03  0.32530959141E+03  0.00000000000E+00 0. -1.
         21   -1    0    0  502  503 -0.00000000000E+00 -0.00000000000E+00 -0.15372435623E+03  0.15372435623E+03  0.00000000000E+00 0. -1.
         -6    2    1    2    0  503 -0.29907418830E+02 -0.43712141244E+02 -0.57021852248E+02  0.18830681298E+03  0.17147232777E+03 0.  0.
        -24    2    3    3    0    0 -0.79792605775E+02 -0.28410199414E+01 -0.54017320946E+02  0.12357584944E+03  0.77318744635E+02 0.  0.
          6    2    1    2  501    0  0.29907418830E+02  0.43712141244E+02  0.22860708743E+03  0.29072713465E+03  0.17162709985E+03 0.  0.
         24    2    5    5    0    0  0.24573204832E+02 -0.33714952665E+02  0.69375561679E+02  0.11352618233E+03  0.79590734930E+02 0.  0.
          5    1    5    5  501    0  0.53342139977E+01  0.77427093909E+02  0.15923152575E+03  0.17720095232E+03  0.47000000000E+01 0. -1.
        -11    1    6    6    0    0  0.51636433101E+02 -0.87483083348E+01  0.33834710583E+02  0.62350956387E+02  0.00000000000E+00 0.  1.
         12    1    6    6    0    0 -0.27063228269E+02 -0.24966644331E+02  0.35540851096E+02  0.51175225941E+02  0.00000000000E+00 0. -1.
         -5    1    3    3    0  503  0.49885186945E+02 -0.40871121302E+02 -0.30045313023E+01  0.64730963545E+02  0.47000000000E+01 0.  1.
         11    1    4    4    0    0 -0.38168300249E+02  0.37164030519E+02 -0.22830517241E+02  0.57958751072E+02  0.00000000000E+00 0. -1.
        -12    1    4    4    0    0 -0.41624305526E+02 -0.40005050461E+02 -0.31186803705E+02  0.65617098368E+02  0.00000000000E+00 0.  1.
</event>
<event>
12    1  0.1593360E-001  0.1752121E+03  0.7818608E-02  0.1172991E+00
         21   -1    0    0  503  502  0.00000000000E+00  0.00000000000E+00  0.22129227811E+03  0.22129227811E+03  0.00000000000E+00 0.  1.
         21   -1    0    0  501  503 -0.00000000000E+00 -0.00000000000E+00 -0.18768917956E+03  0.18768917956E+03  0.00000000000E+00 0.  1.
          6    2    1    2  501    0  0.58510072573E+01 -0.33956213641E+02 -0.89140264854E+02  0.19658402103E+03  0.17179066265E+03 0.  0.
         24    2    3    3    0    0 -0.38709993844E+02 -0.52952456800E+02 -0.11745988525E+02  0.10515916619E+03  0.81351433199E+02 0.  0.
         -6    2    1    2    0  502 -0.58510072573E+01  0.33956213641E+02  0.12274336341E+03  0.21239743664E+03  0.16988077908E+03 0.  0.
        -24    2    5    5    0    0 -0.42210194450E+02  0.58279418158E+02  0.33433800488E+02  0.11283892721E+03  0.80228507292E+02 0.  0.
          5    1    3    3  501    0  0.44561001101E+02  0.18996243158E+02 -0.77394276329E+02  0.91424854836E+02  0.47000000000E+01 0. -1.
        -11    1    4    4    0    0 -0.29424556202E+01 -0.30713589884E+02 -0.42849156429E+02  0.52801826250E+02  0.00000000000E+00 0.  1.
         12    1    4    4    0    0 -0.35767538224E+02 -0.22238866916E+02  0.31103167904E+02  0.52357339944E+02  0.00000000000E+00 0. -1.
         -5    1    5    5    0  502  0.36359187193E+02 -0.24323204517E+02  0.89309562917E+02  0.99558509429E+02  0.47000000000E+01 0.  1.
         11    1    6    6    0    0 -0.62458587357E-01  0.60819957073E+02  0.35754292077E+02  0.70550977891E+02  0.00000000000E+00 0. -1.
        -12    1    6    6    0    0 -0.42147735863E+02 -0.25405389157E+01 -0.23204915886E+01  0.42287949318E+02  0.00000000000E+00 0.  1.
</event>
<event>
12    1  0.1593360E-001  0.2098236E+03  0.7818608E-02  0.1141707E+00
         21   -1    0    0  501  502  0.00000000000E+00  0.00000000000E+00  0.16431443824E+03  0.16431443824E+03  0.00000000000E+00 0.  1.
         21   -1    0    0  502  503 -0.00000000000E+00 -0.00000000000E+00 -0.69315096348E+03  0.69315096348E+03  0.00000000000E+00 0.  1.
         -6    2    1    2    0  503  0.11635395554E+03  0.26900564237E+02 -0.60021619830E+03  0.63583284822E+03  0.17251679004E+03 0.  0.
        -24    2    3    3    0    0  0.12966569556E+03  0.26168305708E+02 -0.60209519173E+03  0.62157244004E+03  0.79597144995E+02 0.  0.
          6    2    1    2  501    0 -0.11635395554E+03 -0.26900564237E+02  0.71379673065E+02  0.22163255350E+03  0.17252260060E+03 0.  0.
         24    2    5    5    0    0 -0.15175630460E+03 -0.35630328838E+02  0.52667120243E+02  0.18037985974E+03  0.73915978818E+02 0.  0.
          5    1    5    5  501    0  0.35402349068E+02  0.87297646014E+01  0.18712552822E+02  0.41252693762E+02  0.47000000000E+01 0. -1.
        -13    1    6    6    0    0 -0.98747971705E+02 -0.58348489565E+02  0.38578915108E+02  0.12101256481E+03  0.00000000000E+00 0.  1.
         14    1    6    6    0    0 -0.53008332900E+02  0.22718160727E+02  0.14088205135E+02  0.59367294932E+02  0.00000000000E+00 0. -1.
         -5    1    3    3    0  503 -0.13311740027E+02  0.73225852887E+00  0.18789934231E+01  0.14260408177E+02  0.47000000000E+01 0.  1.
         13    1    4    4    0    0  0.14745023892E+02 -0.73627524918E+01 -0.14642168535E+02  0.22045837549E+02  0.00000000000E+00 0. -1.
        -14    1    4    4    0    0  0.11492067167E+03  0.33531058199E+02 -0.58745302319E+03  0.59952660249E+03  0.00000000000E+00 0.  1.
</event>
<event>
12    1  0.1593360E-001  0.2050002E+03  0.7818608E-02  0.1145777E+00
         21   -1    0    0  503  502  0.00000000000E+00  0.00000000000E+00  0.60039840801E+03  0.60039840801E+03  0.00000000000E+00 0.  1.
         21   -1    0    0  501  503 -0.00000000000E+00 -0.00000000000E+00 -0.69682101634E+02  0.69682101634E+02  0.00000000000E+00 0.  1.
          6    2    1    2  501    0  0.38716712084E+02 -0.10417844594E+03  0.26407543436E+03  0.33430661162E+03  0.17225836163E+03 0.  0.
         24    2    3    3    0    0  0.66411478281E+01 -0.10823203691E+03  0.26980537623E+03  0.30113741423E+03  0.78297653494E+02 0.  0.
         -6    2    1    2    0  502 -0.38716712084E+02  0.10417844594E+03  0.26664087202E+03  0.33577389802E+03  0.17115672224E+03 0.  0.
        -24    2    5    5    0    0  0.44914523890E+02  0.60504625376E+02  0.14044326285E+03  0.17813661565E+03  0.79562677221E+02 0.  0.
          5    1    3    3  501    0  0.32075564256E+02  0.40535909731E+01 -0.57299418788E+01  0.33169197398E+02  0.47000000000E+01 0. -1.
        -13    1    4    4    0    0  0.15457310456E+01  0.96910593174E+01  0.56561041889E+02  0.57406074371E+02  0.00000000000E+00 0.  1.
         14    1    4    4    0    0  0.50954167826E+01 -0.11792309623E+03  0.21324433435E+03  0.24373133985E+03  0.00000000000E+00 0. -1.
         -5    1    5    5    0  502 -0.83631235974E+02  0.43673820563E+02  0.12619760917E+03  0.15763728237E+03  0.47000000000E+01 0.  1.
         13    1    6    6    0    0  0.11493211153E+02  0.54059234673E+02  0.13194829595E+03  0.14305540032E+03  0.00000000000E+00 0. -1.
        -14    1    6    6    0    0  0.33421312738E+02  0.64453907032E+01  0.84949668999E+01  0.35081215330E+02  0.00000000000E+00 0.  1.
</event>
<event>
12    1  0.1593360E-001  0.1811542E+03  0.7818608E-02  0.1166941E+00
         21   -1    0    0  503  502  0.00000000000E+00  0.00000000000E+00  0.22503944477E+03  0.22503944477E+03  0.00000000000E+00 0.  1.
         21   -1    0    0  501  503 -0.00000000000E+00 -0.00000000000E+00 -0.14499125435E+03  0.14499125435E+03  0.00000000000E+00 0.  1.
          6    2    1    2  501    0  0.51596447447E+02 -0.22710589289E+02  0.39633817923E+02  0.18543914697E+03  0.17215944195E+03 0.  0.
         24    2    3    3    0    0  0.44776764119E+02  0.42189971864E+02 -0.11745119792E+02  0.10224974765E+03  0.80821474403E+02 0.  0.
         -6    2    1    2    0  502 -0.51596447447E+02  0.22710589289E+02  0.40414372495E+02  0.18459155215E+03  0.17106360035E+03 0.  0.
        -24    2    5    5    0    0 -0.74668193113E+02 -0.22096048976E+02  0.57729662474E+02  0.13109529482E+03  0.88259208877E+02 0.  0.
          5    1    3    3  501    0  0.68196833282E+01 -0.64900561153E+02  0.51378937715E+02  0.83189399321E+02  0.47000000000E+01 0. -1.
        -11    1    4    4    0    0  0.40939915943E+02  0.42319608928E+02 -0.41634902544E+02  0.72114430783E+02  0.00000000000E+00 0.  1.
         12    1    4    4    0    0  0.38368481753E+01 -0.12963706377E+00  0.29889782752E+02  0.30135316867E+02  0.00000000000E+00 0. -1.
         -5    1    5    5    0  502  0.23071745666E+02  0.44806638265E+02 -0.17315289979E+02  0.53496257325E+02  0.47000000000E+01 0.  1.
         11    1    6    6    0    0  0.18392059644E+02  0.43779038055E+01  0.19221147504E+02  0.26960831052E+02  0.00000000000E+00 0. -1.
        -12    1    6    6    0    0 -0.93060252757E+02 -0.26473952781E+02  0.38508514971E+02  0.10413446377E+03  0.00000000000E+00 0.  1.
</event>
<event>
12    1  0.1593360E-001  0.1988368E+03  0.7818608E-02  0.1150998E+00
         21   -1    0    0  503  502  0.00000000000E+00  0.00000000000E+00  0.82786294649E+03  0.82786294649E+03  0.00000000000E+00 0.  1.
         21   -1    0    0  501  503 -0.00000000000E+00 -0.00000000000E+00 -0.49236421548E+02  0.49236421548E+02  0.00000000000E+00 0.  1.
          6    2    1    2  501    0 -0.92817177769E+02  0.32435997752E+02  0.47165937825E+03  0.51136050693E+03  0.17134723960E+03 0.  0.
         24    2    3    3    0    0 -0.28303589153E+02 -0.11140568314E+02  0.38562932440E+03  0.39523910326E+03  0.81109601671E+02 0.  0.
         -6    2    1    2    0  502  0.92817177769E+02 -0.32435997752E+02  0.30696714670E+03  0.36573886111E+03  0.17282639537E+03 0.  0.
        -24    2    5    5    0    0 -0.16850199414E+02 -0.37724990523E+02  0.14330190722E+03  0.16860107255E+03  0.78637020062E+02 0.  0.
          5    1    3    3  501    0 -0.64513588617E+02  0.43576566066E+02  0.86030053847E+02  0.11612140367E+03  0.47000000000E+01 0. -1.
        -11    1    4    4    0    0  0.10984007687E+02 -0.12436670337E+02  0.14505343913E+02  0.22039151435E+02  0.00000000000E+00 0.  1.
         12    1    4    4    0    0 -0.39287596839E+02  0.12961020229E+01  0.37112398049E+03  0.37319995182E+03  0.00000000000E+00 0. -1.
         -5    1    5    5    0  502  0.10966737718E+03  0.52889927713E+01  0.16366523948E+03  0.19713778856E+03  0.47000000000E+01 0.  1.
         13    1    6    6    0    0  0.93746722779E+01 -0.50719738897E+02  0.12183910457E+03  0.13230700585E+03  0.00000000000E+00 0. -1.
        -14    1    6    6    0    0 -0.26224871692E+02  0.12994748374E+02  0.21462802645E+02  0.36294066705E+02  0.00000000000E+00 0.  1.
</event>
<event>
12    1  0.1593360E-001  0.2145977E+03  0.7818608E-02  0.1138203E+00
         21   -1    0    0  503  502  0.00000000000E+00  0.00000000000E+00  0.17106810471E+03  0.17106810471E+03  0.00000000000E+00 0.  1.
         21   -1    0    0  501  503 -0.00000000000E+00 -0.00000000000E+00 -0.28595960101E+03  0.28595960101E+03  0.00000000000E+00 0.  1.
          6    2    1    2  501    0 -0.52473895704E+02 -0.11593295087E+03 -0.11499742289E+03  0.24243000257E+03  0.17132991579E+03 0.  0.
         24    2    3    3    0    0 -0.65549540691E+02 -0.90505850890E+02 -0.14577866005E+03  0.20015608074E+03  0.79517215752E+02 0.  0.
         -6    2    1    2    0  502  0.52473895704E+02  0.11593295087E+03  0.10592659487E+00  0.21459770315E+03  0.17279526657E+03 0.  0.
        -24    2    5    5    0    0  0.21584907561E+02  0.15308244930E+02 -0.49669913437E+02  0.98067941780E+02  0.80311707159E+02 0.  0.
          5    1    3    3  501    0  0.13075644987E+02 -0.25427099982E+02  0.30781237160E+02  0.42273921825E+02  0.47000000000E+01 0. -1.
        -11    1    4    4    0    0 -0.64456507503E+02 -0.94112875391E+02 -0.92817791565E+02  0.14706126990E+03  0.00000000000E+00 0.  1.
         12    1    4    4    0    0 -0.10930331881E+01  0.36070245005E+01 -0.52960868486E+02  0.53094810840E+02  0.00000000000E+00 0. -1.
         -5    1    5    5    0  502  0.30888988143E+02  0.10062470594E+03  0.49775840032E+02  0.11652976137E+03  0.47000000000E+01 0.  1.
         13    1    6    6    0    0  0.49661933183E+02  0.21303792415E+02 -0.41743519637E+02  0.68283823929E+02  0.00000000000E+00 0. -1.
        -14    1    6    6    0    0 -0.28077025623E+02 -0.59955474846E+01 -0.79263938007E+01  0.29784117851E+02  0.00000000000E+00 0.  1.
</event>
<event>
12    1  0.1593360E-001  0.1837829E+03  0.7818608E-02  0.1165028E+00
         21   -1    0    0  503  502  0.00000000000E+00  0.00000000000E+00  0.14265652187E+03  0.14265652187E+03  0.00000000000E+00 0.  1.
         21   -1    0    0  501  503 -0.00000000000E+00 -0.00000000000E+00 -0.56124440735E+03  0.56124440735E+03  0.00000000000E+00 0.  1.
          6    2    1    2  501    0  0.20637047729E+02  0.56211366413E+02 -0.47791249255E+03  0.51078032781E+03  0.17003113624E+03 0.  0.
         24    2    3    3    0    0 -0.48754889227E+02  0.37200554255E+02 -0.25639310926E+03  0.27782200736E+03  0.87673946177E+02 0.  0.
         -6    2    1    2    0  502 -0.20637047729E+02 -0.56211366413E+02  0.59324607072E+02  0.19312060140E+03  0.17375428694E+03 0.  0.
        -24    2    5    5    0    0 -0.67493171693E+02 -0.77828764659E+02  0.52684579883E+02  0.14088088260E+03  0.80368608861E+02 0.  0.
          5    1    3    3  501    0  0.69391936956E+02  0.19010812159E+02 -0.22151938329E+03  0.23295832045E+03  0.47000000000E+01 0. -1.
        -13    1    4    4    0    0 -0.57858470864E+02  0.24317454759E+02 -0.25427446143E+03  0.26190540849E+03  0.00000000000E+00 0.  1.
         14    1    4    4    0    0  0.91035816368E+01  0.12883099495E+02 -0.21186478280E+01  0.15916598878E+02  0.00000000000E+00 0. -1.
         -5    1    5    5    0  502  0.46856123964E+02  0.21617398246E+02  0.66400271891E+01  0.52239718806E+02  0.47000000000E+01 0.  1.
         13    1    6    6    0    0 -0.48218793308E+02  0.75388195533E+00  0.94483493878E+01  0.49141547312E+02  0.00000000000E+00 0. -1.
        -14    1    6    6    0    0 -0.19274378385E+02 -0.78582646615E+02  0.43236230495E+02  0.91739335285E+02  0.00000000000E+00 0.  1.
</event>
<event>
12    1  0.1593360E-001  0.1777439E+03  0.7818608E-02  0.1170460E+00
         21   -1    0    0  503  502  0.00000000000E+00  0.00000000000E+00  0.16404761984E+03  0.16404761984E+03  0.00000000000E+00 0. -1.
         21   -1    0    0  501  503 -0.00000000000E+00 -0.00000000000E+00 -0.29133433069E+03  0.29133433069E+03  0.00000000000E+00 0. -1.
          6    2    1    2  501    0  0.44203363786E+02  0.22914528113E+01 -0.19774949798E+03  0.26589050196E+03  0.17214443631E+03 0.  0.
         24    2    3    3    0    0  0.76141810085E+02  0.97094047774E+00 -0.20517359580E+03  0.23273910178E+03  0.79200802494E+02 0.  0.
         -6    2    1    2    0  502 -0.44203363786E+02 -0.22914528113E+01  0.70462787131E+02  0.18949144857E+03  0.17024340394E+03 0.  0.
        -24    2    5    5    0    0 -0.16203154905E+02  0.62394221850E+02  0.24594315315E+02  0.10526404857E+03  0.79498795131E+02 0.  0.
          5    1    3    3  501    0 -0.31938446299E+02  0.13205123336E+01  0.74240978237E+01  0.33151400171E+02  0.47000000000E+01 0. -1.
        -13    1    4    4    0    0  0.48024266052E+02  0.22653096852E+02 -0.47913956994E+02  0.71520907445E+02  0.00000000000E+00 0.  1.
         14    1    4    4    0    0  0.28117544032E+02 -0.21682156374E+02 -0.15725963881E+03  0.16121819434E+03  0.00000000000E+00 0. -1.
         -5    1    5    5    0  502 -0.28000208881E+02 -0.64685674661E+02  0.45868471816E+02  0.84227399998E+02  0.47000000000E+01 0.  1.
         13    1    6    6    0    0  0.77541391502E+01  0.22531370815E+01 -0.23349643172E+02  0.24706459417E+02  0.00000000000E+00 0. -1.
        -14    1    6    6    0    0 -0.23957294055E+02  0.60141084768E+02  0.47943958487E+02  0.80557589158E+02  0.00000000000E+00 0.  1.
</event>
<event>
12    1  0.1593360E-001  0.2110976E+03  0.7818608E-02  0.1140893E+00
         21   -1    0    0  503  502  0.00000000000E+00  0.00000000000E+00  0.95723914476E+02  0.95723914476E+02  0.00000000000E+00 0.  1.
         21   -1    0    0  501  503 -0.00000000000E+00 -0.00000000000E+00 -0.54227551286E+03  0.54227551286E+03  0.00000000000E+00 0.  1.
          6    2    1    2  501    0  0.12188587656E+03 -0.59817186225E+01 -0.10114158850E+03  0.23319048188E+03  0.17104453237E+03 0.  0.
         24    2    3    3    0    0  0.92245166481E+02  0.16289614415E+02 -0.13525004441E+03  0.18259343914E+03  0.79203959665E+02 0.  0.
         -6    2    1    2    0  502 -0.12188587656E+03  0.59817186225E+01 -0.34541000988E+03  0.40480894545E+03  0.17225057191E+03 0.  0.
        -24    2    5    5    0    0 -0.82035903473E+02  0.48910745049E+02 -0.31588777207E+03  0.33904745071E+03  0.77755635477E+02 0.  0.
          5    1    3    3  501    0  0.29640710082E+02 -0.22271333038E+02  0.34108455916E+02  0.50597042744E+02  0.47000000000E+01 0. -1.
        -13    1    4    4    0    0  0.10146024914E+03  0.16191233837E+02 -0.90543479292E+02  0.13694692348E+03  0.00000000000E+00 0.  1.
         14    1    4    4    0    0 -0.92150826565E+01  0.98380578217E-01 -0.44706565120E+02  0.45646515661E+02  0.00000000000E+00 0. -1.
         -5    1    5    5    0  502 -0.39849973090E+02 -0.42929026427E+02 -0.29522237817E+02  0.65761494744E+02  0.47000000000E+01 0.  1.
         11    1    6    6    0    0 -0.23811371827E+02  0.14942274077E+02 -0.17440205770E+02  0.33081924977E+02  0.00000000000E+00 0. -1.
        -12    1    6    6    0    0 -0.58224531646E+02  0.33968470972E+02 -0.29844756630E+03  0.30596552573E+03  0.00000000000E+00 0.  1.
</event>
<event>
12    1  0.1593360E-001  0.1848485E+03  0.7818608E-02  0.1163564E+00
         21   -1    0    0  501  502  0.00000000000E+00  0.00000000000E+00  0.39344914555E+03  0.39344914555E+03  0.00000000000E+00 0.  1.
         21   -1    0    0  502  503 -0.00000000000E+00 -0.00000000000E+00 -0.20843215792E+03  0.20843215792E+03  0.00000000000E+00 0.  1.
         -6    2    1    2    0  503 -0.51747336552E+02  0.42115191949E+02 -0.13820637433E+03  0.22953429918E+03  0.17068543102E+03 0.  0.
        -24    2    3    3    0    0 -0.76637630294E+02  0.65630034550E+02 -0.56985272158E+02  0.14126521069E+03  0.80795486857E+02 0.  0.
          6    2    1    2  501    0  0.51747336552E+02 -0.42115191949E+02  0.32322336196E+03  0.37234700429E+03  0.17238756815E+03 0.  0.
         24    2    5    5    0    0  0.91087245856E+02 -0.58971556152E+02  0.19892452265E+03  0.24080211867E+03  0.81487200548E+02 0.  0.
          5    1    5    5  501    0 -0.39339909305E+02  0.16856364203E+02  0.12429883931E+03  0.13154488562E+03  0.47000000000E+01 0. -1.
        -13    1    6    6    0    0  0.31568315311E+02  0.73825265214E+01  0.11084571212E+03  0.11548953253E+03  0.00000000000E+00 0.  1.
         14    1    6    6    0    0  0.59518930545E+02 -0.66354082674E+02  0.88078810531E+02  0.12531258614E+03  0.00000000000E+00 0. -1.
         -5    1    3    3    0  503  0.24890293742E+02 -0.23514842601E+02 -0.81221102170E+02  0.88269088490E+02  0.47000000000E+01 0.  1.
         13    1    4    4    0    0 -0.23140953350E+02  0.49077300042E+02  0.86965024564E+01  0.54951926775E+02  0.00000000000E+00 0. -1.
        -14    1    4    4    0    0 -0.53496676944E+02  0.16552734508E+02 -0.65681774614E+02  0.86313283915E+02  0.00000000000E+00 0.  1.
</event>
<event>
12    1  0.1593360E-001  0.2113959E+03  0.7818608E-02  0.1141438E+00
         21   -1    0    0  503  502  0.00000000000E+00  0.00000000000E+00  0.16647388567E+03  0.16647388567E+03  0.00000000000E+00 0. -1.
         21   -1    0    0  501  503 -0.00000000000E+00 -0.00000000000E+00 -0.32969922141E+03  0.32969922141E+03  0.00000000000E+00 0. -1.
          6    2    1    2  501    0 -0.11443657904E+03  0.30586021901E+02 -0.19456732756E+03  0.28730584883E+03  0.17509132035E+03 0.  0.
         24    2    3    3    0    0 -0.67542978534E+00  0.39634716716E+02 -0.12776393422E+03  0.15498706211E+03  0.78268764905E+02 0.  0.
         -6    2    1    2    0  502  0.11443657904E+03 -0.30586021901E+02  0.31341991818E+02  0.20886725824E+03  0.16915074861E+03 0.  0.
        -24    2    5    5    0    0  0.27429043655E+02 -0.40661005536E+01  0.68009337064E+02  0.11068272968E+03  0.82804052503E+02 0.  0.
          5    1    3    3  501    0 -0.11376114926E+03 -0.90486948142E+01 -0.66803393333E+02  0.13231878672E+03  0.47000000000E+01 0. -1.
        -13    1    4    4    0    0  0.13212154442E+02 -0.20540626994E+02 -0.50322789222E+02  0.55936227057E+02  0.00000000000E+00 0.  1.
         14    1    4    4    0    0 -0.13887584228E+02  0.60175343709E+02 -0.77441145001E+02  0.99050835056E+02  0.00000000000E+00 0. -1.
         -5    1    5    5    0  502  0.87007535389E+02 -0.26519921348E+02 -0.36667345245E+02  0.98184528568E+02  0.47000000000E+01 0.  1.
         13    1    6    6    0    0 -0.12120771918E+02 -0.27975848140E+02  0.26076817067E+01  0.30600019525E+02  0.00000000000E+00 0. -1.
        -14    1    6    6    0    0  0.39549815573E+02  0.23909747587E+02  0.65401655357E+02  0.80082710150E+02  0.00000000000E+00 0.  1.
</event>
<event>
12    1  0.1593360E-001  0.1768324E+03  0.7818608E-02  0.1171505E+00
         21   -1    0    0  503  502  0.00000000000E+00  0.00000000000E+00  0.85350094859E+03  0.85350094859E+03  0.00000000000E+00 0. -1.
         21   -1    0    0  501  503 -0.00000000000E+00 -0.00000000000E+00 -0.36585906634E+02  0.36585906634E+02  0.00000000000E+00 0. -1.
          6    2    1    2  501    0  0.20418732687E+02 -0.31770668852E+02  0.36208648416E+03  0.40295943397E+03  0.17275237587E+03 0.  0.
         24    2    3    3    0    0  0.40409248028E+02  0.30325746908E+02  0.12730008224E+03  0.15923350166E+03  0.81224619792E+02 0.  0.
         -6    2    1    2    0  502 -0.20418732687E+02  0.31770668852E+02  0.45482855780E+03  0.48712742126E+03  0.17028742616E+03 0.  0.
        -24    2    5    5    0    0  0.10652575341E+02  0.82035446279E+02  0.28714248102E+03  0.30927162468E+03  0.79717260464E+02 0.  0.
          5    1    3    3  501    0 -0.19990515342E+02 -0.62096415760E+02  0.23478640192E+03  0.24372593231E+03  0.47000000000E+01 0. -1.
        -13    1    4    4    0    0 -0.12514088074E+02  0.21793670428E+02  0.91213403166E+02  0.94612110156E+02  0.00000000000E+00 0.  1.
         14    1    4    4    0    0  0.52923336102E+02  0.85320764804E+01  0.36086679077E+02  0.64621391505E+02  0.00000000000E+00 0. -1.
         -5    1    5    5    0  502 -0.31071308027E+02 -0.50264777426E+02  0.16768607677E+03  0.17785579658E+03  0.47000000000E+01 0.  1.
         11    1    6    6    0    0  0.39949231178E+02  0.72994612089E+02  0.22687641554E+03  0.24165484144E+03  0.00000000000E+00 0. -1.
        -12    1    6    6    0    0 -0.29296655837E+02  0.90408341892E+01  0.60266065486E+02  0.67616783236E+02  0.00000000000E+00 0.  1.
</event>
<event>
12    1  0.1593360E-001  0.1889960E+03  0.7818608E-02  0.1159473E+00
         21   -1    0    0  501  502  0.00000000000E+00  0.00000000000E+00  0.11904101330E+03  0.11904101330E+03  0.00000000000E+00 0.  1.
         21   -1    0    0  502  503 -0.00000000000E+00 -0.00000000000E+00 -0.35103359451E+03  0.35103359451E+03  0.00000000000E+00 0.  1.
         -6    2    1    2    0  503  0.65615646988E+02 -0.40920651573E+02 -0.25922824827E+02  0.19076548121E+03  0.17245162545E+03 0.  0.
        -24    2    3    3    0    0  0.14729156932E+02 -0.87734866900E+01 -0.76433843459E+02  0.11204872262E+03  0.80117798785E+02 0.  0.
          6    2    1    2  501    0 -0.65615646988E+02  0.40920651573E+02 -0.20606975638E+03  0.27930912659E+03  0.17195618874E+03 0.  0.
         24    2    5    5    0    0 -0.11010119344E+03  0.50167493036E+02 -0.15713911618E+03  0.21237060651E+03  0.75957373062E+02 0.  0.
          5    1    5    5  501    0  0.44485546447E+02 -0.92468414639E+01 -0.48930640207E+02  0.66938520082E+02  0.47000000000E+01 0. -1.
        -13    1    6    6    0    0 -0.50693223116E+02  0.35009600381E+02 -0.13281972543E+03  0.14641227562E+03  0.00000000000E+00 0.  1.
         14    1    6    6    0    0 -0.59407970319E+02  0.15157892656E+02 -0.24319390744E+02  0.65958330887E+02  0.00000000000E+00 0. -1.
         -5    1    3    3    0  503  0.50886490056E+02 -0.32147164883E+02  0.50511018632E+02  0.78716758594E+02  0.47000000000E+01 0.  1.
         11    1    4    4    0    0 -0.57396261313E+01 -0.39271158011E+02 -0.59695198319E+02  0.71684613845E+02  0.00000000000E+00 0. -1.
        -12    1    4    4    0    0  0.20468783063E+02  0.30497671321E+02 -0.16738645140E+02  0.40364108775E+02  0.00000000000E+00 0.  1.
</event>
<event>
12    1  0.1593360E-001  0.2112727E+03  0.7818608E-02  0.1140746E+00
         21   -1    0    0  503  502  0.00000000000E+00  0.00000000000E+00  0.23384564419E+02  0.23384564419E+02  0.00000000000E+00 0. -1.
         21   -1    0    0  501  503 -0.00000000000E+00 -0.00000000000E+00 -0.20508777928E+04  0.20508777928E+04  0.00000000000E+00 0. -1.
          6    2    1    2  501    0 -0.68301754409E+02 -0.10292333135E+03 -0.12968217647E+04  0.13139188818E+04  0.17139952412E+03 0.  0.
         24    2    3    3    0    0 -0.35599534768E+02 -0.50416559194E+02 -0.33254268193E+03  0.34764633449E+03  0.80400138465E+02 0.  0.
         -6    2    1    2    0  502  0.68301754409E+02  0.10292333135E+03 -0.73067146375E+03  0.76034347544E+03  0.17024415091E+03 0.  0.
        -24    2    5    5    0    0 -0.10450162778E+02  0.48725300084E+02 -0.52597841816E+03  0.53437749577E+03  0.80141442788E+02 0.  0.
          5    1    3    3  501    0 -0.32702219641E+02 -0.52506772160E+02 -0.96427908274E+03  0.96627254732E+03  0.47000000000E+01 0. -1.
        -13    1    4    4    0    0  0.18949893171E+02  0.79423969751E+01 -0.50809555848E+02  0.54806852549E+02  0.00000000000E+00 0.  1.
         14    1    4    4    0    0 -0.54549427939E+02 -0.58358956169E+02 -0.28173312608E+03  0.29283948194E+03  0.00000000000E+00 0. -1.
         -5    1    5    5    0  502  0.78751917187E+02  0.54198031271E+02 -0.20469304559E+03  0.22596597967E+03  0.47000000000E+01 0.  1.
         11    1    6    6    0    0 -0.14692099859E+01  0.56737069202E+02 -0.19276387341E+03  0.20094567547E+03  0.00000000000E+00 0. -1.
        -12    1    6    6    0    0 -0.89809527917E+01 -0.80117691185E+01 -0.33321454475E+03  0.33343182030E+03  0.00000000000E+00 0.  1.
</event>
<event>
12    1  0.1593360E-001  0.1772755E+03  0.7818608E-02  0.1171046E+00
         21   -1    0    0  503  502  0.00000000000E+00  0.00000000000E+00  0.90646367589E+03  0.90646367589E+03  0.00000000000E+00 0. -1.
         21   -1    0    0  501  503 -0.00000000000E+00 -0.00000000000E+00 -0.18813981243E+03  0.18813981243E+03  0.00000000000E+00 0. -1.
          6    2    1    2  501    0  0.38347969496E+02 -0.77049407517E+01 -0.13544444397E+03  0.22309593840E+03  0.17290652808E+03 0.  0.
         24    2    3    3    0    0  0.35626018170E+01 -0.67524841551E+02 -0.10005080644E+03  0.14522911675E+03  0.80678597695E+02 0.  0.
         -6    2    1    2    0  502 -0.38347969496E+02  0.77049407517E+01  0.85376830743E+03  0.87150754992E+03  0.17051438036E+03 0.  0.
        -24    2    5    5    0    0 -0.84704763779E+02  0.19369853618E+02  0.68630569399E+03  0.69729262671E+03  0.87472358034E+02 0.  0.
          5    1    3    3  501    0  0.34785367679E+02  0.59819900799E+02 -0.35393637535E+02  0.77866821652E+02  0.47000000000E+01 0. -1.
        -13    1    4    4    0    0  0.14546802033E+02 -0.50405327034E+02 -0.10635709976E+02  0.53529662519E+02  0.00000000000E+00 0.  1.
         14    1    4    4    0    0 -0.10984200216E+02 -0.17119514517E+02 -0.89415096460E+02  0.91699454233E+02  0.00000000000E+00 0. -1.
         -5    1    5    5    0  502  0.46356794282E+02 -0.11664912867E+02  0.16746261344E+03  0.17421492321E+03  0.47000000000E+01 0.  1.
         11    1    6    6    0    0 -0.25258448384E+02  0.43353643953E+02  0.43726870290E+03  0.44013798540E+03  0.00000000000E+00 0. -1.
        -12    1    6    6    0    0 -0.59446315395E+02 -0.23983790334E+02  0.24903699110E+03  0.25715464131E+03  0.00000000000E+00 0.  1.
</event>
<event>
12    1  0.1593360E-001  0.1782270E+03  0.7818608E-02  0.1169762E+00
         21   -1    0    0  501  502  0.00000000000E+00  0.00000000000E+00  0.11519597774E+04  0.11519597774E+04  0.00000000000E+00 0.  1.
         21   -1    0    0  502  503 -0.00000000000E+00 -0.00000000000E+00 -0.27429875723E+02  0.27429875723E+02  0.00000000000E+00 0.  1.
         -6    2    1    2    0  503  0.21414221791E+02 -0.35532649481E+02  0.56401321508E+03  0.59121977300E+03  0.17236233674E+03 0.  0.
        -24    2    3    3    0    0 -0.66021217411E+01 -0.34895332376E+02  0.55150702316E+03  0.56017437858E+03  0.91509920748E+02 0.  0.
          6    2    1    2  501    0 -0.21414221791E+02  0.35532649481E+02  0.56051668657E+03  0.58816988010E+03  0.17333122585E+03 0.  0.
         24    2    5    5    0    0  0.16313684157E+02  0.85726722038E+02  0.38795611320E+03  0.40447970266E+03  0.74018085134E+02 0.  0.
          5    1    5    5  501    0 -0.37727905949E+02 -0.50194072557E+02  0.17256057337E+03  0.18369017744E+03  0.47000000000E+01 0. -1.
        -11    1    6    6    0    0 -0.24826451637E+02  0.13578654123E+02  0.14456378294E+03  0.14730722958E+03  0.00000000000E+00 0.  1.
         12    1    6    6    0    0  0.41140135794E+02  0.72148067916E+02  0.24339233026E+03  0.25717247308E+03  0.00000000000E+00 0. -1.
         -5    1    3    3    0  503  0.28016343532E+02 -0.63731710518E+00  0.12506191919E+02  0.31045394414E+02  0.47000000000E+01 0.  1.
         13    1    4    4    0    0 -0.39595873839E+02 -0.34302782788E+01  0.12330458666E+03  0.12955161568E+03  0.00000000000E+00 0. -1.
        -14    1    4    4    0    0  0.32993752098E+02 -0.31465054097E+02  0.42820243650E+03  0.43062276290E+03  0.00000000000E+00 0.  1.
</event>
<event>
12    1  0.1593360E-001  0.1867726E+03  0.7818608E-02  0.1161885E+00
         21   -1    0    0  501  502  0.00000000000E+00  0.00000000000E+00  0.15785570522E+02  0.15785570522E+02  0.00000000000E+00 0. -1.
         21   -1    0    0  502  503 -0.00000000000E+00 -0.00000000000E+00 -0.33972950806E+04  0.33972950806E+04  0.00000000000E+00 0.  1.
         -6    2    1    2    0  503 -0.66544465055E+02 -0.11461538873E+02 -0.27160501351E+04  0.27224643870E+04  0.17413922408E+03 0.  0.
        -24    2    3    3    0    0 -0.19270759776E+02  0.24337058759E+02 -0.23497598005E+04  0.23513753923E+04  0.81433780366E+02 0.  0.
          6    2    1    2  501    0  0.66544465055E+02  0.11461538873E+02 -0.66545937493E+03  0.69061626408E+03  0.17191600225E+03 0.  0.
         24    2    5    5    0    0  0.59659752032E+02  0.50220746100E+02 -0.62138285059E+03  0.63133299987E+03  0.79895559063E+02 0.  0.
          5    1    5    5  501    0  0.68847130236E+01 -0.38759207228E+02 -0.44076524337E+02  0.59283264214E+02  0.47000000000E+01 0. -1.
        -11    1    6    6    0    0  0.29926047632E+02  0.43719920672E+01 -0.45912891495E+03  0.46012394329E+03  0.00000000000E+00 0.  1.
         12    1    6    6    0    0  0.29733704399E+02  0.45848754033E+02 -0.16225393564E+03  0.17120905658E+03  0.00000000000E+00 0. -1.
         -5    1    3    3    0  503 -0.47273705279E+02 -0.35798597632E+02 -0.36629033460E+03  0.37108899475E+03  0.47000000000E+01 0.  1.
         11    1    4    4    0    0 -0.36095844126E+02  0.14892109870E+02 -0.50249660366E+03  0.50401143002E+03  0.00000000000E+00 0. -1.
        -12    1    4    4    0    0  0.16825084349E+02  0.94449488894E+01 -0.18472631969E+04  0.18473639623E+04  0.00000000000E+00 0.  1.
</event>
<event>
12    1  0.1593360E-001  0.1801930E+03  0.7818608E-02  0.1167814E+00
         21   -1    0    0  501  502  0.00000000000E+00  0.00000000000E+00  0.67089262085E+03  0.67089262085E+03  0.00000000000E+00 0.  1.
         21   -1    0    0  502  503 -0.00000000000E+00 -0.00000000000E+00 -0.55144256631E+02  0.55144256631E+02  0.00000000000E+00 0.  1.
         -6    2    1    2    0  503  0.30798747786E+02  0.43157845000E+02  0.17823973187E+03  0.25287378663E+03  0.17136098592E+03 0.  0.
        -24    2    3    3    0    0  0.46793925092E+02 -0.20619974087E+02  0.15842423723E+03  0.18403920424E+03  0.78468688019E+02 0.  0.
          6    2    1    2  501    0 -0.30798747786E+02 -0.43157845000E+02  0.43750863234E+03  0.47316309085E+03  0.17221598276E+03 0.  0.
         24    2    5    5    0    0  0.17003141159E+01 -0.80440317866E+02  0.19600829445E+03  0.22660544037E+03  0.80356943105E+02 0.  0.
          5    1    5    5  501    0 -0.32499061902E+02  0.37282472866E+02  0.24150033789E+03  0.24655765048E+03  0.47000000000E+01 0. -1.
        -13    1    6    6    0    0  0.35164515467E+02 -0.39027153506E+02  0.55846423333E+02  0.76671277920E+02  0.00000000000E+00 0.  1.
         14    1    6    6    0    0 -0.33464201351E+02 -0.41413164360E+02  0.14016187111E+03  0.14993416245E+03  0.00000000000E+00 0. -1.
         -5    1    3    3    0  503 -0.15995177306E+02  0.63777819087E+02  0.19815494643E+02  0.68834582388E+02  0.47000000000E+01 0.  1.
         11    1    4    4    0    0 -0.17540814075E+02 -0.15622227240E+02  0.74870004499E+02  0.78468157338E+02  0.00000000000E+00 0. -1.
        -12    1    4    4    0    0  0.64334739167E+02 -0.49977468463E+01  0.83554232730E+02  0.10557104690E+03  0.00000000000E+00 0.  1.
</event>
<event>
12    1  0.1593360E-001  0.1718509E+03  0.7818608E-02  0.1176569E+00
         21   -1    0    0  503  502  0.00000000000E+00  0.00000000000E+00  0.12992768349E+03  0.12992768349E+03  0.00000000000E+00 0.  1.
         21   -1    0    0  501  503 -0.00000000000E+00 -0.00000000000E+00 -0.39584980939E+03  0.39584980939E+03  0.00000000000E+00 0.  1.
          6    2    1    2  501    0  0.10501132212E+02 -0.14422117177E+01 -0.30559981889E+03  0.34940553395E+03  0.16905804949E+03 0.  0.
         24    2    3    3    0    0 -0.17422017434E+02 -0.59777889309E+02 -0.21920629640E+03  0.24138384958E+03  0.79610550266E+02 0.  0.
         -6    2    1    2    0  502 -0.10501132212E+02  0.14422117177E+01  0.39677692982E+02  0.17637195893E+03  0.17152374420E+03 0.  0.
        -24    2    5    5    0    0 -0.19514865750E+02 -0.57759878700E+02 -0.90249525992E+01  0.99040383309E+02  0.77527505983E+02 0.  0.
          5    1    3    3  501    0  0.27923149646E+02  0.58335677592E+02 -0.86393522482E+02  0.10802168437E+03  0.47000000000E+01 0. -1.
        -13    1    4    4    0    0  0.23702318231E+02 -0.34419225646E+02 -0.15785104188E+03  0.16328941915E+03  0.00000000000E+00 0.  1.
         14    1    4    4    0    0 -0.41124335665E+02 -0.25358663663E+02 -0.61355254521E+02  0.78094430428E+02  0.00000000000E+00 0. -1.
         -5    1    5    5    0  502  0.90137335375E+01  0.59202090418E+02  0.48702645581E+02  0.77331575625E+02  0.47000000000E+01 0.  1.
         11    1    6    6    0    0  0.29527939252E+02 -0.24132307910E+02 -0.10512902718E+02  0.39557408978E+02  0.00000000000E+00 0. -1.
        -12    1    6    6    0    0 -0.49042805001E+02 -0.33627570790E+02  0.14879501192E+01  0.59482974331E+02  0.00000000000E+00 0.  1.
</event>
<event>
12    1  0.1593360E-001  0.1996737E+03  0.7818608E-02  0.1150036E+00
         21   -1    0    0  503  502  0.00000000000E+00  0.00000000000E+00  0.17519031807E+03  0.17519031807E+03  0.00000000000E+00 0.  1.
         21   -1    0    0  501  503 -0.00000000000E+00 -0.00000000000E+00 -0.24373269435E+03  0.24373269435E+03  0.00000000000E+00 0.  1.
          6    2    1    2  501    0 -0.10053097170E+03  0.91632484749E+01 -0.88395301892E+02  0.21836511050E+03  0.17227637880E+03 0.  0.
         24    2    3    3    0    0 -0.12193739327E+03  0.42643166903E+02 -0.44042745771E+02  0.15862919955E+03  0.80847337218E+02 0.  0.
         -6    2    1    2    0  502  0.10053097170E+03 -0.91632484749E+01  0.19852925612E+02  0.20055790191E+03  0.17215949573E+03 0.  0.
        -24    2    5    5    0    0  0.10221115968E+03 -0.36759440643E+02 -0.34350940476E+02  0.13952904028E+03  0.80560463819E+02 0.  0.
          5    1    3    3  501    0  0.21406421563E+02 -0.33479918429E+02 -0.44352556121E+02  0.59735910946E+02  0.47000000000E+01 0. -1.
        -13    1    4    4    0    0 -0.41694854956E+02  0.34249842456E+02  0.17967970501E+02  0.56871439247E+02  0.00000000000E+00 0.  1.
         14    1    4    4    0    0 -0.80242538309E+02  0.83933244472E+01 -0.62010716272E+02  0.10175776030E+03  0.00000000000E+00 0. -1.
         -5    1    5    5    0  502 -0.16801879729E+01  0.27596192168E+02  0.54203866088E+02  0.61028861636E+02  0.47000000000E+01 0.  1.
         11    1    6    6    0    0 -0.83830451553E+01 -0.81039356796E+01  0.11545127132E+02  0.16408509380E+02  0.00000000000E+00 0. -1.
        -12    1    6    6    0    0  0.11059420483E+03 -0.28655504963E+02 -0.45896067608E+02  0.12312053090E+03  0.00000000000E+00 0.  1.
</event>
<event>
12    1  0.1593360E-001  0.2509523E+03  0.7818608E-02  0.1112811E+00
         21   -1    0    0  501  502  0.00000000000E+00  0.00000000000E+00  0.19063655612E+03  0.19063655612E+03  0.00000000000E+00 0. -1.
         21   -1    0    0  502  503 -0.00000000000E+00 -0.00000000000E+00 -0.52975211987E+03  0.52975211987E+03  0.00000000000E+00 0.  1.
         -6    2    1    2    0  503  0.72302192068E+01 -0.18219362135E+03 -0.39117874429E+03  0.46475572377E+03  0.17242471131E+03 0.  0.
        -24    2    3    3    0    0 -0.44172278660E+02 -0.13030261372E+03 -0.17488555783E+03  0.23641447484E+03  0.79855395752E+02 0.  0.
          6    2    1    2  501    0 -0.72302192068E+01  0.18219362135E+03  0.52063180538E+02  0.25563295221E+03  0.17143756810E+03 0.  0.
         24    2    5    5    0    0 -0.12488496457E+02  0.88626223342E+02  0.93878076750E+02  0.15290475260E+03  0.80970365353E+02 0.  0.
          5    1    5    5  501    0  0.52582772499E+01  0.93567398009E+02 -0.41814896212E+02  0.10272819961E+03  0.47000000000E+01 0. -1.
        -11    1    6    6    0    0 -0.90071556952E+00  0.30081278242E+01 -0.14196621480E+02  0.14539744943E+02  0.00000000000E+00 0.  1.
         12    1    6    6    0    0 -0.11587780887E+02  0.85618095518E+02  0.10807469823E+03  0.13836500766E+03  0.00000000000E+00 0. -1.
         -5    1    3    3    0  503  0.51402497866E+02 -0.51891007634E+02 -0.21629318645E+03  0.22834124894E+03  0.47000000000E+01 0.  1.
         11    1    4    4    0    0 -0.24105334873E+02 -0.11332012832E+03 -0.87570422054E+02  0.14522774346E+03  0.00000000000E+00 0. -1.
        -12    1    4    4    0    0 -0.20066943787E+02 -0.16982485396E+02 -0.87315135777E+02  0.91186731376E+02  0.00000000000E+00 0.  1.
</event>
<event>
12    1  0.1593360E-001  0.3265209E+03  0.7818608E-02  0.1072744E+00
         21   -1    0    0  503  502  0.00000000000E+00  0.00000000000E+00  0.29340825856E+03  0.29340825856E+03  0.00000000000E+00 0. -1.
         21   -1    0    0  501  503 -0.00000000000E+00 -0.00000000000E+00 -0.37325705451E+03  0.37325705451E+03  0.00000000000E+00 0.  1.
          6    2    1    2  501    0 -0.11468316770E+03 -0.25237575889E+03  0.15877999733E+02  0.32640146704E+03  0.17158104262E+03 0.  0.
         24    2    3    3    0    0 -0.51980642741E+02 -0.16487626740E+03 -0.53379351710E+02  0.19831384713E+03  0.81196403881E+02 0.  0.
         -6    2    1    2    0  502  0.11468316770E+03  0.25237575889E+03 -0.95726795686E+02  0.34026384602E+03  0.17254017755E+03 0.  0.
        -24    2    5    5    0    0  0.20039340892E+02  0.11511825946E+03 -0.10019086330E+03  0.17341333508E+03  0.79876071831E+02 0.  0.
          5    1    3    3  501    0 -0.62702524954E+02 -0.87499491492E+02  0.69257351443E+02  0.12808761992E+03  0.47000000000E+01 0. -1.
        -11    1    4    4    0    0 -0.51974469553E+02 -0.38653979772E+02 -0.18031237071E+02  0.67235415874E+02  0.00000000000E+00 0.  1.
         12    1    4    4    0    0 -0.61731881380E-02 -0.12622228762E+03 -0.35348114639E+02  0.13107843125E+03  0.00000000000E+00 0. -1.
         -5    1    5    5    0  502  0.94643826803E+02  0.13725749943E+03  0.44640676117E+01  0.16685051094E+03  0.47000000000E+01 0.  1.
         13    1    6    6    0    0  0.29434612776E+02  0.36302624572E+01 -0.21202535437E+02  0.36457135704E+02  0.00000000000E+00 0. -1.
        -14    1    6    6    0    0 -0.93952718840E+01  0.11148799700E+03 -0.78988327861E+02  0.13695619938E+03  0.00000000000E+00 0.  1.
</event>
<event>
12    1  0.1593360E-001  0.1764918E+03  0.7818608E-02  0.1172197E+00
         21   -1    0    0  501  502  0.00000000000E+00  0.00000000000E+00  0.54827596907E+02  0.54827596907E+02  0.00000000000E+00 0.  1.
         21   -1    0    0  502  503 -0.00000000000E+00 -0.00000000000E+00 -0.85532628823E+03  0.85532628823E+03  0.00000000000E+00 0.  1.
         -6    2    1    2    0  503 -0.32253557771E+02 -0.22271797461E+02 -0.66663504916E+03  0.68863905310E+03  0.16818184131E+03 0.  0.
        -24    2    3    3    0    0 -0.50992614997E+02 -0.16269335302E+02 -0.22172862257E+03  0.24327291134E+03  0.84576529054E+02 0.  0.
          6    2    1    2  501    0  0.32253557771E+02  0.22271797461E+02 -0.13386364217E+03  0.22151483203E+03  0.17208434317E+03 0.  0.
         24    2    5    5    0    0  0.58374372430E+01 -0.12170657385E+01 -0.15910905210E+03  0.17782319850E+03  0.79182337302E+02 0.  0.
          5    1    5    5  501    0  0.26416120528E+02  0.23488863199E+02  0.25245409935E+02  0.43691633535E+02  0.47000000000E+01 0. -1.
        -11    1    6    6    0    0  0.21192164539E+02  0.34241125901E+02 -0.71236956488E+02  0.81830718624E+02  0.00000000000E+00 0.  1.
         12    1    6    6    0    0 -0.15354727296E+02 -0.35458191640E+02 -0.87872095613E+02  0.95992479873E+02  0.00000000000E+00 0. -1.
         -5    1    3    3    0  503  0.18739057226E+02 -0.60024621592E+01 -0.44490642658E+03  0.44536614177E+03  0.47000000000E+01 0.  1.
         11    1    4    4    0    0 -0.76446515823E+01  0.27291322204E+02 -0.27254342176E+02  0.39319920306E+02  0.00000000000E+00 0. -1.
        -12    1    4    4    0    0 -0.43347963414E+02 -0.43560657505E+02 -0.19447428040E+03  0.20395299103E+03  0.00000000000E+00 0.  1.
</event>
<event>
12    1  0.1593360E-001  0.1788385E+03  0.7818608E-02  0.1170336E+00
         21   -1    0    0  503  502  0.00000000000E+00  0.00000000000E+00  0.77459363162E+03  0.77459363162E+03  0.00000000000E+00 0. -1.
         21   -1    0    0  501  503 -0.00000000000E+00 -0.00000000000E+00 -0.58084615504E+02  0.58084615504E+02  0.00000000000E+00 0. -1.
          6    2    1    2  501    0 -0.42227101189E+02  0.27032867548E+02  0.59454148811E+03  0.62085649552E+03  0.17166625455E+03 0.  0.
         24    2    3    3    0    0  0.38291144754E+02  0.58166232839E+01  0.19105669378E+03  0.20884267755E+03  0.74917013115E+02 0.  0.
         -6    2    1    2    0  502  0.42227101189E+02 -0.27032867548E+02  0.12196752801E+03  0.21182175160E+03  0.16576631914E+03 0.  0.
        -24    2    5    5    0    0 -0.13331611277E+02 -0.32099985252E+01  0.12775028595E+03  0.15091337854E+03  0.79162341502E+02 0.  0.
          5    1    3    3  501    0 -0.80518245943E+02  0.21216244264E+02  0.40348479433E+03  0.41201381797E+03  0.47000000000E+01 0. -1.
        -13    1    4    4    0    0  0.68158095272E+01  0.23186229883E+02  0.13498184240E+02  0.27681356424E+02  0.00000000000E+00 0.  1.
         14    1    4    4    0    0  0.31475335227E+02 -0.17369606599E+02  0.17755850954E+03  0.18116132112E+03  0.00000000000E+00 0. -1.
         -5    1    5    5    0  502  0.55558712466E+02 -0.23822869023E+02 -0.57827579419E+01  0.60908373060E+02  0.47000000000E+01 0.  1.
         11    1    6    6    0    0  0.13344821906E+02  0.53806441384E+01  0.12130611079E+03  0.12215649028E+03  0.00000000000E+00 0. -1.
        -12    1    6    6    0    0 -0.26676433183E+02 -0.85906426636E+01  0.64441751600E+01  0.28756888257E+02  0.00000000000E+00 0.  1.
</event>
<event>
12    1  0.1593360E-001  0.2164161E+03  0.7818608E-02  0.1136656E+00
         21   -1    0    0  501  502  0.00000000000E+00  0.00000000000E+00  0.17549523086E+03  0.17549523086E+03  0.00000000000E+00 0.  1.
         21   -1    0    0  502  503 -0.00000000000E+00 -0.00000000000E+00 -0.28478741038E+03  0.28478741038E+03  0.00000000000E+00 0. -1.
         -6    2    1    2    0  503 -0.78227159424E+01  0.13037305652E+03 -0.11306489984E+03  0.24383364797E+03  0.17208383873E+03 0.  0.
        -24    2    3    3    0    0 -0.51787245639E+02  0.13529885302E+03 -0.11082819503E+03  0.19928888182E+03  0.80283691779E+02 0.  0.
          6    2    1    2  501    0  0.78227159424E+01 -0.13037305652E+03  0.37727203324E+01  0.21644899327E+03  0.17256188605E+03 0.  0.
         24    2    5    5    0    0  0.62025621382E+02 -0.40478573972E+02  0.22417707449E+02  0.10973114802E+03  0.77798962582E+02 0.  0.
          5    1    5    5  501    0 -0.54202905440E+02 -0.89894482551E+02 -0.18644987116E+02  0.10671784525E+03  0.47000000000E+01 0. -1.
        -13    1    6    6    0    0  0.42293920330E+02 -0.29984921694E+02  0.51485008074E+02  0.73065568377E+02  0.00000000000E+00 0.  1.
         14    1    6    6    0    0  0.19731701052E+02 -0.10493652278E+02 -0.29067300625E+02  0.36665579638E+02  0.00000000000E+00 0. -1.
         -5    1    3    3    0  503  0.43964529697E+02 -0.49257964986E+01 -0.22367048190E+01  0.44544766147E+02  0.47000000000E+01 0.  1.
         11    1    4    4    0    0 -0.12610019250E+02  0.53139685117E+02 -0.91001716856E+02  0.10613270557E+03  0.00000000000E+00 0. -1.
        -12    1    4    4    0    0 -0.39177226389E+02  0.82159167904E+02 -0.19826478169E+02  0.93156176257E+02  0.00000000000E+00 0.  1.
</event>
<event>
12    1  0.1593360E-001  0.1986659E+03  0.7818608E-02  0.1155773E+00
         21   -1    0    0  501  502  0.00000000000E+00  0.00000000000E+00  0.94077148875E+02  0.94077148875E+02  0.00000000000E+00 0.  1.
         21   -1    0    0  502  503 -0.00000000000E+00 -0.00000000000E+00 -0.59331816333E+03  0.59331816333E+03  0.00000000000E+00 0.  1.
         -6    2    1    2    0  503 -0.72095536015E+01  0.44942829064E+02 -0.32257244671E+02  0.17990938945E+03  0.17104099810E+03 0.  0.
        -24    2    3    3    0    0  0.24861537415E+02 -0.30470331113E+02 -0.26625581704E+02  0.97632386375E+02  0.85303130935E+02 0.  0.
          6    2    1    2  501    0  0.72095536015E+01 -0.44942829064E+02 -0.46698376978E+03  0.50748592276E+03  0.19338119094E+03 0.  0.
         24    2    5    5    0    0 -0.38140720534E+00 -0.20232780884E+02 -0.47360210856E+03  0.48039161385E+03  0.77895022498E+02 0.  0.
          5    1    5    5  501    0  0.75909608069E+01 -0.24710048180E+02  0.66183387771E+01  0.27094308908E+02  0.47000000000E+01 0. -1.
        -11    1    6    6    0    0  0.77946666440E+01 -0.49329553346E+02 -0.31518894959E+03  0.31912103598E+03  0.00000000000E+00 0.  1.
         12    1    6    6    0    0 -0.81760738494E+01  0.29096772461E+02 -0.15841315897E+03  0.16127057787E+03  0.00000000000E+00 0. -1.
         -5    1    3    3    0  503 -0.32071091017E+02  0.75413160177E+02 -0.56316629667E+01  0.82277003073E+02  0.47000000000E+01 0.  1.
         11    1    4    4    0    0 -0.17532435742E+02  0.20501550631E+02 -0.13017462670E+02  0.29952532709E+02  0.00000000000E+00 0. -1.
        -12    1    4    4    0    0  0.42393973157E+02 -0.50971881744E+02 -0.13608119035E+02  0.67679853666E+02  0.00000000000E+00 0.  1.
</event>
<event>
12    1  0.1593360E-001  0.2384703E+03  0.7818608E-02  0.1120888E+00
         21   -1    0    0  503  502  0.00000000000E+00  0.00000000000E+00  0.10347374605E+04  0.10347374605E+04  0.00000000000E+00 0.  1.
         21   -1    0    0  501  503 -0.00000000000E+00 -0.00000000000E+00 -0.14427685302E+03  0.14427685302E+03  0.00000000000E+00 0.  1.
          6    2    1    2  501    0  0.57500283540E+02  0.15457836505E+03 -0.18704645630E+02  0.23920274588E+03  0.17224208638E+03 0.  0.
         24    2    3    3    0    0  0.23359098164E+02  0.36137359410E+02 -0.59514602155E+02  0.10927416970E+03  0.80915388418E+02 0.  0.
         -6    2    1    2    0  502 -0.57500283540E+02 -0.15457836505E+03  0.90916525316E+03  0.93981156768E+03  0.17164956057E+03 0.  0.
        -24    2    5    5    0    0 -0.94800497976E+02 -0.90992294755E+02  0.49169093916E+03  0.51585238664E+03  0.84124746868E+02 0.  0.
          5    1    3    3  501    0  0.34141185377E+02  0.11844100564E+03  0.40809956526E+02  0.12992857618E+03  0.47000000000E+01 0. -1.
        -11    1    4    4    0    0 -0.18699910905E+01  0.52828952904E+02 -0.58725264472E+02  0.79012985129E+02  0.00000000000E+00 0.  1.
         12    1    4    4    0    0  0.25229089254E+02 -0.16691593494E+02 -0.78933768321E+00  0.30261184576E+02  0.00000000000E+00 0. -1.
         -5    1    5    5    0  502  0.37300214436E+02 -0.63586070295E+02  0.41747431400E+03  0.42395918104E+03  0.47000000000E+01 0.  1.
         13    1    6    6    0    0 -0.95099854154E+01 -0.74907180455E+01  0.25666299195E+01  0.12374904791E+02  0.00000000000E+00 0. -1.
        -14    1    6    6    0    0 -0.85290512561E+02 -0.83501576710E+02  0.48912430924E+03  0.50347748185E+03  0.00000000000E+00 0.  1.
</event>
<event>
12    1  0.1593360E-001  0.1882185E+03  0.7818608E-02  0.1160224E+00
         21   -1    0    0  501  502  0.00000000000E+00  0.00000000000E+00  0.14625809169E+02  0.14625809169E+02  0.00000000000E+00 0. -1.
         21   -1    0    0  502  503 -0.00000000000E+00 -0.00000000000E+00 -0.27749612727E+04  0.27749612727E+04  0.00000000000E+00 0. -1.
         -6    2    1    2    0  503  0.66339820237E+01  0.68832963611E+02 -0.18852765924E+04  0.18946487882E+04  0.17505488843E+03 0.  0.
        -24    2    3    3    0    0  0.23238897539E+02 -0.33616232173E+01 -0.15050498092E+04  0.15072442473E+04  0.77839232022E+02 0.  0.
          6    2    1    2  501    0 -0.66339820237E+01 -0.68832963611E+02 -0.87505887111E+03  0.89493829371E+03  0.17436896236E+03 0.  0.
         24    2    5    5    0    0 -0.29191767416E+02 -0.89375802478E+02 -0.39088282587E+03  0.40977915003E+03  0.79305579143E+02 0.  0.
          5    1    5    5  501    0  0.22557785392E+02  0.20542838867E+02 -0.48417604524E+03  0.48515914368E+03  0.47000000000E+01 0. -1.
        -11    1    6    6    0    0 -0.18783347786E+02 -0.54258763650E+02 -0.35085664672E+03  0.35552385874E+03  0.00000000000E+00 0.  1.
         12    1    6    6    0    0 -0.10408419629E+02 -0.35117038828E+02 -0.40026179154E+02  0.54255291289E+02  0.00000000000E+00 0. -1.
         -5    1    3    3    0  503 -0.16604915516E+02  0.72194586828E+02 -0.38022678323E+03  0.38740454085E+03  0.47000000000E+01 0.  1.
         13    1    4    4    0    0  0.33235637996E+02  0.15763326043E+02 -0.33813781295E+03  0.34013272502E+03  0.00000000000E+00 0. -1.
        -14    1    4    4    0    0 -0.99967404568E+01 -0.19124949261E+02 -0.11669119962E+04  0.11671115223E+04  0.00000000000E+00 0.  1.
</event>
<event>
12    1  0.1593360E-001  0.3141129E+03  0.7818608E-02  0.1078524E+00
         21   -1    0    0  501  502  0.00000000000E+00  0.00000000000E+00  0.64919597587E+03  0.64919597587E+03  0.00000000000E+00 0. -1.
         21   -1    0    0  502  503 -0.00000000000E+00 -0.00000000000E+00 -0.20932044681E+03  0.20932044681E+03  0.00000000000E+00 0. -1.
         -6    2    1    2    0  503  0.24846052128E+03  0.84066582575E+02 -0.55035917241E+01  0.31416108952E+03  0.17282094695E+03 0.  0.
        -24    2    3    3    0    0  0.13663496496E+03  0.67586207244E+02  0.61237795167E+02  0.18281018339E+03  0.80202783830E+02 0.  0.
          6    2    1    2  501    0 -0.24846052128E+03 -0.84066582575E+02  0.44537912079E+03  0.54435533317E+03  0.17076400842E+03 0.  0.
         24    2    5    5    0    0 -0.15191503027E+03 -0.11973180225E+03  0.31002477099E+03  0.37424969029E+03  0.80830632588E+02 0.  0.
          5    1    5    5  501    0 -0.96545491011E+02  0.35665219674E+02  0.13535434980E+03  0.17010564288E+03  0.47000000000E+01 0. -1.
        -11    1    6    6    0    0 -0.44764829509E+01 -0.43168366910E+02  0.69081114019E+02  0.81582762367E+02  0.00000000000E+00 0.  1.
         12    1    6    6    0    0 -0.14743854732E+03 -0.76563435338E+02  0.24094365697E+03  0.29266692792E+03  0.00000000000E+00 0. -1.
         -5    1    3    3    0  503  0.11182555632E+03  0.16480375332E+02 -0.66741386891E+02  0.13135090613E+03  0.47000000000E+01 0.  1.
         11    1    4    4    0    0  0.11673933005E+03  0.23661454496E+02  0.23103611028E+02  0.12133306413E+03  0.00000000000E+00 0. -1.
        -12    1    4    4    0    0  0.19895634918E+02  0.43924752748E+02  0.38134184139E+02  0.61477119261E+02  0.00000000000E+00 0.  1.
</event>
<event>
12    1  0.1593360E-001  0.2173221E+03  0.7818608E-02  0.1136233E+00
         21   -1    0    0  501  502  0.00000000000E+00  0.00000000000E+00  0.87982256599E+02  0.87982256599E+02  0.00000000000E+00 0. -1.
         21   -1    0    0  502  503 -0.00000000000E+00 -0.00000000000E+00 -0.57035025105E+03  0.57035025105E+03  0.00000000000E+00 0.  1.
         -6    2    1    2    0  503  0.10694674115E+03  0.78887478837E+02 -0.15722680076E+03  0.26823343930E+03  0.17195368947E+03 0.  0.
        -24    2    3    3    0    0  0.85370281259E+02 -0.66716760605E+01 -0.46946394260E+02  0.12691900032E+03  0.81067086565E+02 0.  0.
          6    2    1    2  501    0 -0.10694674115E+03 -0.78887478837E+02 -0.32514119370E+03  0.39009906835E+03  0.16970458900E+03 0.  0.
         24    2    5    5    0    0 -0.14083087036E+03 -0.51051704541E+02 -0.27874570982E+03  0.32608660498E+03  0.78700016635E+02 0.  0.
          5    1    5    5  501    0  0.33884129212E+02 -0.27835774296E+02 -0.46395483877E+02  0.64012463375E+02  0.47000000000E+01 0. -1.
        -11    1    6    6    0    0 -0.93159681137E+02 -0.49048181172E+02 -0.24774222215E+03  0.26918517586E+03  0.00000000000E+00 0.  1.
         12    1    6    6    0    0 -0.47671189224E+02 -0.20035233687E+01 -0.31003487670E+02  0.56901429118E+02  0.00000000000E+00 0. -1.
         -5    1    3    3    0  503  0.21576459891E+02  0.85559154897E+02 -0.11028040650E+03  0.14131443898E+03  0.47000000000E+01 0.  1.
         13    1    4    4    0    0  0.85249706059E+02 -0.33122390931E+02 -0.35796028616E+02  0.98213852530E+02  0.00000000000E+00 0. -1.
        -14    1    4    4    0    0  0.12057520031E+00  0.26450714871E+02 -0.11150365644E+02  0.28705147788E+02  0.00000000000E+00 0.  1.
</event>
<event>
12    1  0.1593360E-001  0.1735180E+03  0.7818608E-02  0.1174261E+00
         21   -1    0    0  503  502  0.00000000000E+00  0.00000000000E+00  0.12252055224E+03  0.12252055224E+03  0.00000000000E+00 0. -1.
         21   -1    0    0  501  503 -0.00000000000E+00 -0.00000000000E+00 -0.28760858230E+03  0.28760858230E+03  0.00000000000E+00 0. -1.
          6    2    1    2  501    0  0.11544272484E+01 -0.15601668939E+02 -0.16098231684E+03  0.23669345997E+03  0.17281129269E+03 0.  0.
         24    2    3    3    0    0 -0.54536802606E+02  0.29460354288E+02 -0.10064803949E+03  0.14291492275E+03  0.80327280404E+02 0.  0.
         -6    2    1    2    0  502 -0.11544272484E+01  0.15601668939E+02 -0.41057132280E+01  0.17343567457E+03  0.17267985278E+03 0.  0.
        -24    2    5    5    0    0  0.43406939924E+02  0.44299141747E+02  0.35366105145E+02  0.10718331737E+03  0.79943265728E+02 0.  0.
          5    1    3    3  501    0  0.55691229855E+02 -0.45062023227E+02 -0.60334277344E+02  0.93778537217E+02  0.47000000000E+01 0. -1.
        -13    1    4    4    0    0  0.93624321184E+01  0.97370967780E+01 -0.66440680078E+02  0.67799927419E+02  0.00000000000E+00 0.  1.
         14    1    4    4    0    0 -0.63899234725E+02  0.19723257510E+02 -0.34207359416E+02  0.75114995330E+02  0.00000000000E+00 0. -1.
         -5    1    5    5    0  502 -0.44561367173E+02 -0.28697472808E+02 -0.39471818373E+02  0.66252357208E+02  0.47000000000E+01 0.  1.
         11    1    6    6    0    0  0.84089378386E-01  0.19719430156E+02 -0.23102671228E+02  0.30374272248E+02  0.00000000000E+00 0. -1.
        -12    1    6    6    0    0  0.43322850546E+02  0.24579711591E+02  0.58468776373E+02  0.76809045118E+02  0.00000000000E+00 0.  1.
</event>
<event>
12    1  0.1593360E-001  0.1810766E+03  0.7818608E-02  0.1167641E+00
         21   -1    0    0  501  502  0.00000000000E+00  0.00000000000E+00  0.18182525301E+03  0.18182525301E+03  0.00000000000E+00 0.  1.
         21   -1    0    0  502  503 -0.00000000000E+00 -0.00000000000E+00 -0.20571304693E+03  0.20571304693E+03  0.00000000000E+00 0.  1.
         -6    2    1    2    0  503  0.41251185022E+02 -0.22465647757E+02 -0.84537734205E+02  0.19657457187E+03  0.17113903180E+03 0.  0.
        -24    2    3    3    0    0 -0.38356536742E+02  0.11596950937E+02 -0.43306714866E+02  0.10055511056E+03  0.81425705557E+02 0.  0.
          6    2    1    2  501    0 -0.41251185022E+02  0.22465647757E+02  0.60649940280E+02  0.19096372807E+03  0.17487814211E+03 0.  0.
         24    2    5    5    0    0 -0.33792676676E+02  0.71182200819E+02  0.78214886326E+02  0.13843231634E+03  0.82686680020E+02 0.  0.
          5    1    5    5  501    0 -0.74585083463E+01 -0.48716553062E+02 -0.17564946046E+02  0.52531411732E+02  0.47000000000E+01 0. -1.
        -13    1    6    6    0    0 -0.13807790243E+02 -0.89882193932E+00  0.59825449468E+02  0.61404782845E+02  0.00000000000E+00 0.  1.
         14    1    6    6    0    0 -0.19984886433E+02  0.72081022758E+02  0.18389436858E+02  0.77027533490E+02  0.00000000000E+00 0. -1.
         -5    1    3    3    0  503  0.79607721764E+02 -0.34062598694E+02 -0.41231019339E+02  0.96019461309E+02  0.47000000000E+01 0.  1.
         11    1    4    4    0    0 -0.41250485659E+02 -0.10306132516E+02 -0.59522943522E+02  0.73149160898E+02  0.00000000000E+00 0. -1.
        -12    1    4    4    0    0  0.28939489167E+01  0.21903083453E+02  0.16216228656E+02  0.27405949662E+02  0.00000000000E+00 0.  1.
</event>
<event>
12    1  0.1593360E-001  0.1832699E+03  0.7818608E-02  0.1164935E+00
         21   -1    0    0  501  502  0.00000000000E+00  0.00000000000E+00  0.34215067813E+02  0.34215067813E+02  0.00000000000E+00 0.  1.
         21   -1    0    0  502  503 -0.00000000000E+00 -0.00000000000E+00 -0.10100835699E+04  0.10100835699E+04  0.00000000000E+00 0.  1.
         -6    2    1    2    0  503  0.58906883260E+02 -0.10147564963E+02 -0.58270847226E+03  0.61052142705E+03  0.17208792889E+03 0.  0.
        -24    2    3    3    0    0  0.90952162497E+02 -0.39775375216E+02 -0.31694788648E+03  0.34116017145E+03  0.77973864237E+02 0.  0.
          6    2    1    2  501    0 -0.58906883260E+02  0.10147564963E+02 -0.39316002981E+03  0.43377721065E+03  0.17324798835E+03 0.  0.
         24    2    5    5    0    0 -0.69022833389E+02  0.54692199922E+02 -0.19682557387E+03  0.23214421350E+03  0.85995587505E+02 0.  0.
          5    1    5    5  501    0  0.10115950129E+02 -0.44544634959E+02 -0.19633445594E+03  0.20163299715E+03  0.47000000000E+01 0. -1.
        -13    1    6    6    0    0  0.17601481350E+02  0.26434113975E+02 -0.45057256116E+02  0.55124684635E+02  0.00000000000E+00 0.  1.
         14    1    6    6    0    0 -0.86624314739E+02  0.28258085947E+02 -0.15176831775E+03  0.17701952886E+03  0.00000000000E+00 0. -1.
         -5    1    3    3    0  503 -0.32045279237E+02  0.29627810253E+02 -0.26576058579E+03  0.26936125560E+03  0.47000000000E+01 0.  1.
         13    1    4    4    0    0  0.21120056611E+02 -0.22242773271E+02 -0.22507311715E+02  0.38044406089E+02  0.00000000000E+00 0. -1.
        -14    1    4    4    0    0  0.69832105886E+02 -0.17532601945E+02 -0.29444057476E+03  0.30311576536E+03  0.00000000000E+00 0.  1.
</event>
<event>
12    1  0.1593360E-001  0.2064956E+03  0.7818608E-02  0.1144654E+00
         21   -1    0    0  501  502  0.00000000000E+00  0.00000000000E+00  0.17263337513E+03  0.17263337513E+03  0.00000000000E+00 0. -1.
         21   -1    0    0  502  503 -0.00000000000E+00 -0.00000000000E+00 -0.24969300258E+03  0.24969300258E+03  0.00000000000E+00 0. -1.
         -6    2    1    2    0  503 -0.10303204584E+03 -0.41235231253E+02 -0.10776461888E+02  0.20677658361E+03  0.17413924494E+03 0.  0.
        -24    2    3    3    0    0 -0.13912622439E+03 -0.17374081853E+02  0.30290217481E+01  0.16111669361E+03  0.79318654525E+02 0.  0.
          6    2    1    2  501    0  0.10303204584E+03  0.41235231253E+02 -0.66283165559E+02  0.21554979411E+03  0.17248857625E+03 0.  0.
         24    2    5    5    0    0 -0.74734563864E+01 -0.12567587453E+02 -0.23127076611E+02  0.85201233176E+02  0.80688237416E+02 0.  0.
          5    1    5    5  501    0  0.11050550223E+03  0.53802818706E+02 -0.43156088949E+02  0.13034856093E+03  0.47000000000E+01 0. -1.
        -11    1    6    6    0    0  0.13166232743E+02 -0.36290237946E+02  0.96367895061E+01  0.39789430341E+02  0.00000000000E+00 0.  1.
         12    1    6    6    0    0 -0.20639689130E+02  0.23722650494E+02 -0.32763866117E+02  0.45411802835E+02  0.00000000000E+00 0. -1.
         -5    1    3    3    0  503  0.36094178546E+02 -0.23861149400E+02 -0.13805483637E+02  0.45659889992E+02  0.47000000000E+01 0.  1.
         11    1    4    4    0    0 -0.20923485384E+02 -0.71679329784E+01  0.32083627129E+02  0.38968328596E+02  0.00000000000E+00 0. -1.
        -12    1    4    4    0    0 -0.11820273900E+03 -0.10206148874E+02 -0.29054605381E+02  0.12214836502E+03  0.00000000000E+00 0.  1.
</event>
<event>
12    1  0.1593360E-001  0.1968766E+03  0.7818608E-02  0.1152485E+00
         21   -1    0    0  503  502  0.00000000000E+00  0.00000000000E+00  0.66412518076E+03  0.66412518076E+03  0.00000000000E+00 0.  1.
         21   -1    0    0  501  503 -0.00000000000E+00 -0.00000000000E+00 -0.76235915650E+02  0.76235915650E+02  0.00000000000E+00 0. -1.
          6    2    1    2  501    0 -0.73449542156E+02  0.61725316748E+02  0.11435093590E+03  0.22767640062E+03  0.17191729664E+03 0.  0.
         24    2    3    3    0    0 -0.10280495666E+03  0.74846591994E+02  0.12217767392E+03  0.19425102025E+03  0.81456757954E+02 0.  0.
         -6    2    1    2    0  502  0.73449542156E+02 -0.61725316748E+02  0.47353832921E+03  0.51268469579E+03  0.17147069167E+03 0.  0.
        -24    2    5    5    0    0  0.41401214923E+02 -0.46393505702E+02  0.10493874814E+03  0.14234714589E+03  0.73376775019E+02 0.  0.
          5    1    3    3  501    0  0.29355414501E+02 -0.13121275246E+02 -0.78267380211E+01  0.33425380367E+02  0.47000000000E+01 0. -1.
        -13    1    4    4    0    0 -0.57071140553E+02  0.39999565457E+02  0.11743618325E+03  0.13655891570E+03  0.00000000000E+00 0.  1.
         14    1    4    4    0    0 -0.45733816103E+02  0.34847026537E+02  0.47414906766E+01  0.57692104552E+02  0.00000000000E+00 0. -1.
         -5    1    5    5    0  502  0.32048327232E+02 -0.15331811046E+02  0.36859958107E+03  0.37033754991E+03  0.47000000000E+01 0.  1.
         13    1    6    6    0    0  0.36669799975E+02  0.11182195954E+02  0.39156641901E+02  0.54799254936E+02  0.00000000000E+00 0. -1.
        -14    1    6    6    0    0  0.47314149486E+01 -0.57575701656E+02  0.65782106237E+02  0.87547890949E+02  0.00000000000E+00 0.  1.
</event>
<event>
12    1  0.1593360E-001  0.2188290E+03  0.7818608E-02  0.1135024E+00
         21   -1    0    0  501  502  0.00000000000E+00  0.00000000000E+00  0.86997031160E+02  0.86997031160E+02  0.00000000000E+00 0. -1.
         21   -1    0    0  502  503 -0.00000000000E+00 -0.00000000000E+00 -0.13353845071E+04  0.13353845071E+04  0.00000000000E+00 0. -1.
         -6    2    1    2    0  503 -0.68304668395E+02 -0.11669881174E+03 -0.11715042107E+04  0.11917668649E+04  0.17205232985E+03 0.  0.
        -24    2    3    3    0    0 -0.80346846029E+02 -0.13503638844E+03 -0.78097300096E+03  0.80059171673E+03  0.79610469217E+02 0.  0.
          6    2    1    2  501    0  0.68304668395E+02  0.11669881174E+03 -0.76883265247E+02  0.23061467336E+03  0.17025848205E+03 0.  0.
         24    2    5    5    0    0 -0.29889741193E+02  0.54728673409E+02 -0.33165605233E+02  0.10645443853E+03  0.79649016250E+02 0.  0.
          5    1    5    5  501    0  0.98194409587E+02  0.61970138326E+02 -0.43717660013E+02  0.12416023484E+03  0.47000000000E+01 0. -1.
        -11    1    6    6    0    0 -0.39061859053E+02  0.48550122438E+02 -0.54266921752E+02  0.82630757094E+02  0.00000000000E+00 0.  1.
         12    1    6    6    0    0  0.91721178606E+01  0.61785509708E+01  0.21101316518E+02  0.23823681432E+02  0.00000000000E+00 0. -1.
         -5    1    3    3    0  503  0.12042177634E+02  0.18337576702E+02 -0.39053120977E+03  0.39117514820E+03  0.47000000000E+01 0.  1.
         11    1    4    4    0    0 -0.72077483757E+02 -0.43577335626E+02 -0.38638461488E+03  0.39545823858E+03  0.00000000000E+00 0. -1.
        -12    1    4    4    0    0 -0.82693622722E+01 -0.91459052811E+02 -0.39458838607E+03  0.40513347815E+03  0.00000000000E+00 0.  1.
</event>
<event>
12    1  0.1593360E-001  0.1907564E+03  0.7818608E-02  0.1158797E+00
         21   -1    0    0  501  502  0.00000000000E+00  0.00000000000E+00  0.81175746577E+03  0.81175746577E+03  0.00000000000E+00 0. -1.
         21   -1    0    0  502  503 -0.00000000000E+00 -0.00000000000E+00 -0.98532712495E+02  0.98532712495E+02  0.00000000000E+00 0. -1.
         -6    2    1    2    0  503 -0.82168669851E+02 -0.25044830652E+01  0.19223838439E+02  0.19172263416E+03  0.17213381348E+03 0.  0.
        -24    2    3    3    0    0 -0.25610575335E+02  0.52604856256E+02 -0.23729878650E+02  0.10170614040E+03  0.79736186167E+02 0.  0.
          6    2    1    2  501    0  0.82168669851E+02  0.25044830652E+01  0.69400091484E+03  0.71856754411E+03  0.16716483754E+03 0.  0.
         24    2    5    5    0    0  0.12148231066E+03 -0.51051280746E+01  0.54668260669E+03  0.56583168567E+03  0.80744101489E+02 0.  0.
          5    1    5    5  501    0 -0.39313640805E+02  0.76096111399E+01  0.14731830815E+03  0.15273585844E+03  0.47000000000E+01 0. -1.
        -13    1    6    6    0    0  0.44710925917E+02  0.37320149239E+02  0.21611736116E+03  0.22382710790E+03  0.00000000000E+00 0.  1.
         14    1    6    6    0    0  0.76771384738E+02 -0.42425277313E+02  0.33056524552E+03  0.34200457777E+03  0.00000000000E+00 0. -1.
         -5    1    3    3    0  503 -0.56558094516E+02 -0.55109339321E+02  0.42953717089E+02  0.90016493753E+02  0.47000000000E+01 0.  1.
         11    1    4    4    0    0 -0.52585128291E+02  0.19601463641E+02 -0.10662609347E+02  0.57123588230E+02  0.00000000000E+00 0. -1.
        -12    1    4    4    0    0  0.26974552956E+02  0.33003392616E+02 -0.13067269303E+02  0.44582552174E+02  0.00000000000E+00 0.  1.
</event>
<event>
12    1  0.1593360E-001  0.2542638E+03  0.7818608E-02  0.1110777E+00
         21   -1    0    0  501  502  0.00000000000E+00  0.00000000000E+00  0.10992161890E+04  0.10992161890E+04  0.00000000000E+00 0.  1.
         21   -1    0    0  502  503 -0.00000000000E+00 -0.00000000000E+00 -0.58914528502E+02  0.58914528502E+02  0.00000000000E+00 0. -1.
         -6    2    1    2    0  503 -0.63852367632E+02 -0.17629588015E+03  0.47940358787E+03  0.54265817230E+03  0.17173447437E+03 0.  0.
        -24    2    3    3    0    0 -0.79390744916E+02 -0.48687572893E+02  0.20294569275E+03  0.23773788924E+03  0.81602571272E+02 0.  0.
          6    2    1    2  501    0  0.63852367632E+02  0.17629588015E+03  0.56089807258E+03  0.61547254516E+03  0.17041843740E+03 0.  0.
         24    2    5    5    0    0 -0.30966101825E+01  0.10101793221E+03  0.43353932723E+03  0.45301862833E+03  0.83995938785E+02 0.  0.
          5    1    5    5  501    0  0.66948977814E+02  0.75277947943E+02  0.12735874535E+03  0.16245391683E+03  0.47000000000E+01 0. -1.
        -13    1    6    6    0    0  0.24977327465E+02  0.65382820440E+02  0.35900415450E+03  0.36576326093E+03  0.00000000000E+00 0.  1.
         14    1    6    6    0    0 -0.28073937647E+02  0.35635111770E+02  0.74535172728E+02  0.87255367396E+02  0.00000000000E+00 0. -1.
         -5    1    3    3    0  503  0.15538377284E+02 -0.12760830726E+03  0.27645789512E+03  0.30492028307E+03  0.47000000000E+01 0.  1.
         11    1    4    4    0    0  0.34281891160E+01 -0.39635270604E+02  0.53958120263E+02  0.67038689567E+02  0.00000000000E+00 0. -1.
        -12    1    4    4    0    0 -0.82818934032E+02 -0.90523022895E+01  0.14898757249E+03  0.17069919967E+03  0.00000000000E+00 0.  1.
</event>
<event>
12    1  0.1593360E-001  0.2962850E+03  0.7818608E-02  0.1087155E+00
         21   -1    0    0  501  502  0.00000000000E+00  0.00000000000E+00  0.50353107418E+03  0.50353107418E+03  0.00000000000E+00 0.  1.
         21   -1    0    0  502  503 -0.00000000000E+00 -0.00000000000E+00 -0.35938730287E+03  0.35938730287E+03  0.00000000000E+00 0. -1.
         -6    2    1    2    0  503 -0.18637328864E+03 -0.15228456266E+03 -0.23767332588E+03  0.37983343322E+03  0.17279825350E+03 0.  0.
        -24    2    3    3    0    0 -0.34372016125E+02 -0.94393288609E+02 -0.14577177553E+03  0.19295440440E+03  0.76749353140E+02 0.  0.
          6    2    1    2  501    0  0.18637328864E+03  0.15228456266E+03  0.38181709718E+03  0.48308494383E+03  0.17222420421E+03 0.  0.
         24    2    5    5    0    0  0.25453882579E+02  0.23447382108E+02  0.13563878250E+03  0.16196202818E+03  0.81462502954E+02 0.  0.
          5    1    5    5  501    0  0.16091940606E+03  0.12883718055E+03  0.24617831468E+03  0.32112291566E+03  0.47000000000E+01 0. -1.
        -13    1    6    6    0    0  0.54037825307E+02  0.14355893113E+02  0.10573051453E+03  0.11960401303E+03  0.00000000000E+00 0.  1.
         14    1    6    6    0    0 -0.28583942728E+02  0.90914889951E+01  0.29908267969E+02  0.42358015144E+02  0.00000000000E+00 0. -1.
         -5    1    3    3    0  503 -0.15200127252E+03 -0.57891274049E+02 -0.91901550345E+02  0.18687902882E+03  0.47000000000E+01 0.  1.
         13    1    4    4    0    0 -0.48644280062E+02 -0.89852157172E+02 -0.14572628598E+03  0.17797703941E+03  0.00000000000E+00 0. -1.
        -14    1    4    4    0    0  0.14272263937E+02 -0.45411314374E+01 -0.45489549581E-01  0.14977364986E+02  0.00000000000E+00 0.  1.
</event>
<event>
12    1  0.1593360E-001  0.1905486E+03  0.7818608E-02  0.1158064E+00
         21   -1    0    0  501  502  0.00000000000E+00  0.00000000000E+00  0.57222877588E+02  0.57222877588E+02  0.00000000000E+00 0.  1.
         21   -1    0    0  502  503 -0.00000000000E+00 -0.00000000000E+00 -0.63586230466E+03  0.63586230466E+03  0.00000000000E+00 0.  1.
         -6    2    1    2    0  503  0.40911886107E+02 -0.72872890886E+02 -0.31255347244E+03  0.36605799898E+03  0.17124410890E+03 0.  0.
        -24    2    3    3    0    0 -0.38110810911E+02 -0.21453707629E+02 -0.10424974376E+03  0.13736376549E+03  0.78026274521E+02 0.  0.
          6    2    1    2  501    0 -0.40911886107E+02  0.72872890886E+02 -0.26608595463E+03  0.32702718326E+03  0.17076534395E+03 0.  0.
         24    2    5    5    0    0 -0.42311274324E+02 -0.18613719926E+02 -0.99338139088E+02  0.13676767041E+03  0.81857286096E+02 0.  0.
          5    1    5    5  501    0  0.13993882171E+01  0.91486610812E+02 -0.16674781554E+03  0.19025951286E+03  0.47000000000E+01 0. -1.
        -13    1    6    6    0    0  0.15586194796E+00  0.26270036628E+02 -0.99281557575E+01  0.28083934805E+02  0.00000000000E+00 0.  1.
         14    1    6    6    0    0 -0.42467136272E+02 -0.44883756553E+02 -0.89409983331E+02  0.10868373560E+03  0.00000000000E+00 0. -1.
         -5    1    3    3    0  503  0.79022697018E+02 -0.51419183257E+02 -0.20830372868E+03  0.22869423349E+03  0.47000000000E+01 0.  1.
         11    1    4    4    0    0 -0.34742756498E+02  0.63470994989E+01 -0.67952968094E+01  0.35965551016E+02  0.00000000000E+00 0. -1.
        -12    1    4    4    0    0 -0.33680544129E+01 -0.27800807128E+02 -0.97454446954E+02  0.10139821447E+03  0.00000000000E+00 0.  1.
</event>
<event>
12    1  0.1593360E-001  0.2086752E+03  0.7818608E-02  0.1143165E+00
         21   -1    0    0  501  502  0.00000000000E+00  0.00000000000E+00  0.39699975278E+03  0.39699975278E+03  0.00000000000E+00 0. -1.
         21   -1    0    0  502  503 -0.00000000000E+00 -0.00000000000E+00 -0.12036528099E+03  0.12036528099E+03  0.00000000000E+00 0. -1.
         -6    2    1    2    0  503 -0.14845854094E+02 -0.11465616979E+03  0.55481283590E+02  0.21330241483E+03  0.17045031736E+03 0.  0.
        -24    2    3    3    0    0  0.20685222899E+02 -0.13364523441E+03  0.17567170662E+02  0.15778113993E+03  0.79355878844E+02 0.  0.
          6    2    1    2  501    0  0.14845854094E+02  0.11465616979E+03  0.22115318820E+03  0.30406261893E+03  0.17372077286E+03 0.  0.
         24    2    5    5    0    0 -0.35299299285E+02  0.25499211261E+02  0.45630581896E+02  0.10085392082E+03  0.78696334325E+02 0.  0.
          5    1    5    5  501    0  0.50145153379E+02  0.89156958531E+02  0.17552260631E+03  0.20320869811E+03  0.47000000000E+01 0. -1.
        -11    1    6    6    0    0 -0.41206585713E+02 -0.18685757071E+02  0.20408180210E+02  0.49635008239E+02  0.00000000000E+00 0.  1.
         12    1    6    6    0    0  0.59072864282E+01  0.44184968332E+02  0.25222401686E+02  0.51218912584E+02  0.00000000000E+00 0. -1.
         -5    1    3    3    0  503 -0.35531076993E+02  0.18989064617E+02  0.37914112928E+02  0.55521274899E+02  0.47000000000E+01 0.  1.
         13    1    4    4    0    0 -0.28805307119E+02 -0.73195544245E+02  0.76945378948E+01  0.79035051268E+02  0.00000000000E+00 0. -1.
        -14    1    4    4    0    0  0.49490530018E+02 -0.60449690164E+02  0.98726327673E+01  0.78746088666E+02  0.00000000000E+00 0.  1.
</event>
<event>
12    1  0.1593360E-001  0.1787797E+03  0.7818608E-02  0.1169038E+00
         21   -1    0    0  503  502  0.00000000000E+00  0.00000000000E+00  0.91242156244E+02  0.91242156244E+02  0.00000000000E+00 0. -1.
         21   -1    0    0  501  503 -0.00000000000E+00 -0.00000000000E+00 -0.35656231072E+03  0.35656231072E+03  0.00000000000E+00 0. -1.
          6    2    1    2  501    0 -0.45778842341E+02 -0.21710641634E+02 -0.16331418855E+03  0.24214399532E+03  0.17145009746E+03 0.  0.
         24    2    3    3    0    0  0.14471118718E+02 -0.55119796438E+02 -0.13692417035E+03  0.16822003105E+03  0.79386051574E+02 0.  0.
         -6    2    1    2    0  502  0.45778842341E+02  0.21710641634E+02 -0.10200596592E+03  0.20566047164E+03  0.17124239588E+03 0.  0.
        -24    2    5    5    0    0  0.29574946675E+02 -0.46000864818E+02 -0.97279047379E+02  0.13571872374E+03  0.77237308862E+02 0.  0.
          5    1    3    3  501    0 -0.60249961058E+02  0.33409154804E+02 -0.26390018205E+02  0.73923964268E+02  0.47000000000E+01 0. -1.
        -11    1    4    4    0    0  0.13650140725E+02  0.18097217111E+02 -0.19832751262E+02  0.30119323226E+02  0.00000000000E+00 0.  1.
         12    1    4    4    0    0  0.82097799269E+00 -0.73217013548E+02 -0.11709141909E+03  0.13810070782E+03  0.00000000000E+00 0. -1.
         -5    1    5    5    0  502  0.16203895665E+02  0.67711506452E+02 -0.47269185424E+01  0.69941747903E+02  0.47000000000E+01 0.  1.
         13    1    6    6    0    0  0.28748893827E+01  0.85082543403E+01  0.93876744284E+01  0.12991682418E+02  0.00000000000E+00 0. -1.
        -14    1    6    6    0    0  0.26700057293E+02 -0.54509119159E+02 -0.10666672181E+03  0.12272704132E+03  0.00000000000E+00 0.  1.
</event>
<event>
12    1  0.1593360E-001  0.2949683E+03  0.7818608E-02  0.1087805E+00
         21   -1    0    0  503  502  0.00000000000E+00  0.00000000000E+00  0.18745257701E+03  0.18745257701E+03  0.00000000000E+00 0. -1.
         21   -1    0    0  501  503 -0.00000000000E+00 -0.00000000000E+00 -0.47060086577E+03  0.47060086577E+03  0.00000000000E+00 0.  1.
          6    2    1    2  501    0 -0.74200329841E+01  0.23916565138E+03 -0.10222453017E+03  0.31201915842E+03  0.17219417807E+03 0.  0.
         24    2    3    3    0    0  0.46990399303E+02  0.71640303327E+02 -0.27486598035E+02  0.12062144192E+03  0.80334229885E+02 0.  0.
         -6    2    1    2    0  502  0.74200329841E+01 -0.23916565138E+03 -0.18092375859E+03  0.34603428437E+03  0.17248493803E+03 0.  0.
        -24    2    5    5    0    0 -0.61645041773E+02 -0.13500010342E+03 -0.10365410444E+03  0.19902021911E+03  0.82702691290E+02 0.  0.
          5    1    3    3  501    0 -0.54410432288E+02  0.16752534805E+03 -0.74737932140E+02  0.19139771650E+03  0.47000000000E+01 0. -1.
        -11    1    4    4    0    0 -0.14815120145E+02 -0.76709342252E+01 -0.65024968625E+01  0.17905682959E+02  0.00000000000E+00 0.  1.
         12    1    4    4    0    0  0.61805519448E+02  0.79311237552E+02 -0.20984101173E+02  0.10271575896E+03  0.00000000000E+00 0. -1.
         -5    1    5    5    0  502  0.69065074757E+02 -0.10416554795E+03 -0.77269654153E+02  0.14701406526E+03  0.47000000000E+01 0.  1.
         13    1    6    6    0    0 -0.19866665150E+02  0.17162552691E+00  0.51686191245E+01  0.20528722882E+02  0.00000000000E+00 0. -1.
        -14    1    6    6    0    0 -0.41778376623E+02 -0.13517172895E+03 -0.10882272356E+03  0.17849149622E+03  0.00000000000E+00 0.  1.
</event>
<event>
12    1  0.1593360E-001  0.1810402E+03  0.7818608E-02  0.1166886E+00
         21   -1    0    0  501  502  0.00000000000E+00  0.00000000000E+00  0.11582320243E+03  0.11582320243E+03  0.00000000000E+00 0.  1.
         21   -1    0    0  502  503 -0.00000000000E+00 -0.00000000000E+00 -0.55458624729E+03  0.55458624729E+03  0.00000000000E+00 0.  1.
         -6    2    1    2    0  503 -0.54944378602E+02  0.12471276025E+02 -0.45431425121E+03  0.48905723556E+03  0.17204976994E+03 0.  0.
        -24    2    3    3    0    0  0.28149625675E+02  0.10903366930E+01 -0.32117692762E+03  0.33163494914E+03  0.77675803188E+02 0.  0.
          6    2    1    2  501    0  0.54944378602E+02 -0.12471276025E+02  0.15551206356E+02  0.18135221415E+03  0.17167518194E+03 0.  0.
         24    2    5    5    0    0  0.28267815485E+02 -0.69037018708E+02  0.85323533707E+01  0.11824376335E+03  0.91343347723E+02 0.  0.
          5    1    5    5  501    0  0.26676563117E+02  0.56565742684E+02  0.70188529853E+01  0.63108450800E+02  0.47000000000E+01 0. -1.
        -13    1    6    6    0    0  0.71883312734E+01  0.36755183147E+01  0.36616617667E+02  0.37496109541E+02  0.00000000000E+00 0.  1.
         14    1    6    6    0    0  0.21079484212E+02 -0.72712537023E+02 -0.28084264296E+02  0.80747653811E+02  0.00000000000E+00 0. -1.
         -5    1    3    3    0  503 -0.83094004277E+02  0.11380939332E+02 -0.13313732360E+03  0.15742228642E+03  0.47000000000E+01 0.  1.
         13    1    4    4    0    0  0.56992243059E+01  0.16620955017E+02 -0.12052007343E+02  0.21306998483E+02  0.00000000000E+00 0. -1.
        -14    1    4    4    0    0  0.22450401369E+02 -0.15530618324E+02 -0.30912492027E+03  0.31032795066E+03  0.00000000000E+00 0.  1.
</event>
<event>
12    1  0.1593360E-001  0.2558200E+03  0.7818608E-02  0.1109693E+00
         21   -1    0    0  503  502  0.00000000000E+00  0.00000000000E+00  0.17232737161E+03  0.17232737161E+03  0.00000000000E+00 0.  1.
         21   -1    0    0  501  503 -0.00000000000E+00 -0.00000000000E+00 -0.80655391423E+03  0.80655391423E+03  0.00000000000E+00 0. -1.
          6    2    1    2  501    0 -0.13138097745E+03  0.13650830994E+03 -0.67321581082E+03  0.72018290626E+03  0.17189651133E+03 0.  0.
         24    2    3    3    0    0 -0.44923592575E+02  0.31240015791E+02 -0.44166058880E+03  0.45148939313E+03  0.76056088855E+02 0.  0.
         -6    2    1    2    0  502  0.13138097745E+03 -0.13650830994E+03  0.38989268202E+02  0.25869837959E+03  0.17178244570E+03 0.  0.
        -24    2    5    5    0    0  0.91657267879E+02 -0.14328559493E+03 -0.16764015346E+02  0.18974605316E+03  0.82405800815E+02 0.  0.
          5    1    3    3  501    0 -0.86457384871E+02  0.10526829415E+03 -0.23155522202E+03  0.26869351313E+03  0.47000000000E+01 0. -1.
        -11    1    4    4    0    0 -0.64739204032E+00  0.25950838531E+01  0.28228050814E+01  0.38886765340E+01  0.00000000000E+00 0.  1.
         12    1    4    4    0    0 -0.44276200534E+02  0.28644931938E+02 -0.44448339388E+03  0.44760071660E+03  0.00000000000E+00 0. -1.
         -5    1    5    5    0  502  0.39723709567E+02  0.67772849943E+01  0.55753283548E+02  0.68952326430E+02  0.47000000000E+01 0.  1.
         13    1    6    6    0    0  0.40763636256E+02 -0.31228353635E+02 -0.39253184129E+02  0.64635103279E+02  0.00000000000E+00 0. -1.
        -14    1    6    6    0    0  0.50893631623E+02 -0.11205724130E+03  0.22489168783E+02  0.12511094988E+03  0.00000000000E+00 0.  1.
</event>
<event>
12    1  0.1593360E-001  0.2231295E+03  0.7818608E-02  0.1131595E+00
         21   -1    0    0  501  502  0.00000000000E+00  0.00000000000E+00  0.98388357049E+03  0.98388357049E+03  0.00000000000E+00 0.  1.
         21   -1    0    0  502  503 -0.00000000000E+00 -0.00000000000E+00 -0.65557538396E+02  0.65557538396E+02  0.00000000000E+00 0.  1.
         -6    2    1    2    0  503  0.14077315945E+03 -0.17296160395E+02  0.20818855654E+03  0.30507426223E+03  0.17208018717E+03 0.  0.
        -24    2    3    3    0    0  0.68639222517E+01 -0.69146626410E+01  0.36897393744E+02  0.87353772256E+02  0.78576955108E+02 0.  0.
          6    2    1    2  501    0 -0.14077315945E+03  0.17296160395E+02  0.71013747555E+03  0.74436684665E+03  0.17225135305E+03 0.  0.
         24    2    5    5    0    0 -0.15751694920E+03  0.51543196152E+02  0.55960174495E+03  0.58900819662E+03  0.79424507396E+02 0.  0.
          5    1    5    5  501    0  0.16743789751E+02 -0.34247035756E+02  0.15053573060E+03  0.15535865004E+03  0.47000000000E+01 0. -1.
        -11    1    6    6    0    0 -0.14186733967E+03  0.30381989145E+02  0.52952801143E+03  0.54904400754E+03  0.00000000000E+00 0.  1.
         12    1    6    6    0    0 -0.15649609530E+02  0.21161207007E+02  0.30073733518E+02  0.39964189071E+02  0.00000000000E+00 0. -1.
         -5    1    3    3    0  503  0.13390923720E+03 -0.10381497754E+02  0.17129116280E+03  0.21772048998E+03  0.47000000000E+01 0.  1.
         13    1    4    4    0    0  0.21365048895E+02  0.15602678034E+01  0.57155678909E+02  0.61038278002E+02  0.00000000000E+00 0. -1.
        -14    1    4    4    0    0 -0.14501126644E+02 -0.84749304444E+01 -0.20258285165E+02  0.26315494253E+02  0.00000000000E+00 0.  1.
</event>
<event>
12    1  0.1593360E-001  0.2019075E+03  0.7818608E-02  0.1148520E+00
         21   -1    0    0  501  502  0.00000000000E+00  0.00000000000E+00  0.71617935989E+03  0.71617935989E+03  0.00000000000E+00 0. -1.
         21   -1    0    0  502  503 -0.00000000000E+00 -0.00000000000E+00 -0.56675279036E+02  0.56675279036E+02  0.00000000000E+00 0.  1.
         -6    2    1    2    0  503 -0.77047402309E+02 -0.71357043936E+02  0.35763547818E+03  0.41069424398E+03  0.17244853396E+03 0.  0.
        -24    2    3    3    0    0 -0.64636744645E+02 -0.24498973028E+02  0.34597177123E+03  0.36061595235E+03  0.74627676920E+02 0.  0.
          6    2    1    2  501    0  0.77047402309E+02  0.71357043936E+02  0.30186860267E+03  0.36216039494E+03  0.17031549684E+03 0.  0.
         24    2    5    5    0    0 -0.97538529453E+01  0.77607152653E+02  0.17939382165E+03  0.21184178745E+03  0.81097422107E+02 0.  0.
          5    1    5    5  501    0  0.86801255254E+02 -0.62501087169E+01  0.12247478103E+03  0.15031860750E+03  0.47000000000E+01 0. -1.
        -11    1    6    6    0    0  0.81270684227E+01  0.35484510868E+02  0.12037372143E+02  0.38341858077E+02  0.00000000000E+00 0.  1.
         12    1    6    6    0    0 -0.17880921368E+02  0.42122641786E+02  0.16735644951E+03  0.17349992937E+03  0.00000000000E+00 0. -1.
         -5    1    3    3    0  503 -0.12410657663E+02 -0.46858070909E+02  0.11663706947E+02  0.50078291631E+02  0.47000000000E+01 0.  1.
         13    1    4    4    0    0 -0.86404189060E+01 -0.33946699395E+02  0.63772954939E+02  0.72760050992E+02  0.00000000000E+00 0. -1.
        -14    1    4    4    0    0 -0.55996325739E+02  0.94477263674E+01  0.28219881630E+03  0.28785590136E+03  0.00000000000E+00 0.  1.
</event>
<event>
12    1  0.1593360E-001  0.1772291E+03  0.7818608E-02  0.1170611E+00
         21   -1    0    0  501  502  0.00000000000E+00  0.00000000000E+00  0.14312393406E+03  0.14312393406E+03  0.00000000000E+00 0.  1.
         21   -1    0    0  502  503 -0.00000000000E+00 -0.00000000000E+00 -0.23327635457E+03  0.23327635457E+03  0.00000000000E+00 0.  1.
         -6    2    1    2    0  503  0.31918080871E+02 -0.31791458149E+02 -0.91737714889E+02  0.19956440164E+03  0.17140793847E+03 0.  0.
        -24    2    3    3    0    0 -0.33190206853E+02 -0.52825368423E+02 -0.67311288284E+02  0.12676155260E+03  0.87438963321E+02 0.  0.
          6    2    1    2  501    0 -0.31918080871E+02  0.31791458149E+02  0.15852943838E+01  0.17683588699E+03  0.17099402642E+03 0.  0.
         24    2    5    5    0    0 -0.83202987125E+02  0.77059564435E+01 -0.73343143890E+01  0.11928675648E+03  0.84814027569E+02 0.  0.
          5    1    5    5  501    0  0.51284906254E+02  0.24085501706E+02  0.89196087728E+01  0.57549130511E+02  0.47000000000E+01 0. -1.
        -11    1    6    6    0    0 -0.61538414782E+02  0.35126446199E+02 -0.30727414621E+02  0.77233527213E+02  0.00000000000E+00 0.  1.
         12    1    6    6    0    0 -0.21664572343E+02 -0.27420489755E+02  0.23393100232E+02  0.42053229266E+02  0.00000000000E+00 0. -1.
         -5    1    3    3    0  503  0.65108287723E+02  0.21033910273E+02 -0.24426426605E+02  0.72802849040E+02  0.47000000000E+01 0.  1.
         13    1    4    4    0    0 -0.20368796230E+02 -0.76687897641E+02 -0.57335273196E+02  0.97894101236E+02  0.00000000000E+00 0. -1.
        -14    1    4    4    0    0 -0.12821410623E+02  0.23862529218E+02 -0.99760150887E+01  0.28867451362E+02  0.00000000000E+00 0.  1.
</event>
<event>
12    1  0.1593360E-001  0.1875347E+03  0.7818608E-02  0.1161332E+00
         21   -1    0    0  503  502  0.00000000000E+00  0.00000000000E+00  0.87697875257E+03  0.87697875257E+03  0.00000000000E+00 0. -1.
         21   -1    0    0  501  503 -0.00000000000E+00 -0.00000000000E+00 -0.44108590327E+02  0.44108590327E+02  0.00000000000E+00 0. -1.
          6    2    1    2  501    0 -0.15433141583E+02 -0.67819928292E+02  0.56764465040E+03  0.59782081533E+03  0.17415956355E+03 0.  0.
         24    2    3    3    0    0  0.31972395453E+02 -0.73819391189E+02  0.49534883569E+03  0.51103341232E+03  0.96504626305E+02 0.  0.
         -6    2    1    2    0  502  0.15433141583E+02  0.67819928292E+02  0.26522551184E+03  0.32326652756E+03  0.17122777573E+03 0.  0.
        -24    2    5    5    0    0  0.33814842389E+02 -0.25511220700E+02  0.12787338818E+03  0.15612501217E+03  0.78924964820E+02 0.  0.
          5    1    3    3  501    0 -0.47405537036E+02  0.59994628962E+01  0.72295814712E+02  0.86787403012E+02  0.47000000000E+01 0. -1.
        -11    1    4    4    0    0  0.42280619256E+02  0.35264036472E+01  0.11074677419E+03  0.11859567564E+03  0.00000000000E+00 0.  1.
         12    1    4    4    0    0 -0.10308223803E+02 -0.77345794836E+02  0.38460206151E+03  0.39243773668E+03  0.00000000000E+00 0. -1.
         -5    1    5    5    0  502 -0.18381700806E+02  0.93331148992E+02  0.13735212365E+03  0.16714151539E+03  0.47000000000E+01 0.  1.
         13    1    6    6    0    0  0.45886412941E+02 -0.38162583612E+02  0.12484645260E+03  0.13837840297E+03  0.00000000000E+00 0. -1.
        -14    1    6    6    0    0 -0.12071570552E+02  0.12651362912E+02  0.30269355815E+01  0.17746609201E+02  0.00000000000E+00 0.  1.
</event>
<event>
12    1  0.1593360E-001  0.2130460E+03  0.7818608E-02  0.1139334E+00
         21   -1    0    0  501  502  0.00000000000E+00  0.00000000000E+00  0.27095665735E+03  0.27095665735E+03  0.00000000000E+00 0.  1.
         21   -1    0    0  502  503 -0.00000000000E+00 -0.00000000000E+00 -0.18091230892E+03  0.18091230892E+03  0.00000000000E+00 0.  1.
         -6    2    1    2    0  503 -0.10724971729E+03  0.64684477296E+02 -0.17983891508E+02  0.21299936981E+03  0.17134388732E+03 0.  0.
        -24    2    3    3    0    0 -0.55963916873E+01  0.55740752268E+02 -0.49533912710E+02  0.10608406379E+03  0.75245392004E+02 0.  0.
          6    2    1    2  501    0  0.10724971729E+03 -0.64684477296E+02  0.10802823994E+03  0.23886959646E+03  0.17234268197E+03 0.  0.
         24    2    5    5    0    0  0.14027417913E+03 -0.75442170179E+02  0.84901842283E+02  0.19687836757E+03  0.78640971652E+02 0.  0.
          5    1    5    5  501    0 -0.33024461833E+02  0.10757692883E+02  0.23126397654E+02  0.41991228894E+02  0.47000000000E+01 0. -1.
        -11    1    6    6    0    0  0.11368575072E+03 -0.19823767852E+02  0.47660982054E+02  0.12485592056E+03  0.00000000000E+00 0.  1.
         12    1    6    6    0    0  0.26588428407E+02 -0.55618402326E+02  0.37240860229E+02  0.72022447008E+02  0.00000000000E+00 0. -1.
         -5    1    3    3    0  503 -0.10165332560E+03  0.89437250279E+01  0.31550021203E+02  0.10691530602E+03  0.47000000000E+01 0.  1.
         13    1    4    4    0    0  0.11768222590E+02  0.49126253734E+02  0.27554131717E+01  0.50591226222E+02  0.00000000000E+00 0. -1.
        -14    1    4    4    0    0 -0.17364614277E+02  0.66144985334E+01 -0.52289325882E+02  0.55492837565E+02  0.00000000000E+00 0.  1.
</event>
<event>
12    1  0.1593360E-001  0.2162764E+03  0.7818608E-02  0.1137508E+00
         21   -1    0    0  501  502  0.00000000000E+00  0.00000000000E+00  0.59603219131E+03  0.59603219131E+03  0.00000000000E+00 0. -1.
         21   -1    0    0  502  503 -0.00000000000E+00 -0.00000000000E+00 -0.12344732308E+03  0.12344732308E+03  0.00000000000E+00 0.  1.
         -6    2    1    2    0  503  0.54671817963E+02  0.11832392986E+03  0.14045833606E+02  0.21249476450E+03  0.16723390638E+03 0.  0.
        -24    2    3    3    0    0  0.95528732983E+02  0.10003168665E+03 -0.16324827093E+02  0.15819595514E+03  0.75015885553E+02 0.  0.
          6    2    1    2  501    0 -0.54671817963E+02 -0.11832392986E+03  0.45853903463E+03  0.50698474988E+03  0.17258600835E+03 0.  0.
         24    2    5    5    0    0 -0.43791759869E+02 -0.12998713609E+03  0.23792713435E+03  0.28574707997E+03  0.78915769467E+02 0.  0.
          5    1    5    5  501    0 -0.10880058094E+02  0.11663206228E+02  0.22061190028E+03  0.22123766992E+03  0.47000000000E+01 0. -1.
        -11    1    6    6    0    0 -0.48682729071E+02 -0.31124213982E+02  0.69448801784E+02  0.90343017854E+02  0.00000000000E+00 0.  1.
         12    1    6    6    0    0  0.48909692019E+01 -0.98862922106E+02  0.16847833256E+03  0.19540406211E+03  0.00000000000E+00 0. -1.
         -5    1    3    3    0  503 -0.40856915021E+02  0.18292243211E+02  0.30370660699E+02  0.54298809361E+02  0.47000000000E+01 0.  1.
         11    1    4    4    0    0  0.98546505220E+01  0.33499591239E+02 -0.33477489594E+02  0.48374363661E+02  0.00000000000E+00 0. -1.
        -12    1    4    4    0    0  0.85674082461E+02  0.66532095409E+02  0.17152662501E+02  0.10982159148E+03  0.00000000000E+00 0.  1.
</event>
<event>
12    1  0.1593360E-001  0.2271157E+03  0.7818608E-02  0.1128842E+00
         21   -1    0    0  503  502  0.00000000000E+00  0.00000000000E+00  0.10697238867E+03  0.10697238867E+03  0.00000000000E+00 0. -1.
         21   -1    0    0  501  503 -0.00000000000E+00 -0.00000000000E+00 -0.54363660297E+03  0.54363660297E+03  0.00000000000E+00 0. -1.
          6    2    1    2  501    0 -0.63187498425E+02 -0.13302720496E+03 -0.10697061208E+03  0.25025985138E+03  0.17175093639E+03 0.  0.
         24    2    3    3    0    0 -0.21415265159E+02 -0.62415611982E+01 -0.44230867455E+01  0.81862690224E+02  0.78640738083E+02 0.  0.
         -6    2    1    2    0  502  0.63187498425E+02  0.13302720496E+03 -0.32969360223E+03  0.40034914026E+03  0.17289495522E+03 0.  0.
        -24    2    5    5    0    0  0.92588357485E+02  0.12945091733E+03 -0.20072833052E+03  0.26794320514E+03  0.78559242440E+02 0.  0.
          5    1    3    3  501    0 -0.41772233266E+02 -0.12678564376E+03 -0.10254752533E+03  0.16839716116E+03  0.47000000000E+01 0. -1.
        -11    1    4    4    0    0  0.25498858432E+01 -0.28377179060E+02  0.25019450763E+02  0.37917530585E+02  0.00000000000E+00 0.  1.
         12    1    4    4    0    0 -0.23965151002E+02  0.22135617861E+02 -0.29442537509E+02  0.43945159638E+02  0.00000000000E+00 0. -1.
         -5    1    5    5    0  502 -0.29400859059E+02  0.35762876324E+01 -0.12896527171E+03  0.13240593512E+03  0.47000000000E+01 0.  1.
         13    1    6    6    0    0  0.50557075766E+02  0.71047693164E+02 -0.16717252848E+03  0.18854826144E+03  0.00000000000E+00 0. -1.
        -14    1    6    6    0    0  0.42031281719E+02  0.58403224162E+02 -0.33555802038E+02  0.79394943704E+02  0.00000000000E+00 0.  1.
</event>
<event>
12    1  0.1593360E-001  0.2190023E+03  0.7818608E-02  0.1134797E+00
         21   -1    0    0  503  502  0.00000000000E+00  0.00000000000E+00  0.17823959136E+04  0.17823959136E+04  0.00000000000E+00 0. -1.
         21   -1    0    0  501  503 -0.00000000000E+00 -0.00000000000E+00 -0.90501519533E+02  0.90501519533E+02  0.00000000000E+00 0.  1.
          6    2    1    2  501    0 -0.13583370010E+03  0.28897118256E+01  0.59772643416E+02  0.22614808029E+03  0.17061957918E+03 0.  0.
         24    2    3    3    0    0 -0.19851039502E+02  0.34906997510E+02  0.47654898390E+02  0.10512736352E+03  0.84665287905E+02 0.  0.
         -6    2    1    2    0  502  0.13583370010E+03 -0.28897118256E+01  0.16321217507E+04  0.16467493528E+04  0.17176401724E+03 0.  0.
        -24    2    5    5    0    0  0.33508755851E+02  0.52462217693E+02  0.89485133020E+03  0.90034196194E+03  0.77340961137E+02 0.  0.
          5    1    3    3  501    0 -0.11598266060E+03 -0.32017285684E+02  0.12117745026E+02  0.12102071677E+03  0.47000000000E+01 0. -1.
        -11    1    4    4    0    0 -0.17074085166E+02 -0.17709494200E+02 -0.10417142479E+02  0.26714554582E+02  0.00000000000E+00 0.  1.
         12    1    4    4    0    0 -0.27769543365E+01  0.52616491710E+02  0.58072040868E+02  0.78412808940E+02  0.00000000000E+00 0. -1.
         -5    1    5    5    0  502  0.10232494425E+03 -0.55351929518E+02  0.73727042046E+03  0.74640739090E+03  0.47000000000E+01 0.  1.
         13    1    6    6    0    0  0.43309149116E+02  0.67191463465E+02  0.78695780379E+03  0.79100756008E+03  0.00000000000E+00 0. -1.
        -14    1    6    6    0    0 -0.98003932649E+01 -0.14729245772E+02  0.10789352641E+03  0.10933440186E+03  0.00000000000E+00 0.  1.
</event>
<event>
12    1  0.1593360E-001  0.2351205E+03  0.7818608E-02  0.1123269E+00
         21   -1    0    0  501  502  0.00000000000E+00  0.00000000000E+00  0.16644611457E+03  0.16644611457E+03  0.00000000000E+00 0. -1.
         21   -1    0    0  502  503 -0.00000000000E+00 -0.00000000000E+00 -0.88147479883E+03  0.88147479883E+03  0.00000000000E+00 0. -1.
         -6    2    1    2    0  503 -0.71692596132E+00 -0.15917864733E+03 -0.77140792978E+03  0.80613528211E+03  0.17159703724E+03 0.  0.
        -24    2    3    3    0    0 -0.37569397091E+02 -0.17037353064E+03 -0.57266891508E+03  0.60364400822E+03  0.77445482854E+02 0.  0.
          6    2    1    2  501    0  0.71692596132E+00  0.15917864733E+03  0.56379245518E+02  0.24178563130E+03  0.17304137201E+03 0.  0.
         24    2    5    5    0    0 -0.29380515135E+02  0.90401355221E+02 -0.26767521545E+02  0.12966227626E+03  0.84024912857E+02 0.  0.
          5    1    5    5  501    0  0.30097441096E+02  0.68777292113E+02  0.83146767063E+02  0.11212335503E+03  0.47000000000E+01 0. -1.
        -13    1    6    6    0    0  0.13437061530E+02  0.21184255216E+02 -0.39987836064E+02  0.47205448041E+02  0.00000000000E+00 0.  1.
         14    1    6    6    0    0 -0.42817576665E+02  0.69217100004E+02  0.13220314519E+02  0.82456828222E+02  0.00000000000E+00 0. -1.
         -5    1    3    3    0  503  0.36852471130E+02  0.11194883307E+02 -0.19873901470E+03  0.20249127389E+03  0.47000000000E+01 0.  1.
         13    1    4    4    0    0  0.67509286899E+01 -0.78438728561E+02 -0.15706283353E+03  0.17568990538E+03  0.00000000000E+00 0. -1.
        -14    1    4    4    0    0 -0.44320325781E+02 -0.91934802080E+02 -0.41560608156E+03  0.42795410284E+03  0.00000000000E+00 0.  1.
</event>
<event>
12    1  0.1593360E-001  0.1823250E+03  0.7818608E-02  0.1167353E+00
         21   -1    0    0  503  502  0.00000000000E+00  0.00000000000E+00  0.68208119530E+03  0.68208119530E+03  0.00000000000E+00 0. -1.
         21   -1    0    0  501  503 -0.00000000000E+00 -0.00000000000E+00 -0.95945934997E+02  0.95945934997E+02  0.00000000000E+00 0. -1.
          6    2    1    2  501    0  0.13684165112E+02 -0.29165055682E+02  0.17605541270E+02  0.18317306427E+03  0.17945628867E+03 0.  0.
         24    2    3    3    0    0 -0.22075786076E+02 -0.64277354561E+02 -0.34407473173E+02  0.11079149678E+03  0.80448510912E+02 0.  0.
         -6    2    1    2    0  502 -0.13684165112E+02  0.29165055682E+02  0.56852971903E+03  0.59485406602E+03  0.17201006248E+03 0.  0.
        -24    2    5    5    0    0 -0.56132673238E+02  0.42425639543E+02  0.23740626095E+03  0.26072452016E+03  0.81637802391E+02 0.  0.
          5    1    3    3  501    0  0.35759951187E+02  0.35112298879E+02  0.52013014443E+02  0.72381567494E+02  0.47000000000E+01 0. -1.
        -13    1    4    4    0    0  0.22795783547E+02 -0.24132896264E+02  0.11441553059E+02  0.35113438539E+02  0.00000000000E+00 0.  1.
         14    1    4    4    0    0 -0.44871569623E+02 -0.40144458297E+02 -0.45849026232E+02  0.75678058239E+02  0.00000000000E+00 0. -1.
         -5    1    5    5    0  502  0.42448508126E+02 -0.13260583861E+02  0.33112345808E+03  0.33412954586E+03  0.47000000000E+01 0.  1.
         11    1    6    6    0    0 -0.73315034926E+02  0.24094560517E+02  0.20904428408E+03  0.22283436652E+03  0.00000000000E+00 0. -1.
        -12    1    6    6    0    0  0.17182361688E+02  0.18331079026E+02  0.28361976871E+02  0.37890153648E+02  0.00000000000E+00 0.  1.
</event>
<event>
12    1  0.1593360E-001  0.2102222E+03  0.7818608E-02  0.1141768E+00
         21   -1    0    0  503  502  0.00000000000E+00  0.00000000000E+00  0.70643784421E+03  0.70643784421E+03  0.00000000000E+00 0. -1.
         21   -1    0    0  501  503 -0.00000000000E+00 -0.00000000000E+00 -0.78527985441E+02  0.78527985441E+02  0.00000000000E+00 0. -1.
          6    2    1    2  501    0 -0.71709843991E+02 -0.90232515819E+02  0.13498674986E+03  0.24982957050E+03  0.17581007657E+03 0.  0.
         24    2    3    3    0    0 -0.76804456362E+02 -0.10821767622E+03  0.52409446420E+02  0.16503262414E+03  0.82939899887E+02 0.  0.
         -6    2    1    2    0  502  0.71709843991E+02  0.90232515819E+02  0.49292310891E+03  0.53513625915E+03  0.17353217546E+03 0.  0.
        -24    2    5    5    0    0  0.94768133572E+02  0.68462953274E+02  0.47939329220E+03  0.50034050492E+03  0.82792011375E+02 0.  0.
          5    1    3    3  501    0  0.50946123716E+01  0.17985160396E+02  0.82577303438E+02  0.84796946364E+02  0.47000000000E+01 0. -1.
        -13    1    4    4    0    0  0.17638067483E+02 -0.15900544720E+02  0.13669370701E+02  0.27400373032E+02  0.00000000000E+00 0.  1.
         14    1    4    4    0    0 -0.94442523845E+02 -0.92317131495E+02  0.38740075719E+02  0.13763225111E+03  0.00000000000E+00 0. -1.
         -5    1    5    5    0  502 -0.23058289581E+02  0.21769562545E+02  0.13529816707E+02  0.34795754223E+02  0.47000000000E+01 0.  1.
         13    1    6    6    0    0  0.73451553670E+02  0.10258390797E+02  0.33660420545E+03  0.34467775740E+03  0.00000000000E+00 0. -1.
        -14    1    6    6    0    0  0.21316579902E+02  0.58204562477E+02  0.14278908675E+03  0.15566274753E+03  0.00000000000E+00 0.  1.
</event>
<event>
12    1  0.1593360E-001  0.2210333E+03  0.7818608E-02  0.1133195E+00
         21   -1    0    0  503  502  0.00000000000E+00  0.00000000000E+00  0.49152663442E+03  0.49152663442E+03  0.00000000000E+00 0.  1.
         21   -1    0    0  501  503 -0.00000000000E+00 -0.00000000000E+00 -0.20678795391E+03  0.20678795391E+03  0.00000000000E+00 0. -1.
          6    2    1    2  501    0 -0.10720527808E+03 -0.88472122256E+02 -0.10954211600E+03  0.24630456305E+03  0.17130725186E+03 0.  0.
         24    2    3    3    0    0  0.35483008442E+00 -0.66525926785E+01 -0.59335833030E+02  0.10206041885E+03  0.82772006863E+02 0.  0.
         -6    2    1    2    0  502  0.10720527808E+03  0.88472122256E+02  0.39428079650E+03  0.45201002528E+03  0.17185874547E+03 0.  0.
        -24    2    5    5    0    0  0.74952560382E+02  0.10865612374E+03  0.19237794452E+03  0.24649972541E+03  0.79553765173E+02 0.  0.
          5    1    3    3  501    0 -0.10756010817E+03 -0.81819529577E+02 -0.50206282965E+02  0.14424414421E+03  0.47000000000E+01 0. -1.
        -13    1    4    4    0    0 -0.23024842564E+02  0.30928398336E+02 -0.23916904311E+02  0.45373202560E+02  0.00000000000E+00 0.  1.
         14    1    4    4    0    0  0.23379672648E+02 -0.37580991014E+02 -0.35418928719E+02  0.56687216287E+02  0.00000000000E+00 0. -1.
         -5    1    5    5    0  502  0.32252717700E+02 -0.20184001480E+02  0.20190285198E+03  0.20551029987E+03  0.47000000000E+01 0.  1.
         13    1    6    6    0    0  0.75947710448E+01  0.41486777549E+02  0.11932686506E+03  0.12656118672E+03  0.00000000000E+00 0. -1.
        -14    1    6    6    0    0  0.67357789337E+02  0.67169346186E+02  0.73051079461E+02  0.11993853869E+03  0.00000000000E+00 0.  1.
</event>
<event>
12    1  0.1593360E-001  0.1737558E+03  0.7818608E-02  0.1174192E+00
         21   -1    0    0  501  502  0.00000000000E+00  0.00000000000E+00  0.56335928291E+03  0.56335928291E+03  0.00000000000E+00 0.  1.
         21   -1    0    0  502  503 -0.00000000000E+00 -0.00000000000E+00 -0.30070647525E+03  0.30070647525E+03  0.00000000000E+00 0.  1.
         -6    2    1    2    0  503 -0.21091513003E+02  0.99355686860E+01 -0.26057250128E+03  0.31274389290E+03  0.17136845297E+03 0.  0.
        -24    2    3    3    0    0 -0.44711846808E+02  0.58368211947E+02 -0.12827556673E+03  0.16981660371E+03  0.83528800214E+02 0.  0.
          6    2    1    2  501    0  0.21091513003E+02 -0.99355686860E+01  0.52322530894E+03  0.55132186526E+03  0.17218451660E+03 0.  0.
         24    2    5    5    0    0  0.49381615124E+02  0.46338394432E+02  0.26420316271E+03  0.28471044195E+03  0.81675785023E+02 0.  0.
          5    1    5    5  501    0 -0.28290102122E+02 -0.56273963118E+02  0.25902214623E+03  0.26661142331E+03  0.47000000000E+01 0. -1.
        -11    1    6    6    0    0  0.36079222970E+02  0.51044863106E+02  0.26324818105E+03  0.27056772388E+03  0.00000000000E+00 0.  1.
         12    1    6    6    0    0  0.13302392154E+02 -0.47064686745E+01  0.95498165802E+00  0.14142718069E+02  0.00000000000E+00 0. -1.
         -5    1    3    3    0  503  0.23620333805E+02 -0.48432643261E+02 -0.13229693455E+03  0.14292728919E+03  0.47000000000E+01 0.  1.
         11    1    4    4    0    0  0.24456689330E+02  0.21022951690E+02 -0.44240169879E+02  0.54747481967E+02  0.00000000000E+00 0. -1.
        -12    1    4    4    0    0 -0.69168536138E+02  0.37345260257E+02 -0.84035396851E+02  0.11506912174E+03  0.00000000000E+00 0.  1.
</event>
<event>
12    1  0.1593360E-001  0.1810363E+03  0.7818608E-02  0.1167793E+00
         21   -1    0    0  501  502  0.00000000000E+00  0.00000000000E+00  0.29436195034E+03  0.29436195034E+03  0.00000000000E+00 0. -1.
         21   -1    0    0  502  503 -0.00000000000E+00 -0.00000000000E+00 -0.14907334065E+03  0.14907334065E+03  0.00000000000E+00 0. -1.
         -6    2    1    2    0  503 -0.39669332241E+02  0.39664695366E+01 -0.41916168067E+02  0.18582544968E+03  0.17659202644E+03 0.  0.
        -24    2    3    3    0    0 -0.61448717025E+02  0.24614569722E+02  0.30074064930E+02  0.10768858713E+03  0.79439036685E+02 0.  0.
          6    2    1    2  501    0  0.39669332241E+02 -0.39664695366E+01  0.18720477775E+03  0.25760984131E+03  0.17241755342E+03 0.  0.
         24    2    5    5    0    0 -0.33269795121E+02  0.89216078372E+01  0.49232739718E+02  0.10094270335E+03  0.81111604258E+02 0.  0.
          5    1    5    5  501    0  0.72939127363E+02 -0.12888077374E+02  0.13797203804E+03  0.15666713797E+03  0.47000000000E+01 0. -1.
        -11    1    6    6    0    0 -0.35914904002E+01 -0.15154784413E+02 -0.17879926496E+02  0.23711981474E+02  0.00000000000E+00 0.  1.
         12    1    6    6    0    0 -0.29678304721E+02  0.24076392250E+02  0.67112666214E+02  0.77230721874E+02  0.00000000000E+00 0. -1.
         -5    1    3    3    0  503  0.21779384784E+02 -0.20648100185E+02 -0.71990232997E+02  0.78136862554E+02  0.47000000000E+01 0.  1.
         11    1    4    4    0    0 -0.15078639058E+02 -0.26465522726E+02  0.23337723968E+02  0.38372367779E+02  0.00000000000E+00 0. -1.
        -12    1    4    4    0    0 -0.46370077967E+02  0.51080092447E+02  0.67363409619E+01  0.69316219348E+02  0.00000000000E+00 0.  1.
</event>
<event>
12    1  0.1593360E-001  0.1920678E+03  0.7818608E-02  0.1156672E+00
         21   -1    0    0  501  502  0.00000000000E+00  0.00000000000E+00  0.96518009539E+02  0.96518009539E+02  0.00000000000E+00 0. -1.
         21   -1    0    0  502  503 -0.00000000000E+00 -0.00000000000E+00 -0.38942124691E+03  0.38942124691E+03  0.00000000000E+00 0.  1.
         -6    2    1    2    0  503 -0.28751612457E+02 -0.83136533567E+02 -0.18066362437E+03  0.26348078172E+03  0.17042429032E+03 0.  0.
        -24    2    3    3    0    0 -0.56772008011E+02 -0.37211129830E+00 -0.57432364174E+02  0.11234135718E+03  0.78095484617E+02 0.  0.
          6    2    1    2  501    0  0.28751612457E+02  0.83136533567E+02 -0.11223961300E+03  0.22245847473E+03  0.17073870042E+03 0.  0.
         24    2    5    5    0    0  0.73365580846E+02  0.71195249360E+02 -0.11838574869E+03  0.17563043369E+03  0.79872346656E+02 0.  0.
          5    1    5    5  501    0 -0.44613968389E+02  0.11941284207E+02  0.61461356911E+01  0.46828041042E+02  0.47000000000E+01 0. -1.
        -11    1    6    6    0    0  0.64650653572E+02  0.78909895307E+01 -0.50627709235E+02  0.82493270425E+02  0.00000000000E+00 0.  1.
         12    1    6    6    0    0  0.87149272748E+01  0.63304259830E+02 -0.67758039456E+02  0.93137163264E+02  0.00000000000E+00 0. -1.
         -5    1    3    3    0  503  0.28020395554E+02 -0.82764422269E+02 -0.12323126020E+03  0.15113942454E+03  0.47000000000E+01 0.  1.
         13    1    4    4    0    0  0.18911507462E+02 -0.72440043434E+01 -0.85482072189E+01  0.21981641433E+02  0.00000000000E+00 0. -1.
        -14    1    4    4    0    0 -0.75683515473E+02  0.68718930451E+01 -0.48884156955E+02  0.90359715745E+02  0.00000000000E+00 0.  1.
</event>
<event>
12    1  0.1593360E-001  0.1766591E+03  0.7818608E-02  0.1171781E+00
         21   -1    0    0  503  502  0.00000000000E+00  0.00000000000E+00  0.36106576893E+03  0.36106576893E+03  0.00000000000E+00 0. -1.
         21   -1    0    0  501  503 -0.00000000000E+00 -0.00000000000E+00 -0.12834640457E+03  0.12834640457E+03  0.00000000000E+00 0. -1.
          6    2    1    2  501    0 -0.25401087995E+02  0.96627980925E+01 -0.26368771820E+02  0.17582789088E+03  0.17170192237E+03 0.  0.
         24    2    3    3    0    0 -0.25125158046E+02 -0.58704926202E+02 -0.29580066621E+02  0.10722304938E+03  0.80896600976E+02 0.  0.
         -6    2    1    2    0  502  0.25401087995E+02 -0.96627980925E+01  0.25908813618E+03  0.31358428263E+03  0.17455616593E+03 0.  0.
        -24    2    5    5    0    0  0.27357794830E+02 -0.64571982180E+02  0.10201405151E+03  0.14711144618E+03  0.79479060589E+02 0.  0.
          5    1    3    3  501    0 -0.27592994871E+00  0.68367724294E+02  0.32112948001E+01  0.68604841497E+02  0.47000000000E+01 0. -1.
        -13    1    4    4    0    0 -0.30866228709E+02 -0.20476122137E+02  0.21757842181E+02  0.42958111561E+02  0.00000000000E+00 0.  1.
         14    1    4    4    0    0  0.57410706630E+01 -0.38228804065E+02 -0.51337908802E+02  0.64264937818E+02  0.00000000000E+00 0. -1.
         -5    1    5    5    0  502 -0.19567068352E+01  0.54909184087E+02  0.15707408467E+03  0.16647283644E+03  0.47000000000E+01 0.  1.
         11    1    6    6    0    0  0.42401903854E+02 -0.25661719836E+02  0.91544985084E+02  0.10410057449E+03  0.00000000000E+00 0. -1.
        -12    1    6    6    0    0 -0.15044109024E+02 -0.38910262343E+02  0.10469066428E+02  0.43010871693E+02  0.00000000000E+00 0.  1.
</event>
<event>
12    1  0.1593360E-001  0.2141924E+03  0.7818608E-02  0.1138503E+00
         21   -1    0    0  503  502  0.00000000000E+00  0.00000000000E+00  0.43945731448E+03  0.43945731448E+03  0.00000000000E+00 0.  1.
         21   -1    0    0  501  503 -0.00000000000E+00 -0.00000000000E+00 -0.11117162435E+03  0.11117162435E+03  0.00000000000E+00 0.  1.
          6    2    1    2  501    0 -0.11785111917E+03 -0.48487950546E+02  0.23515905125E+03  0.31808516365E+03  0.17215813751E+03 0.  0.
         24    2    3    3    0    0 -0.13020372919E+03  0.10893228129E+02  0.15927811364E+03  0.22082922271E+03  0.79525810928E+02 0.  0.
         -6    2    1    2    0  502  0.11785111917E+03  0.48487950546E+02  0.93126638881E+02  0.23254377519E+03  0.17077490703E+03 0.  0.
        -24    2    5    5    0    0  0.33121342195E+02 -0.26354729472E+02  0.71135940662E+01  0.90413919997E+02  0.79576872484E+02 0.  0.
          5    1    3    3  501    0  0.12352610021E+02 -0.59381178675E+02  0.75880937608E+02  0.97255940936E+02  0.47000000000E+01 0. -1.
        -11    1    4    4    0    0 -0.79901940786E+02 -0.13643709522E+02  0.13974316262E+03  0.16155068075E+03  0.00000000000E+00 0.  1.
         12    1    4    4    0    0 -0.50301788404E+02  0.24536937651E+02  0.19534951021E+02  0.59278541963E+02  0.00000000000E+00 0. -1.
         -5    1    5    5    0  502  0.84729776974E+02  0.74842680018E+02  0.86013044815E+02  0.14212985519E+03  0.47000000000E+01 0.  1.
         11    1    6    6    0    0  0.48371580993E+02 -0.29714569527E+02  0.28826291857E+02  0.63668835329E+02  0.00000000000E+00 0. -1.
        -12    1    6    6    0    0 -0.15250238798E+02  0.33598400547E+01 -0.21712697790E+02  0.26745084669E+02  0.00000000000E+00 0.  1.
</event>
<event>
12    1  0.1593360E-001  0.2107045E+03  0.7818608E-02  0.1141099E+00
         21   -1    0    0  503  502  0.00000000000E+00  0.00000000000E+00  0.28697759436E+03  0.28697759436E+03  0.00000000000E+00 0.  1.
         21   -1    0    0  501  503 -0.00000000000E+00 -0.00000000000E+00 -0.23051920109E+03  0.23051920109E+03  0.00000000000E+00 0. -1.
          6    2    1    2  501    0  0.76412314707E+02 -0.93863612538E+02 -0.12050728344E+03  0.24233641536E+03  0.17191775141E+03 0.  0.
         24    2    3    3    0    0  0.83592183390E+02 -0.11372085686E+03 -0.51880515458E+02  0.17038098506E+03  0.80112457058E+02 0.  0.
         -6    2    1    2    0  502 -0.76412314707E+02  0.93863612538E+02  0.17696567671E+03  0.27516038009E+03  0.17247366304E+03 0.  0.
        -24    2    5    5    0    0 -0.75895179718E+01  0.97328300753E+02  0.15927306063E+03  0.20386030942E+03  0.81613228108E+02 0.  0.
          5    1    3    3  501    0 -0.71798686824E+01  0.19857244323E+02 -0.68626767979E+02  0.71955430300E+02  0.47000000000E+01 0. -1.
        -11    1    4    4    0    0  0.19249287884E+02 -0.82991464361E+02 -0.56093060109E+01  0.85379052201E+02  0.00000000000E+00 0.  1.
         12    1    4    4    0    0  0.64342895506E+02 -0.30729392499E+02 -0.46271209448E+02  0.85001932855E+02  0.00000000000E+00 0. -1.
         -5    1    5    5    0  502 -0.68822796735E+02 -0.34646882151E+01  0.17692616074E+02  0.71300070676E+02  0.47000000000E+01 0.  1.
         11    1    6    6    0    0 -0.38423946251E+01  0.49310039793E+02  0.14884889672E+02  0.51650788585E+02  0.00000000000E+00 0. -1.
        -12    1    6    6    0    0 -0.37471233467E+01  0.48018260960E+02  0.14438817096E+03  0.15220952083E+03  0.00000000000E+00 0.  1.
</event>
<event>
12    1  0.1593360E-001  0.1829948E+03  0.7818608E-02  0.1165306E+00
         21   -1    0    0  501  502  0.00000000000E+00  0.00000000000E+00  0.10340032180E+03  0.10340032180E+03  0.00000000000E+00 0.  1.
         21   -1    0    0  502  503 -0.00000000000E+00 -0.00000000000E+00 -0.33859520798E+03  0.33859520798E+03  0.00000000000E+00 0.  1.
         -6    2    1    2    0  503  0.58425831954E+02 -0.60165229769E+01 -0.16829633485E+03  0.24861766020E+03  0.17331274694E+03 0.  0.
        -24    2    3    3    0    0  0.33116894619E+02 -0.54509211658E+02 -0.47970840602E+02  0.11635883165E+03  0.84676993859E+02 0.  0.
          6    2    1    2  501    0 -0.58425831954E+02  0.60165229769E+01 -0.66898551337E+02  0.19337786958E+03  0.17166772523E+03 0.  0.
         24    2    5    5    0    0 -0.38011524487E+02  0.70104816539E+02 -0.39163960921E+02  0.12047141701E+03  0.81363291385E+02 0.  0.
          5    1    5    5  501    0 -0.20414307466E+02 -0.64088293563E+02 -0.27734590416E+02  0.72906452572E+02  0.47000000000E+01 0. -1.
        -11    1    6    6    0    0  0.75677859192E+01 -0.32403035834E+00  0.17613339238E+02  0.19173056577E+02  0.00000000000E+00 0.  1.
         12    1    6    6    0    0 -0.45579310407E+02  0.70428846898E+02 -0.56777300159E+02  0.10129836043E+03  0.00000000000E+00 0. -1.
         -5    1    3    3    0  503  0.25308937335E+02  0.48492688681E+02 -0.12032549425E+03  0.13225882855E+03  0.47000000000E+01 0.  1.
         11    1    4    4    0    0  0.36269598550E+02  0.45684856649E+01  0.50644716706E+01  0.36905334486E+02  0.00000000000E+00 0. -1.
        -12    1    4    4    0    0 -0.31527039303E+01 -0.59077697323E+02 -0.53035312273E+02  0.79453497160E+02  0.00000000000E+00 0.  1.
</event>
<event>
12    1  0.1593360E-001  0.2620777E+03  0.7818608E-02  0.1106798E+00
         21   -1    0    0  501  502  0.00000000000E+00  0.00000000000E+00  0.20346397046E+03  0.20346397046E+03  0.00000000000E+00 0.  1.
         21   -1    0    0  502  503 -0.00000000000E+00 -0.00000000000E+00 -0.45343324306E+03  0.45343324306E+03  0.00000000000E+00 0.  1.
         -6    2    1    2    0  503 -0.87083800125E+01  0.19722653113E+03 -0.29742791796E+03  0.39641910150E+03  0.17236762220E+03 0.  0.
        -24    2    3    3    0    0  0.44095625685E+02  0.16684985057E+03 -0.17006487935E+03  0.25515891834E+03  0.80004459756E+02 0.  0.
          6    2    1    2  501    0  0.87083800125E+01 -0.19722653113E+03  0.47458645363E+02  0.26047811203E+03  0.16316367048E+03 0.  0.
         24    2    5    5    0    0 -0.10035389317E+02 -0.95637797729E+02 -0.33561211310E+02  0.12910875937E+03  0.79343679323E+02 0.  0.
          5    1    5    5  501    0  0.18743769330E+02 -0.10158873340E+03  0.81019856673E+02  0.13136935266E+03  0.47000000000E+01 0. -1.
        -13    1    6    6    0    0  0.58505929344E+01 -0.10420499143E+03 -0.19375426938E+02  0.10615232850E+03  0.00000000000E+00 0.  1.
         14    1    6    6    0    0 -0.15885982252E+02  0.85671937035E+01 -0.14185784372E+02  0.22956430870E+02  0.00000000000E+00 0. -1.
         -5    1    3    3    0  503 -0.52804005697E+02  0.30376680559E+02 -0.12736303861E+03  0.14126018315E+03  0.47000000000E+01 0.  1.
         11    1    4    4    0    0  0.47100137772E+02  0.62009334450E+02 -0.10846945525E+03  0.13352603963E+03  0.00000000000E+00 0. -1.
        -12    1    4    4    0    0 -0.30045120876E+01  0.10484051612E+03 -0.61595424098E+02  0.12163287871E+03  0.00000000000E+00 0.  1.
</event>
<event>
12    1  0.1593360E-001  0.2584664E+03  0.7818608E-02  0.1108223E+00
         21   -1    0    0  501  502  0.00000000000E+00  0.00000000000E+00  0.41296921066E+03  0.41296921066E+03  0.00000000000E+00 0. -1.
         21   -1    0    0  502  503 -0.00000000000E+00 -0.00000000000E+00 -0.16381824079E+03  0.16381824079E+03  0.00000000000E+00 0. -1.
         -6    2    1    2    0  503 -0.19003165532E+03  0.18330302827E+02  0.16177176525E+03  0.30491802418E+03  0.17423222265E+03 0.  0.
        -24    2    3    3    0    0 -0.73797686010E+02 -0.26667008285E+02  0.15178746768E+02  0.11244283955E+03  0.79093425903E+02 0.  0.
          6    2    1    2  501    0  0.19003165532E+03 -0.18330302827E+02  0.87379204625E+02  0.27186942728E+03  0.17271314385E+03 0.  0.
         24    2    5    5    0    0  0.94662940832E+02 -0.58194493244E+02 -0.39790780416E+01  0.13383765125E+03  0.74491693625E+02 0.  0.
          5    1    5    5  501    0  0.95368714490E+02  0.39864190416E+02  0.91358282666E+02  0.13803177603E+03  0.47000000000E+01 0. -1.
        -13    1    6    6    0    0 -0.30501897197E+00 -0.18795377515E+02 -0.22550115880E+02  0.29357571062E+02  0.00000000000E+00 0.  1.
         14    1    6    6    0    0  0.94967959804E+02 -0.39399115729E+02  0.18571037838E+02  0.10448008019E+03  0.00000000000E+00 0. -1.
         -5    1    3    3    0  503 -0.11623396931E+03  0.44997311113E+02  0.14659301848E+03  0.19247518463E+03  0.47000000000E+01 0.  1.
         11    1    4    4    0    0 -0.86447862021E+02 -0.87431576993E+01  0.21696501157E+02  0.89556763100E+02  0.00000000000E+00 0. -1.
        -12    1    4    4    0    0  0.12650176011E+02 -0.17923850586E+02 -0.65177543894E+01  0.22886076449E+02  0.00000000000E+00 0.  1.
</event>
<event>
12    1  0.1593360E-001  0.1825389E+03  0.7818608E-02  0.1165397E+00
         21   -1    0    0  501  502  0.00000000000E+00  0.00000000000E+00  0.34154643369E+03  0.34154643369E+03  0.00000000000E+00 0.  1.
         21   -1    0    0  502  503 -0.00000000000E+00 -0.00000000000E+00 -0.10989836133E+03  0.10989836133E+03  0.00000000000E+00 0.  1.
         -6    2    1    2    0  503  0.10077984155E+02 -0.59323810363E+02  0.39953940800E+02  0.18674290564E+03  0.17220834818E+03 0.  0.
        -24    2    3    3    0    0 -0.51611459995E+02 -0.51850415501E+02  0.54402535494E+02  0.12277188846E+03  0.82225861735E+02 0.  0.
          6    2    1    2  501    0 -0.10077984155E+02  0.59323810363E+02  0.19169413156E+03  0.26470188938E+03  0.17233563162E+03 0.  0.
         24    2    5    5    0    0  0.59617507603E+00  0.88975451206E+02  0.19817445239E+03  0.23218663083E+03  0.81978848584E+02 0.  0.
          5    1    5    5  501    0 -0.10674159231E+02 -0.29651640843E+02 -0.64803208334E+01  0.32515258542E+02  0.47000000000E+01 0. -1.
        -13    1    6    6    0    0 -0.14269234994E+02  0.72342612158E+02  0.19642663954E+03  0.20981060346E+03  0.00000000000E+00 0.  1.
         14    1    6    6    0    0  0.14865410070E+02  0.16632839048E+02  0.17478128480E+01  0.22376027375E+02  0.00000000000E+00 0. -1.
         -5    1    3    3    0  503  0.61689444150E+02 -0.74733948616E+01 -0.14448594694E+02  0.63971017179E+02  0.47000000000E+01 0.  1.
         13    1    4    4    0    0 -0.44565156302E+02 -0.62744562193E+02  0.11332961279E+02  0.77790547320E+02  0.00000000000E+00 0. -1.
        -14    1    4    4    0    0 -0.70463036932E+01  0.10894146692E+02  0.43069574215E+02  0.44981341142E+02  0.00000000000E+00 0.  1.
</event>
<event>
12    1  0.1593360E-001  0.2080874E+03  0.7818608E-02  0.1143352E+00
         21   -1    0    0  501  502  0.00000000000E+00  0.00000000000E+00  0.39586012347E+03  0.39586012347E+03  0.00000000000E+00 0.  1.
         21   -1    0    0  502  503 -0.00000000000E+00 -0.00000000000E+00 -0.37648648033E+03  0.37648648033E+03  0.00000000000E+00 0. -1.
         -6    2    1    2    0  503  0.81365986458E+02  0.80375134653E+02 -0.31601072830E+03  0.37765300180E+03  0.17227426781E+03 0.  0.
        -24    2    3    3    0    0  0.11253385740E+03  0.18713395914E+02 -0.22340654164E+03  0.26201896015E+03  0.75692749861E+02 0.  0.
          6    2    1    2  501    0 -0.81365986458E+02 -0.80375134653E+02  0.33538437144E+03  0.39469360200E+03  0.17383836411E+03 0.  0.
         24    2    5    5    0    0 -0.60929699328E+02 -0.84903767306E+02  0.34642452554E+03  0.37056632806E+03  0.79927302177E+02 0.  0.
          5    1    5    5  501    0 -0.20436287130E+02  0.45286326533E+01 -0.11040154102E+02  0.24127273944E+02  0.47000000000E+01 0. -1.
        -11    1    6    6    0    0 -0.47032386888E+02 -0.33757897237E+02  0.27827451306E+03  0.28423290742E+03  0.00000000000E+00 0.  1.
         12    1    6    6    0    0 -0.13897312440E+02 -0.51145870069E+02  0.68150012479E+02  0.86333420638E+02  0.00000000000E+00 0. -1.
         -5    1    3    3    0  503 -0.31167870941E+02  0.61661738739E+02 -0.92604186651E+02  0.11563404165E+03  0.47000000000E+01 0.  1.
         13    1    4    4    0    0 -0.29363706257E+01  0.62217879438E+01 -0.66230199558E+02  0.66586577110E+02  0.00000000000E+00 0. -1.
        -14    1    4    4    0    0  0.11547022803E+03  0.12491607970E+02 -0.15717634209E+03  0.19543238304E+03  0.00000000000E+00 0.  1.
</event>
<event>
12    1  0.1593360E-001  0.1798295E+03  0.7818608E-02  0.1167973E+00
         21   -1    0    0  503  502  0.00000000000E+00  0.00000000000E+00  0.75217180429E+02  0.75217180429E+02  0.00000000000E+00 0.  1.
         21   -1    0    0  501  503 -0.00000000000E+00 -0.00000000000E+00 -0.12511363475E+04  0.12511363475E+04  0.00000000000E+00 0.  1.
          6    2    1    2  501    0  0.50688687166E+02  0.16049584026E+00 -0.11252652479E+04  0.11395440003E+04  0.17253776924E+03 0.  0.
         24    2    3    3    0    0  0.46484838824E+02 -0.55327229603E+02 -0.46685705755E+03  0.47877172857E+03  0.77749040644E+02 0.  0.
         -6    2    1    2    0  502 -0.50688687166E+02 -0.16049584026E+00 -0.50653919226E+02  0.18680952764E+03  0.17251843762E+03 0.  0.
        -24    2    5    5    0    0 -0.71211436345E+02 -0.47302467266E+02 -0.47281298824E+01  0.11770947822E+03  0.80774835033E+02 0.  0.
          5    1    3    3  501    0  0.42038483419E+01  0.55487725443E+02 -0.65840819031E+03  0.66077227173E+03  0.47000000000E+01 0. -1.
        -13    1    4    4    0    0  0.45424494148E+02 -0.83457544620E+01 -0.11721402704E+03  0.12598477853E+03  0.00000000000E+00 0.  1.
         14    1    4    4    0    0  0.10603446762E+01 -0.46981475141E+02 -0.34964303051E+03  0.35278695005E+03  0.00000000000E+00 0. -1.
         -5    1    5    5    0  502  0.20522749179E+02  0.47141971426E+02 -0.45925789344E+02  0.69100049426E+02  0.47000000000E+01 0.  1.
         13    1    6    6    0    0 -0.42027861151E+02 -0.51662796499E+02 -0.35169107365E+02  0.75314353000E+02  0.00000000000E+00 0. -1.
        -14    1    6    6    0    0 -0.29183575194E+02  0.43603292331E+01  0.30440977483E+02  0.42395125218E+02  0.00000000000E+00 0.  1.
</event>
<event>
12    1  0.1593360E-001  0.1971406E+03  0.7818608E-02  0.1152599E+00
         21   -1    0    0  503  502  0.00000000000E+00  0.00000000000E+00  0.58933222029E+03  0.58933222029E+03  0.00000000000E+00 0.  1.
         21   -1    0    0  501  503 -0.00000000000E+00 -0.00000000000E+00 -0.78976791916E+02  0.78976791916E+02  0.00000000000E+00 0.  1.
          6    2    1    2  501    0  0.91457566702E+02 -0.14390318246E+02  0.11713346441E+03  0.22931347473E+03  0.17404842270E+03 0.  0.
         24    2    3    3    0    0  0.83693145366E-01 -0.18431339464E+02  0.94630435735E+00  0.81370712892E+02  0.79250086092E+02 0.  0.
         -6    2    1    2    0  502 -0.91457566702E+02  0.14390318246E+02  0.39322196396E+03  0.43899553747E+03  0.17181967643E+03 0.  0.
        -24    2    5    5    0    0  0.16824866299E+01  0.27688436284E+02  0.10951320295E+03  0.14005631195E+03  0.82783746179E+02 0.  0.
          5    1    3    3  501    0  0.91373873556E+02  0.40410212181E+01  0.11618716005E+03  0.14794276184E+03  0.47000000000E+01 0. -1.
        -11    1    4    4    0    0  0.60240186368E+01  0.13721158158E+02 -0.31763779138E+02  0.35121170921E+02  0.00000000000E+00 0.  1.
         12    1    4    4    0    0 -0.59403254914E+01 -0.32152497622E+02  0.32710083495E+02  0.46249541971E+02  0.00000000000E+00 0. -1.
         -5    1    5    5    0  502 -0.93140053331E+02 -0.13298118038E+02  0.28370876101E+03  0.29893922552E+03  0.47000000000E+01 0.  1.
         13    1    6    6    0    0  0.36997565668E+01  0.57129131439E+02  0.64608740871E+02  0.86323318139E+02  0.00000000000E+00 0. -1.
        -14    1    6    6    0    0 -0.20172699368E+01 -0.29440695155E+02  0.44904462078E+02  0.53732993810E+02  0.00000000000E+00 0.  1.
</event>
<event>
12    1  0.1593360E-001  0.2090619E+03  0.7818608E-02  0.1142371E+00
         21   -1    0    0  503  502  0.00000000000E+00  0.00000000000E+00  0.40051440641E+03  0.40051440641E+03  0.00000000000E+00 0.  1.
         21   -1    0    0  501  503 -0.00000000000E+00 -0.00000000000E+00 -0.21353764543E+03  0.21353764543E+03  0.00000000000E+00 0. -1.
          6    2    1    2  501    0  0.11136039114E+03 -0.38738856719E+02 -0.12139524231E+03  0.24149312076E+03  0.17227967606E+03 0.  0.
         24    2    3    3    0    0 -0.55132213700E+01  0.11404215772E+02 -0.30387935256E+02  0.85038050665E+02  0.78406579473E+02 0.  0.
         -6    2    1    2    0  502 -0.11136039114E+03  0.38738856719E+02  0.30837200329E+03  0.37255893108E+03  0.17264133044E+03 0.  0.
        -24    2    5    5    0    0 -0.73213083554E+02 -0.42309136251E+02  0.14299789374E+03  0.18442419119E+03  0.80085367393E+02 0.  0.
          5    1    3    3  501    0  0.11687361251E+03 -0.50143072491E+02 -0.91007307054E+02  0.15645507009E+03  0.47000000000E+01 0. -1.
        -13    1    4    4    0    0 -0.27584154016E+01  0.83771066005E+01  0.26538001419E+02  0.27965162074E+02  0.00000000000E+00 0.  1.
         14    1    4    4    0    0 -0.27548059685E+01  0.30271091712E+01 -0.56925936675E+02  0.57072888591E+02  0.00000000000E+00 0. -1.
         -5    1    5    5    0  502 -0.38147307589E+02  0.81047992971E+02  0.16537410956E+03  0.18813473989E+03  0.47000000000E+01 0.  1.
         11    1    6    6    0    0 -0.48177176580E+02 -0.59560283397E+02  0.13096765355E+03  0.15172670819E+03  0.00000000000E+00 0. -1.
        -12    1    6    6    0    0 -0.25035906974E+02  0.17251147146E+02  0.12030240186E+02  0.32697483004E+02  0.00000000000E+00 0.  1.
</event>
<event>
12    1  0.1593360E-001  0.2147425E+03  0.7818608E-02  0.1137933E+00
         21   -1    0    0  501  502  0.00000000000E+00  0.00000000000E+00  0.35394797677E+03  0.35394797677E+03  0.00000000000E+00 0. -1.
         21   -1    0    0  502  503 -0.00000000000E+00 -0.00000000000E+00 -0.23336216238E+03  0.23336216238E+03  0.00000000000E+00 0. -1.
         -6    2    1    2    0  503  0.87573197231E+02 -0.95268516952E+02 -0.13504757293E+03  0.25367737302E+03  0.17137446553E+03 0.  0.
        -24    2    3    3    0    0  0.10575004061E+03 -0.21814782261E+02 -0.11432173799E+03  0.17508030559E+03  0.76972058658E+02 0.  0.
          6    2    1    2  501    0 -0.87573197231E+02  0.95268516952E+02  0.25563338732E+03  0.33363276613E+03  0.17093050847E+03 0.  0.
         24    2    5    5    0    0 -0.65889155111E+02 -0.16377339315E+01  0.18161161111E+03  0.20968788928E+03  0.81499513424E+02 0.  0.
          5    1    5    5  501    0 -0.21684042120E+02  0.96906250884E+02  0.74021776207E+02  0.12394487684E+03  0.47000000000E+01 0. -1.
        -11    1    6    6    0    0  0.27889565000E+01 -0.97820117575E+01 -0.45141848610E+01  0.11128517302E+02  0.00000000000E+00 0.  1.
         12    1    6    6    0    0 -0.68678111611E+02  0.81442778260E+01  0.18612579597E+03  0.19855937198E+03  0.00000000000E+00 0. -1.
         -5    1    3    3    0  503 -0.18176843376E+02 -0.73453734691E+02 -0.20725834933E+02  0.78597067432E+02  0.47000000000E+01 0.  1.
         11    1    4    4    0    0  0.19377290044E+02 -0.32309302813E+02 -0.64828016300E+02  0.74980278174E+02  0.00000000000E+00 0. -1.
        -12    1    4    4    0    0  0.86372750563E+02  0.10494520552E+02 -0.49493721693E+02  0.10010002742E+03  0.00000000000E+00 0.  1.
</event>
<event>
12    1  0.1593360E-001  0.2010833E+03  0.7818608E-02  0.1150860E+00
         21   -1    0    0  501  502  0.00000000000E+00  0.00000000000E+00  0.61346540686E+02  0.61346540686E+02  0.00000000000E+00 0. -1.
         21   -1    0    0  502  503 -0.00000000000E+00 -0.00000000000E+00 -0.67591314386E+03  0.67591314386E+03  0.00000000000E+00 0. -1.
         -6    2    1    2    0  503 -0.70776920281E+02 -0.14487713346E+02 -0.21654410957E+03  0.29550949397E+03  0.18765724967E+03 0.  0.
        -24    2    3    3    0    0  0.25957500543E+02 -0.28882043917E+02 -0.15867340129E+03  0.18177359901E+03  0.79727214455E+02 0.  0.
          6    2    1    2  501    0  0.70776920281E+02  0.14487713346E+02 -0.39802249361E+03  0.44175019058E+03  0.17748819448E+03 0.  0.
         24    2    5    5    0    0  0.45921016943E+02 -0.25442135167E+02 -0.84676003837E+02  0.12485853499E+03  0.75256800987E+02 0.  0.
          5    1    5    5  501    0  0.24855903338E+02  0.39929848513E+02 -0.31334648977E+03  0.31689165559E+03  0.47000000000E+01 0. -1.
        -13    1    6    6    0    0  0.37803329722E+02 -0.51602009761E+02 -0.64484577915E+02  0.90830170859E+02  0.00000000000E+00 0.  1.
         14    1    6    6    0    0  0.81176872206E+01  0.26159874594E+02 -0.20191425922E+02  0.34028364130E+02  0.00000000000E+00 0. -1.
         -5    1    3    3    0  503 -0.96734420824E+02  0.14394330571E+02 -0.57870708276E+02  0.11373589495E+03  0.47000000000E+01 0.  1.
         13    1    4    4    0    0  0.94738936704E+01 -0.55524094184E+02 -0.88216260898E+02  0.10466512496E+03  0.00000000000E+00 0. -1.
        -14    1    4    4    0    0  0.16483606873E+02  0.26642050267E+02 -0.70457140394E+02  0.77108474051E+02  0.00000000000E+00 0.  1.
</event>
<event>
12    1  0.1593360E-001  0.2493547E+03  0.7818608E-02  0.1114087E+00
         21   -1    0    0  503  502  0.00000000000E+00  0.00000000000E+00  0.19368053623E+03  0.19368053623E+03  0.00000000000E+00 0. -1.
         21   -1    0    0  501  503 -0.00000000000E+00 -0.00000000000E+00 -0.57069209565E+03  0.57069209565E+03  0.00000000000E+00 0. -1.
          6    2    1    2  501    0  0.77016319048E+02  0.16145728228E+03 -0.44330532386E+03  0.50862303284E+03  0.17371762135E+03 0.  0.
         24    2    3    3    0    0  0.29242390801E+02  0.14198148060E+03 -0.42107696391E+03  0.45225065434E+03  0.78809812613E+02 0.  0.
         -6    2    1    2    0  502 -0.77016319048E+02 -0.16145728228E+03  0.66293764443E+02  0.25574959905E+03  0.17033210738E+03 0.  0.
        -24    2    5    5    0    0 -0.10136426587E+03 -0.16762997361E+03  0.35879781623E+02  0.21602523645E+03  0.83696007109E+02 0.  0.
          5    1    3    3  501    0  0.47773928247E+02  0.19475801683E+02 -0.22228359958E+02  0.56372378501E+02  0.47000000000E+01 0. -1.
        -13    1    4    4    0    0 -0.13805182090E+02  0.40265370323E+01 -0.88091935090E+02  0.89257969286E+02  0.00000000000E+00 0.  1.
         14    1    4    4    0    0  0.43047572890E+02  0.13795494357E+03 -0.33298502882E+03  0.36299268505E+03  0.00000000000E+00 0. -1.
         -5    1    5    5    0  502  0.24347946820E+02  0.61726913291E+01  0.30413982820E+02  0.39724362595E+02  0.47000000000E+01 0.  1.
         13    1    6    6    0    0 -0.53369068111E+02 -0.19360469285E+02  0.36942222473E+01  0.56892288406E+02  0.00000000000E+00 0. -1.
        -14    1    6    6    0    0 -0.47995197757E+02 -0.14826950433E+03  0.32185559376E+02  0.15913294805E+03  0.00000000000E+00 0.  1.
</event>
<event>
12    1  0.1593360E-001  0.1752445E+03  0.7818608E-02  0.1172561E+00
         21   -1    0    0  501  502  0.00000000000E+00  0.00000000000E+00  0.72113378803E+02  0.72113378803E+02  0.00000000000E+00 0. -1.
         21   -1    0    0  502  503 -0.00000000000E+00 -0.00000000000E+00 -0.43811600664E+03  0.43811600664E+03  0.00000000000E+00 0. -1.
         -6    2    1    2    0  503  0.26390506121E+02 -0.15420216178E+02 -0.22675557962E+03  0.28639828805E+03  0.17225459249E+03 0.  0.
        -24    2    3    3    0    0  0.54900436321E+02 -0.10139508980E+02 -0.54589477236E+02  0.11174446245E+03  0.79937139762E+02 0.  0.
          6    2    1    2  501    0 -0.26390506121E+02  0.15420216178E+02 -0.13924704822E+03  0.22383109739E+03  0.17255833170E+03 0.  0.
         24    2    5    5    0    0  0.36992055335E+02  0.37460625104E+02 -0.12036701419E+03  0.15396211710E+03  0.80277050300E+02 0.  0.
          5    1    5    5  501    0 -0.63382561456E+02 -0.22040408926E+02 -0.18880034036E+02  0.69868980296E+02  0.47000000000E+01 0. -1.
        -13    1    6    6    0    0  0.12541136492E+02  0.23460747451E+02 -0.12283158403E+03  0.12567929349E+03  0.00000000000E+00 0.  1.
         14    1    6    6    0    0  0.24450918844E+02  0.13999877653E+02  0.24645698473E+01  0.28282823606E+02  0.00000000000E+00 0. -1.
         -5    1    3    3    0  503 -0.28509930200E+02 -0.52807071985E+01 -0.17216610238E+03  0.17465382560E+03  0.47000000000E+01 0.  1.
         11    1    4    4    0    0  0.37301460458E+02  0.18611323531E+02 -0.64329924691E+02  0.76655851222E+02  0.00000000000E+00 0. -1.
        -12    1    4    4    0    0  0.17598975863E+02 -0.28750832510E+02  0.97404474546E+01  0.35088611230E+02  0.00000000000E+00 0.  1.
</event>
<event>
12    1  0.1593360E-001  0.1805623E+03  0.7818608E-02  0.1167902E+00
         21   -1    0    0  503  502  0.00000000000E+00  0.00000000000E+00  0.15460914275E+03  0.15460914275E+03  0.00000000000E+00 0. -1.
         21   -1    0    0  501  503 -0.00000000000E+00 -0.00000000000E+00 -0.58893006430E+03  0.58893006430E+03  0.00000000000E+00 0. -1.
          6    2    1    2  501    0 -0.45451689156E+02 -0.82839983822E+00 -0.51679693915E+03  0.54743203000E+03  0.17474612691E+03 0.  0.
         24    2    3    3    0    0 -0.95692183567E+02  0.19722570355E+02 -0.35444666934E+03  0.37618323509E+03  0.79595296191E+02 0.  0.
         -6    2    1    2    0  502  0.45451689156E+02  0.82839983822E+00  0.82476017594E+02  0.19610717704E+03  0.17201508398E+03 0.  0.
        -24    2    5    5    0    0 -0.10822129284E+02  0.46136440677E+02  0.79008270432E+02  0.12362492765E+03  0.82432556062E+02 0.  0.
          5    1    3    3  501    0  0.50240494412E+02 -0.20550970193E+02 -0.16235026981E+03  0.17124879492E+03  0.47000000000E+01 0. -1.
        -11    1    4    4    0    0 -0.12403115241E+02  0.28010303903E+02 -0.18126758388E+03  0.18383783985E+03  0.00000000000E+00 0.  1.
         12    1    4    4    0    0 -0.83289068326E+02 -0.82877335475E+01 -0.17317908546E+03  0.19234539524E+03  0.00000000000E+00 0. -1.
         -5    1    5    5    0  502  0.56273818440E+02 -0.45308040839E+02  0.34677471625E+01  0.72482249392E+02  0.47000000000E+01 0.  1.
         13    1    6    6    0    0  0.34064310975E+02  0.66845157677E+01  0.22425158634E+02  0.41327324774E+02  0.00000000000E+00 0. -1.
        -14    1    6    6    0    0 -0.44886440259E+02  0.39451924910E+02  0.56583111797E+02  0.82297602874E+02  0.00000000000E+00 0.  1.
</event>
<event>
12    1  0.1593360E-001  0.2281633E+03  0.7818608E-02  0.1128622E+00
         21   -1    0    0  503  502  0.00000000000E+00  0.00000000000E+00  0.77457213841E+03  0.77457213841E+03  0.00000000000E+00 0. -1.
         21   -1    0    0  501  503 -0.00000000000E+00 -0.00000000000E+00 -0.82321036861E+02  0.82321036861E+02  0.00000000000E+00 0. -1.
          6    2    1    2  501    0 -0.13115325459E+03  0.70327470844E+02  0.15356020208E+03  0.27187489426E+03  0.16789310028E+03 0.  0.
         24    2    3    3    0    0 -0.37376501040E+01  0.11218523929E+02  0.75636929441E+02  0.11118036949E+03  0.80624463767E+02 0.  0.
         -6    2    1    2    0  502  0.13115325459E+03 -0.70327470844E+02  0.53869089947E+03  0.58501828101E+03  0.17294905205E+03 0.  0.
        -24    2    5    5    0    0  0.10314190604E+03 -0.65589485776E+02  0.53633361235E+03  0.55612657022E+03  0.81748302354E+02 0.  0.
          5    1    3    3  501    0 -0.12741560448E+03  0.59108946915E+02  0.77923272644E+02  0.16069452477E+03  0.47000000000E+01 0. -1.
        -11    1    4    4    0    0 -0.85542825885E+01 -0.25609371502E+02  0.93799212984E-01  0.27000452915E+02  0.00000000000E+00 0.  1.
         12    1    4    4    0    0  0.48166324845E+01  0.36827895431E+02  0.75543130228E+02  0.84179916577E+02  0.00000000000E+00 0. -1.
         -5    1    5    5    0  502  0.28011348552E+02 -0.47379850676E+01  0.23572871167E+01  0.28891710797E+02  0.47000000000E+01 0.  1.
         13    1    6    6    0    0  0.26652410022E+02 -0.55466796377E+02  0.14943921208E+03  0.16161372023E+03  0.00000000000E+00 0. -1.
        -14    1    6    6    0    0  0.76489496013E+02 -0.10122689399E+02  0.38689440027E+03  0.39451284998E+03  0.00000000000E+00 0.  1.
</event>
<event>
12    1  0.1593360E-001  0.1885726E+03  0.7818608E-02  0.1160743E+00
         21   -1    0    0  503  502  0.00000000000E+00  0.00000000000E+00  0.15564595495E+03  0.15564595495E+03  0.00000000000E+00 0. -1.
         21   -1    0    0  501  503 -0.00000000000E+00 -0.00000000000E+00 -0.22448225839E+03  0.22448225839E+03  0.00000000000E+00 0. -1.
          6    2    1    2  501    0 -0.32906660533E+02 -0.56178224065E+02 -0.48578418212E+02  0.19472927424E+03  0.17697679611E+03 0.  0.
         24    2    3    3    0    0  0.24175125836E+02 -0.79645238502E+02  0.28592777635E+01  0.11424972609E+03  0.78211404017E+02 0.  0.
         -6    2    1    2    0  502  0.32906660533E+02  0.56178224065E+02 -0.20257885232E+02  0.18539893910E+03  0.17240517260E+03 0.  0.
        -24    2    5    5    0    0 -0.34447385259E+02  0.59963635609E+02  0.18685731492E+02  0.10736310048E+03  0.79971362609E+02 0.  0.
          5    1    3    3  501    0 -0.57081786369E+02  0.23467014436E+02 -0.51437695975E+02  0.80479548141E+02  0.47000000000E+01 0. -1.
        -11    1    4    4    0    0  0.51366203884E+02 -0.65072764478E+02  0.66417095096E+01  0.83168887714E+02  0.00000000000E+00 0.  1.
         12    1    4    4    0    0 -0.27191078048E+02 -0.14572474023E+02 -0.37824317461E+01  0.31080838381E+02  0.00000000000E+00 0. -1.
         -5    1    5    5    0  502  0.67354045792E+02 -0.37854115436E+01 -0.38943616724E+02  0.78035838617E+02  0.47000000000E+01 0.  1.
         13    1    6    6    0    0  0.21128277613E+02  0.19734169068E+02  0.25325309518E+02  0.38434526742E+02  0.00000000000E+00 0. -1.
        -14    1    6    6    0    0 -0.55575662872E+02  0.40229466541E+02 -0.66395780266E+01  0.68928573743E+02  0.00000000000E+00 0.  1.
</event>
<event>
12    1  0.1593360E-001  0.1872301E+03  0.7818608E-02  0.1161057E+00
         21   -1    0    0  501  502  0.00000000000E+00  0.00000000000E+00  0.38962190725E+02  0.38962190725E+02  0.00000000000E+00 0. -1.
         21   -1    0    0  502  503 -0.00000000000E+00 -0.00000000000E+00 -0.90468221380E+03  0.90468221380E+03  0.00000000000E+00 0.  1.
         -6    2    1    2    0  503  0.32845172870E+02  0.65105952555E+02 -0.47245919915E+03  0.50808824079E+03  0.17209989868E+03 0.  0.
        -24    2    3    3    0    0  0.49793601044E+02  0.54456453977E+02 -0.15029101809E+03  0.18526462343E+03  0.79313822824E+02 0.  0.
          6    2    1    2  501    0 -0.32845172870E+02 -0.65105952555E+02 -0.39326082392E+03  0.43555616373E+03  0.17244566013E+03 0.  0.
         24    2    5    5    0    0  0.83604006584E+01 -0.79940481933E+02 -0.36886407732E+03  0.38520485991E+03  0.76561737271E+02 0.  0.
          5    1    5    5  501    0 -0.41205573529E+02  0.14834529378E+02 -0.24396746603E+02  0.50351303821E+02  0.47000000000E+01 0. -1.
        -11    1    6    6    0    0 -0.10577887225E+02  0.78329686880E+01 -0.11843841252E+03  0.11916754867E+03  0.00000000000E+00 0.  1.
         12    1    6    6    0    0  0.18938287884E+02 -0.87773450621E+02 -0.25042566480E+03  0.26603731124E+03  0.00000000000E+00 0. -1.
         -5    1    3    3    0  503 -0.16948428174E+02  0.10649498578E+02 -0.32216818106E+03  0.32282361736E+03  0.47000000000E+01 0.  1.
         13    1    4    4    0    0  0.68957808744E+01  0.23640197836E+02  0.13755902691E+01  0.24663799305E+02  0.00000000000E+00 0. -1.
        -14    1    4    4    0    0  0.42897820169E+02  0.30816256142E+02 -0.15166660836E+03  0.16060082413E+03  0.00000000000E+00 0.  1.
</event>
<event>
12    1  0.1593360E-001  0.2052765E+03  0.7818608E-02  0.1145478E+00
         21   -1    0    0  501  502  0.00000000000E+00  0.00000000000E+00  0.27437114427E+03  0.27437114427E+03  0.00000000000E+00 0.  1.
         21   -1    0    0  502  503 -0.00000000000E+00 -0.00000000000E+00 -0.26644511813E+03  0.26644511813E+03  0.00000000000E+00 0. -1.
         -6    2    1    2    0  503 -0.99773521285E+02  0.49764708136E+02 -0.17235530837E+03  0.26803879750E+03  0.17235765988E+03 0.  0.
        -24    2    3    3    0    0 -0.28867872187E+02  0.81909794950E+02 -0.14185104459E+03  0.18429204957E+03  0.79367954054E+02 0.  0.
          6    2    1    2  501    0  0.99773521285E+02 -0.49764708136E+02  0.18028133451E+03  0.27277746491E+03  0.17168256773E+03 0.  0.
         24    2    5    5    0    0  0.31534804475E+02 -0.87385627177E+02  0.13688066300E+03  0.18346025319E+03  0.79313661293E+02 0.  0.
          5    1    5    5  501    0  0.68238716809E+02  0.37620919040E+02  0.43400671508E+02  0.89317211715E+02  0.47000000000E+01 0. -1.
        -13    1    6    6    0    0  0.13410531854E+02  0.10992809670E+02  0.52216052592E+01  0.18109373002E+02  0.00000000000E+00 0.  1.
         14    1    6    6    0    0  0.18124272622E+02 -0.98378436847E+02  0.13165905774E+03  0.16535088019E+03  0.00000000000E+00 0. -1.
         -5    1    3    3    0  503 -0.70905649097E+02 -0.32145086814E+02 -0.30504263774E+02  0.83746747928E+02  0.47000000000E+01 0.  1.
         11    1    4    4    0    0  0.37994869278E+01 -0.35876397647E+00 -0.70487029677E+02  0.70590269622E+02  0.00000000000E+00 0. -1.
        -12    1    4    4    0    0 -0.32667359115E+02  0.82268558927E+02 -0.71364014914E+02  0.11370177995E+03  0.00000000000E+00 0.  1.
</event>
<event>
12    1  0.1593360E-001  0.1846722E+03  0.7818608E-02  0.1164075E+00
         21   -1    0    0  501  502  0.00000000000E+00  0.00000000000E+00  0.75468332469E+02  0.75468332469E+02  0.00000000000E+00 0. -1.
         21   -1    0    0  502  503 -0.00000000000E+00 -0.00000000000E+00 -0.71509705394E+03  0.71509705394E+03  0.00000000000E+00 0. -1.
         -6    2    1    2    0  503 -0.23999530069E+02  0.64519439851E+02 -0.56132514731E+03  0.58997811075E+03  0.16807591915E+03 0.  0.
        -24    2    3    3    0    0  0.18152569569E+02 -0.13798878521E+02 -0.36792565989E+03  0.37705556560E+03  0.79257072353E+02 0.  0.
          6    2    1    2  501    0  0.23999530069E+02 -0.64519439851E+02 -0.78303574163E+02  0.20058727566E+03  0.17136239339E+03 0.  0.
         24    2    5    5    0    0 -0.63717417681E+01 -0.14920990401E+02 -0.10786151468E+03  0.13517946123E+03  0.79850769209E+02 0.  0.
          5    1    5    5  501    0  0.30371271837E+02 -0.49598449449E+02  0.29557940514E+02  0.65407814428E+02  0.47000000000E+01 0. -1.
        -11    1    6    6    0    0 -0.24025833982E+02 -0.22358518315E+02 -0.11101507499E+03  0.11576480862E+03  0.00000000000E+00 0.  1.
         12    1    6    6    0    0  0.17654092214E+02  0.74375279139E+01  0.31535603146E+01  0.19414652612E+02  0.00000000000E+00 0. -1.
         -5    1    3    3    0  503 -0.42152099638E+02  0.78318318372E+02 -0.19339948742E+03  0.21292254515E+03  0.47000000000E+01 0.  1.
         13    1    4    4    0    0  0.17792492391E+01 -0.29661377840E+02 -0.33864796816E+03  0.33994912767E+03  0.00000000000E+00 0. -1.
        -14    1    4    4    0    0  0.16373320330E+02  0.15862499319E+02 -0.29277691723E+02  0.37106437931E+02  0.00000000000E+00 0.  1.
</event>
<event>
12    1  0.1593360E-001  0.1808015E+03  0.7818608E-02  0.1168775E+00
         21   -1    0    0  503  502  0.00000000000E+00  0.00000000000E+00  0.48733003891E+02  0.48733003891E+02  0.00000000000E+00 0. -1.
         21   -1    0    0  501  503 -0.00000000000E+00 -0.00000000000E+00 -0.73812928779E+03  0.73812928779E+03  0.00000000000E+00 0. -1.
          6    2    1    2  501    0  0.22992363123E+02 -0.52828262696E+02 -0.47862001759E+03  0.50916493904E+03  0.16386683559E+03 0.  0.
         24    2    3    3    0    0  0.20030962194E+02 -0.84833771881E+02 -0.34318516898E+03  0.36988891550E+03  0.10697542384E+03 0.  0.
         -6    2    1    2    0  502 -0.22992363123E+02  0.52828262696E+02 -0.21077626631E+03  0.27769735264E+03  0.17137593508E+03 0.  0.
        -24    2    5    5    0    0 -0.33127385092E+02 -0.23291950653E+02 -0.59816333172E+02  0.10826300853E+03  0.80640850036E+02 0.  0.
          5    1    3    3  501    0  0.29614009290E+01  0.32005509185E+02 -0.13543484861E+03  0.13927602354E+03  0.47000000000E+01 0. -1.
        -13    1    4    4    0    0 -0.42925974748E+02 -0.29370021197E+02 -0.10143454246E+03  0.11399212191E+03  0.00000000000E+00 0.  1.
         14    1    4    4    0    0  0.62956936942E+02 -0.55463750685E+02 -0.24175062652E+03  0.25589679360E+03  0.00000000000E+00 0. -1.
         -5    1    5    5    0  502  0.10135021969E+02  0.76120213349E+02 -0.15095993314E+03  0.16943434411E+03  0.47000000000E+01 0.  1.
         11    1    6    6    0    0  0.25551791304E+02 -0.16776487124E+02 -0.14472893506E+02  0.33820248455E+02  0.00000000000E+00 0. -1.
        -12    1    6    6    0    0 -0.58679176396E+02 -0.65154635287E+01 -0.45343439666E+02  0.74442760080E+02  0.00000000000E+00 0.  1.
</event>
<event>
12    1  0.1593360E-001  0.1743882E+03  0.7818608E-02  0.1173501E+00
         21   -1    0    0  503  502  0.00000000000E+00  0.00000000000E+00  0.21502717834E+03  0.21502717834E+03  0.00000000000E+00 0.  1.
         21   -1    0    0  501  503 -0.00000000000E+00 -0.00000000000E+00 -0.14104957786E+03  0.14104957786E+03  0.00000000000E+00 0.  1.
          6    2    1    2  501    0  0.28599853399E+02 -0.15698348253E+01  0.32060316731E+02  0.17731075203E+03  0.17201983281E+03 0.  0.
         24    2    3    3    0    0 -0.35338868706E+02  0.41322871522E+02  0.25027810592E+02  0.99854373432E+02  0.79925523071E+02 0.  0.
         -6    2    1    2    0  502 -0.28599853399E+02  0.15698348253E+01  0.41917283745E+02  0.17876600417E+03  0.17140539541E+03 0.  0.
        -24    2    5    5    0    0  0.10052105107E+02 -0.69113732656E+01 -0.40635283582E+02  0.87098555426E+02  0.76066551046E+02 0.  0.
          5    1    3    3  501    0  0.63938722105E+02 -0.42892706347E+02  0.70325061399E+01  0.77456378594E+02  0.47000000000E+01 0. -1.
        -13    1    4    4    0    0 -0.12689616049E+01  0.57718298134E+02  0.76307787029E+01  0.58234362593E+02  0.00000000000E+00 0.  1.
         14    1    4    4    0    0 -0.34069907101E+02 -0.16395426612E+02  0.17397031889E+02  0.41620010839E+02  0.00000000000E+00 0. -1.
         -5    1    5    5    0  502 -0.38651958506E+02  0.84812080909E+01  0.82552567327E+02  0.91667448744E+02  0.47000000000E+01 0.  1.
         11    1    6    6    0    0  0.19532020967E+02  0.28187729414E+02 -0.24614322307E+01  0.34381776877E+02  0.00000000000E+00 0. -1.
        -12    1    6    6    0    0 -0.94799158598E+01 -0.35099102680E+02 -0.38173851351E+02  0.52716778549E+02  0.00000000000E+00 0.  1.
</event>
<event>
12    1  0.1593360E-001  0.1734093E+03  0.7818608E-02  0.1174549E+00
         21   -1    0    0  501  502  0.00000000000E+00  0.00000000000E+00  0.20568889099E+03  0.20568889099E+03  0.00000000000E+00 0. -1.
         21   -1    0    0  502  503 -0.00000000000E+00 -0.00000000000E+00 -0.22831226196E+03  0.22831226196E+03  0.00000000000E+00 0. -1.
         -6    2    1    2    0  503 -0.54264391336E+01  0.12561564763E+02 -0.14201985725E+03  0.22414372501E+03  0.17286853519E+03 0.  0.
        -24    2    3    3    0    0 -0.67074577122E+02 -0.98217642883E+01 -0.10789163866E+03  0.15006044997E+03  0.79259491566E+02 0.  0.
          6    2    1    2  501    0  0.54264391336E+01 -0.12561564763E+02  0.11939648627E+03  0.20985742794E+03  0.17203889088E+03 0.  0.
         24    2    5    5    0    0 -0.54411956559E+02  0.27247633683E+02  0.71284311406E+02  0.12324174085E+03  0.80024865367E+02 0.  0.
          5    1    5    5  501    0  0.59838395693E+02 -0.39809198446E+02  0.48112174867E+02  0.86615687092E+02  0.47000000000E+01 0. -1.
        -11    1    6    6    0    0 -0.39941551697E+02  0.50571148808E+02  0.70874062320E+02  0.95790925215E+02  0.00000000000E+00 0.  1.
         12    1    6    6    0    0 -0.14470404863E+02 -0.23323515126E+02  0.41024908595E+00  0.27450815635E+02  0.00000000000E+00 0. -1.
         -5    1    3    3    0  503  0.61648137988E+02  0.22383329052E+02 -0.34128218585E+02  0.74083275040E+02  0.47000000000E+01 0.  1.
         13    1    4    4    0    0 -0.40907065902E+02  0.12392415710E+02 -0.10755154540E+03  0.11573372424E+03  0.00000000000E+00 0. -1.
        -14    1    4    4    0    0 -0.26167511220E+02 -0.22214179998E+02 -0.34009326302E+00  0.34326725737E+02  0.00000000000E+00 0.  1.
</event>
<event>
12    1  0.1593360E-001  0.1758900E+03  0.7818608E-02  0.1171980E+00
         21   -1    0    0  503  502  0.00000000000E+00  0.00000000000E+00  0.41983510367E+03  0.41983510367E+03  0.00000000000E+00 0. -1.
         21   -1    0    0  501  503 -0.00000000000E+00 -0.00000000000E+00 -0.74175415008E+02  0.74175415008E+02  0.00000000000E+00 0. -1.
          6    2    1    2  501    0 -0.22746401704E+02 -0.28476374927E+02  0.14824371909E+03  0.22960487131E+03  0.17150479282E+03 0.  0.
         24    2    3    3    0    0 -0.54527781489E+02 -0.67728907047E+02  0.12978579293E+03  0.17562707572E+03  0.80249821651E+02 0.  0.
         -6    2    1    2    0  502  0.22746401704E+02  0.28476374927E+02  0.19741596957E+03  0.26440564737E+03  0.17207259689E+03 0.  0.
        -24    2    5    5    0    0 -0.30961654813E+02  0.61203226885E+02  0.15885053195E+03  0.19048010947E+03  0.79653760459E+02 0.  0.
          5    1    3    3  501    0  0.31781379784E+02  0.39252532120E+02  0.18457926163E+02  0.53977795593E+02  0.47000000000E+01 0. -1.
        -13    1    4    4    0    0 -0.41745776252E+02 -0.14490656799E+00  0.20524733958E+02  0.46518765427E+02  0.00000000000E+00 0.  1.
         14    1    4    4    0    0 -0.12782005237E+02 -0.67584000479E+02  0.10926105897E+03  0.12910831029E+03  0.00000000000E+00 0. -1.
         -5    1    5    5    0  502  0.53708056518E+02 -0.32726851958E+02  0.38565437625E+02  0.73925537896E+02  0.47000000000E+01 0.  1.
         13    1    6    6    0    0 -0.76031907480E+01  0.21995476624E+02 -0.19254965329E+01  0.23352024288E+02  0.00000000000E+00 0. -1.
        -14    1    6    6    0    0 -0.23358464065E+02  0.39207750262E+02  0.16077602848E+03  0.16712808518E+03  0.00000000000E+00 0.  1.
</event>
<event>
12    1  0.1593360E-001  0.1844739E+03  0.7818608E-02  0.1164046E+00
         21   -1    0    0  503  502  0.00000000000E+00  0.00000000000E+00  0.31734826798E+03  0.31734826798E+03  0.00000000000E+00 0. -1.
         21   -1    0    0  501  503 -0.00000000000E+00 -0.00000000000E+00 -0.11757284208E+03  0.11757284208E+03  0.00000000000E+00 0.  1.
          6    2    1    2  501    0  0.65914264745E+02 -0.12570846505E+01  0.32172055283E+02  0.18725829615E+03  0.17229149073E+03 0.  0.
         24    2    3    3    0    0 -0.11677152240E+02 -0.41779416373E+02 -0.59750054135E+01  0.91656122548E+02  0.80518746848E+02 0.  0.
         -6    2    1    2    0  502 -0.65914264745E+02  0.12570846505E+01  0.16760337062E+03  0.24766281391E+03  0.16999914410E+03 0.  0.
        -24    2    5    5    0    0 -0.19819612417E+02  0.62150198099E+02  0.76793134145E+02  0.12891401481E+03  0.80412521435E+02 0.  0.
          5    1    3    3  501    0  0.77591416986E+02  0.40522331722E+02  0.38147060697E+02  0.95602173604E+02  0.47000000000E+01 0. -1.
        -13    1    4    4    0    0 -0.29808832885E+02 -0.44201921020E+02  0.22454681416E+02  0.57849710952E+02  0.00000000000E+00 0.  1.
         14    1    4    4    0    0  0.18131680644E+02  0.24225046468E+01 -0.28429686829E+02  0.33806411596E+02  0.00000000000E+00 0. -1.
         -5    1    5    5    0  502 -0.46094652328E+02 -0.60893113448E+02  0.90810236472E+02  0.11874879910E+03  0.47000000000E+01 0.  1.
         11    1    6    6    0    0 -0.95175367872E+01 -0.19234531520E+02  0.17581644505E+02  0.27742835702E+02  0.00000000000E+00 0. -1.
        -12    1    6    6    0    0 -0.10302075630E+02  0.81384729619E+02  0.59211489640E+02  0.10117117911E+03  0.00000000000E+00 0.  1.
</event>
<event>
12    1  0.1593360E-001  0.2680727E+03  0.7818608E-02  0.1102682E+00
         21   -1    0    0  501  502  0.00000000000E+00  0.00000000000E+00  0.17880416902E+03  0.17880416902E+03  0.00000000000E+00 0. -1.
         21   -1    0    0  502  503 -0.00000000000E+00 -0.00000000000E+00 -0.41191143385E+03  0.41191143385E+03  0.00000000000E+00 0.  1.
         -6    2    1    2    0  503 -0.10302448114E+03  0.17457923745E+03 -0.16952729903E+03  0.31717896045E+03  0.17541674372E+03 0.  0.
        -24    2    3    3    0    0 -0.78019098805E+02  0.14195864762E+03 -0.19609859890E+03  0.26801092202E+03  0.84474590376E+02 0.  0.
          6    2    1    2  501    0  0.10302448114E+03 -0.17457923745E+03 -0.63579965805E+02  0.27353664241E+03  0.17230185382E+03 0.  0.
         24    2    5    5    0    0  0.10283165824E+02 -0.29241382429E+02 -0.54962534321E+02  0.10085081846E+03  0.78671503478E+02 0.  0.
          5    1    5    5  501    0  0.92741315315E+02 -0.14533785502E+03 -0.86174314839E+01  0.17268582395E+03  0.47000000000E+01 0. -1.
        -11    1    6    6    0    0 -0.22609435970E+02 -0.43016649042E+02 -0.35868499883E+02  0.60400066006E+02  0.00000000000E+00 0.  1.
         12    1    6    6    0    0  0.32892601794E+02  0.13775266613E+02 -0.19094034438E+02  0.40450752455E+02  0.00000000000E+00 0. -1.
         -5    1    3    3    0  503 -0.25005382334E+02  0.32620589830E+02  0.26571299872E+02  0.49168038433E+02  0.47000000000E+01 0.  1.
         13    1    4    4    0    0 -0.21824211570E+02  0.69774246336E+02 -0.31303183266E+02  0.79527548340E+02  0.00000000000E+00 0. -1.
        -14    1    4    4    0    0 -0.56194887234E+02  0.72184401286E+02 -0.16479541563E+03  0.18848337368E+03  0.00000000000E+00 0.  1.
</event>
<event>
12    1  0.1593360E-001  0.2648640E+03  0.7818608E-02  0.1104316E+00
         21   -1    0    0  503  502  0.00000000000E+00  0.00000000000E+00  0.27110155421E+03  0.27110155421E+03  0.00000000000E+00 0.  1.
         21   -1    0    0  501  503 -0.00000000000E+00 -0.00000000000E+00 -0.28613401968E+03  0.28613401968E+03  0.00000000000E+00 0. -1.
          6    2    1    2  501    0  0.12983344094E+03  0.15347666528E+03 -0.94310970522E+02  0.28115385203E+03  0.17245613986E+03 0.  0.
         24    2    3    3    0    0  0.39713715001E+02  0.10202871240E+03  0.80864591847E+01  0.13529165518E+03  0.79065819576E+02 0.  0.
         -6    2    1    2    0  502 -0.12983344094E+03 -0.15347666528E+03  0.79278505054E+02  0.27608172187E+03  0.17182615230E+03 0.  0.
        -24    2    5    5    0    0 -0.77773994668E+02 -0.10717392382E+02  0.24180315820E+02  0.11437737313E+03  0.79585419922E+02 0.  0.
          5    1    3    3  501    0  0.90119725935E+02  0.51447952883E+02 -0.10239742971E+03  0.14586219685E+03  0.47000000000E+01 0. -1.
        -13    1    4    4    0    0  0.29492064916E+02  0.36388235693E+02  0.39997734160E+02  0.61593054217E+02  0.00000000000E+00 0.  1.
         14    1    4    4    0    0  0.10221650084E+02  0.65640476709E+02 -0.31911274976E+02  0.73698600961E+02  0.00000000000E+00 0. -1.
         -5    1    5    5    0  502 -0.52059446268E+02 -0.14275927290E+03  0.55098189233E+02  0.16170434874E+03  0.47000000000E+01 0.  1.
         11    1    6    6    0    0 -0.67490719132E+02  0.57224074813E+00 -0.17720375350E+02  0.69780630056E+02  0.00000000000E+00 0. -1.
        -12    1    6    6    0    0 -0.10283275536E+02 -0.11289633130E+02  0.41900691171E+02  0.44596743071E+02  0.00000000000E+00 0.  1.
</event>
<event>
12    1  0.1593360E-001  0.2203838E+03  0.7818608E-02  0.1133881E+00
         21   -1    0    0  503  502  0.00000000000E+00  0.00000000000E+00  0.30226721010E+03  0.30226721010E+03  0.00000000000E+00 0. -1.
         21   -1    0    0  501  503 -0.00000000000E+00 -0.00000000000E+00 -0.23453163353E+03  0.23453163353E+03  0.00000000000E+00 0. -1.
          6    2    1    2  501    0 -0.79686501557E+02  0.10896235521E+03 -0.11778739176E+03  0.24988577767E+03  0.17420189104E+03 0.  0.
         24    2    3    3    0    0 -0.73217109221E+02  0.14504091540E+03 -0.91623623039E+02  0.20460721391E+03  0.84092874015E+02 0.  0.
         -6    2    1    2    0  502  0.79686501557E+02 -0.10896235521E+03  0.18552296833E+03  0.28691306595E+03  0.17227188469E+03 0.  0.
        -24    2    5    5    0    0  0.36181363375E+02  0.76005468674E+01  0.11089250920E+03  0.14175314511E+03  0.80186945221E+02 0.  0.
          5    1    3    3  501    0 -0.64693923353E+01 -0.36078560197E+02 -0.26163768719E+02  0.45278563765E+02  0.47000000000E+01 0. -1.
        -11    1    4    4    0    0 -0.63569351835E+02  0.56602046747E+02 -0.13440995100E+02  0.86171425298E+02  0.00000000000E+00 0.  1.
         12    1    4    4    0    0 -0.96477573864E+01  0.88438868658E+02 -0.78182627939E+02  0.11843578861E+03  0.00000000000E+00 0. -1.
         -5    1    5    5    0  502  0.43505138182E+02 -0.11656290208E+03  0.74630459123E+02  0.14515992084E+03  0.47000000000E+01 0.  1.
         11    1    6    6    0    0 -0.41452614029E+01  0.31991205428E+02  0.77637723044E+02  0.84072804499E+02  0.00000000000E+00 0. -1.
        -12    1    6    6    0    0  0.40326624777E+02 -0.24390658560E+02  0.33254786159E+02  0.57680340615E+02  0.00000000000E+00 0.  1.
</event>
<event>
12    1  0.1593360E-001  0.3917371E+03  0.7818608E-02  0.1046714E+00
         21   -1    0    0  503  502  0.00000000000E+00  0.00000000000E+00  0.23997747466E+03  0.23997747466E+03  0.00000000000E+00 0.  1.
         21   -1    0    0  501  503 -0.00000000000E+00 -0.00000000000E+00 -0.88558968547E+03  0.88558968547E+03  0.00000000000E+00 0. -1.
          6    2    1    2  501    0 -0.19152061468E+03 -0.29585800701E+03 -0.25850061147E+02  0.39258907784E+03  0.17101418720E+03 0.  0.
         24    2    3    3    0    0 -0.53311163827E+02 -0.74754221686E+02  0.16895122633E+01  0.13035015188E+03  0.92509641627E+02 0.  0.
         -6    2    1    2    0  502  0.19152061468E+03  0.29585800701E+03 -0.61976214966E+03  0.73297808229E+03  0.17011655066E+03 0.  0.
        -24    2    5    5    0    0  0.96985979375E+02  0.82305806016E+02 -0.31434620957E+03  0.34847538232E+03  0.80256007347E+02 0.  0.
          5    1    3    3  501    0 -0.13820945085E+03 -0.22110378533E+03 -0.27539573411E+02  0.26223892597E+03  0.47000000000E+01 0. -1.
        -13    1    4    4    0    0 -0.38253107263E+02 -0.96488365649E+02 -0.74766687693E+00  0.10379722504E+03  0.00000000000E+00 0.  1.
         14    1    4    4    0    0 -0.15058056564E+02  0.21734143963E+02  0.24371791402E+01  0.26552926834E+02  0.00000000000E+00 0. -1.
         -5    1    5    5    0  502  0.94534635302E+02  0.21355220100E+03 -0.30541594009E+03  0.38450269997E+03  0.47000000000E+01 0.  1.
         11    1    6    6    0    0  0.29792213599E+02  0.75962221146E+02 -0.19468369109E+03  0.21109138923E+03  0.00000000000E+00 0. -1.
        -12    1    6    6    0    0  0.67193765775E+02  0.63435848700E+01 -0.11966251848E+03  0.13738399309E+03  0.00000000000E+00 0.  1.
</event>
<event>
12    1  0.1593360E-001  0.2021492E+03  0.7818608E-02  0.1148416E+00
         21   -1    0    0  501  502  0.00000000000E+00  0.00000000000E+00  0.75385566886E+02  0.75385566886E+02  0.00000000000E+00 0. -1.
         21   -1    0    0  502  503 -0.00000000000E+00 -0.00000000000E+00 -0.11103499778E+04  0.11103499778E+04  0.00000000000E+00 0. -1.
         -6    2    1    2    0  503  0.58307883176E+01 -0.10035205500E+03 -0.94530600893E+03  0.96667871869E+03  0.17538461052E+03 0.  0.
        -24    2    3    3    0    0  0.62223781430E+02 -0.63634063746E+02 -0.76251101804E+03  0.77183396189E+03  0.79896927736E+02 0.  0.
          6    2    1    2  501    0 -0.58307883176E+01  0.10035205500E+03 -0.89658401993E+02  0.21905682601E+03  0.17275048752E+03 0.  0.
         24    2    5    5    0    0  0.12561839256E+02  0.92227158741E+02 -0.12653457988E+03  0.17679283207E+03  0.81123713866E+02 0.  0.
          5    1    5    5  501    0 -0.18392627573E+02  0.81248962573E+01  0.36876177885E+02  0.42263993939E+02  0.47000000000E+01 0. -1.
        -11    1    6    6    0    0  0.43590334690E+02  0.50326136784E+02 -0.94500821620E+02  0.11559949225E+03  0.00000000000E+00 0.  1.
         12    1    6    6    0    0 -0.31028495434E+02  0.41901021957E+02 -0.32033758258E+02  0.61193339818E+02  0.00000000000E+00 0. -1.
         -5    1    3    3    0  503 -0.56392993112E+02 -0.36717991252E+02 -0.18279499089E+03  0.19484475679E+03  0.47000000000E+01 0.  1.
         11    1    4    4    0    0  0.65881612937E+02 -0.73166098102E+02 -0.74565482766E+03  0.75212684226E+03  0.00000000000E+00 0. -1.
        -12    1    4    4    0    0 -0.36578315071E+01  0.95320343559E+01 -0.16856190380E+02  0.19707119638E+02  0.00000000000E+00 0.  1.
</event>
<event>
12    1  0.1593360E-001  0.1842959E+03  0.7818608E-02  0.1164634E+00
         21   -1    0    0  503  502  0.00000000000E+00  0.00000000000E+00  0.19449868595E+03  0.19449868595E+03  0.00000000000E+00 0. -1.
         21   -1    0    0  501  503 -0.00000000000E+00 -0.00000000000E+00 -0.73668531164E+03  0.73668531164E+03  0.00000000000E+00 0. -1.
          6    2    1    2  501    0 -0.74967169331E+01 -0.55710357772E+02 -0.67976959553E+03  0.70430936544E+03  0.17551391543E+03 0.  0.
         24    2    3    3    0    0 -0.35264722461E+02 -0.41799599695E+02 -0.66022992392E+03  0.66731666226E+03  0.80107228857E+02 0.  0.
         -6    2    1    2    0  502  0.74967169331E+01  0.55710357772E+02  0.13758296984E+03  0.22687463215E+03  0.17141522802E+03 0.  0.
        -24    2    5    5    0    0  0.36106284078E+02  0.63674599877E+02  0.15718744925E+03  0.19098087089E+03  0.80047988276E+02 0.  0.
          5    1    3    3  501    0  0.27768005528E+02 -0.13910758078E+02 -0.19539671609E+02  0.36992703171E+02  0.47000000000E+01 0. -1.
        -13    1    4    4    0    0 -0.53832351160E+02 -0.67252059456E+01 -0.29594397481E+03  0.30087536731E+03  0.00000000000E+00 0.  1.
         14    1    4    4    0    0  0.18567628699E+02 -0.35074393749E+02 -0.36428594910E+03  0.36644129495E+03  0.00000000000E+00 0. -1.
         -5    1    5    5    0  502 -0.28609567145E+02 -0.79642421049E+01 -0.19604479408E+02  0.35893761259E+02  0.47000000000E+01 0.  1.
         13    1    6    6    0    0  0.51135271597E+02  0.39572532472E+02  0.54897708986E+02  0.84820750878E+02  0.00000000000E+00 0. -1.
        -14    1    6    6    0    0 -0.15028987520E+02  0.24102067406E+02  0.10228974026E+03  0.10616012001E+03  0.00000000000E+00 0.  1.
</event>
<event>
12    1  0.1593360E-001  0.1743471E+03  0.7818608E-02  0.1173599E+00
         21   -1    0    0  503  502  0.00000000000E+00  0.00000000000E+00  0.31381250476E+02  0.31381250476E+02  0.00000000000E+00 0. -1.
         21   -1    0    0  501  503 -0.00000000000E+00 -0.00000000000E+00 -0.96994081694E+03  0.96994081694E+03  0.00000000000E+00 0. -1.
          6    2    1    2  501    0  0.19231118998E+02 -0.67387875398E+01 -0.42905542769E+03  0.46281359108E+03  0.17231544581E+03 0.  0.
         24    2    3    3    0    0  0.69530053590E+02 -0.13447532035E+02 -0.18316055241E+03  0.21169336139E+03  0.79063435452E+02 0.  0.
         -6    2    1    2    0  502 -0.19231118998E+02  0.67387875398E+01 -0.50950413877E+03  0.53850847633E+03  0.17315214252E+03 0.  0.
        -24    2    5    5    0    0  0.24504294964E+02 -0.85222478126E+01 -0.11769685187E+03  0.14394450724E+03  0.78704402963E+02 0.  0.
          5    1    3    3  501    0 -0.50298934592E+02  0.67087444951E+01 -0.24589487528E+03  0.25112022969E+03  0.47000000000E+01 0. -1.
        -11    1    4    4    0    0 -0.15017407408E+02 -0.70508784929E+01 -0.11354054720E+02  0.20103531316E+02  0.00000000000E+00 0.  1.
         12    1    4    4    0    0  0.84547460998E+02 -0.63966535419E+01 -0.17180649769E+03  0.19158983007E+03  0.00000000000E+00 0. -1.
         -5    1    5    5    0  502 -0.43735413962E+02  0.15261035352E+02 -0.39180728690E+03  0.39456396909E+03  0.47000000000E+01 0.  1.
         13    1    6    6    0    0 -0.17396461465E+02  0.16651317976E+02 -0.75904558179E+02  0.79632940509E+02  0.00000000000E+00 0. -1.
        -14    1    6    6    0    0  0.41900756429E+02 -0.25173565788E+02 -0.41792293692E+02  0.64311566734E+02  0.00000000000E+00 0.  1.
</event>
<event>
12    1  0.1593360E-001  0.1781849E+03  0.7818608E-02  0.1169821E+00
         21   -1    0    0  501  502  0.00000000000E+00  0.00000000000E+00  0.68001554426E+03  0.68001554426E+03  0.00000000000E+00 0. -1.
         21   -1    0    0  502  503 -0.00000000000E+00 -0.00000000000E+00 -0.61269398525E+02  0.61269398525E+02  0.00000000000E+00 0. -1.
         -6    2    1    2    0  503 -0.28810854293E+02  0.31352971233E+02  0.12626075993E+03  0.21755629038E+03  0.17197641075E+03 0.  0.
        -24    2    3    3    0    0 -0.87332466449E+02  0.24535014318E+02  0.74482361886E+02  0.13897921910E+03  0.74422271441E+02 0.  0.
          6    2    1    2  501    0  0.28810854293E+02 -0.31352971233E+02  0.49248538580E+03  0.52372865241E+03  0.17302246095E+03 0.  0.
         24    2    5    5    0    0 -0.33303591034E+02 -0.37994573545E+02  0.40084240020E+03  0.41272035538E+03  0.84325234365E+02 0.  0.
          5    1    5    5  501    0  0.62114445327E+02  0.66416023124E+01  0.91642985603E+02  0.11100829703E+03  0.47000000000E+01 0. -1.
        -13    1    6    6    0    0 -0.33346949264E+00 -0.45876623478E+02  0.10056462698E+03  0.11053515271E+03  0.00000000000E+00 0.  1.
         14    1    6    6    0    0 -0.32970121541E+02  0.78820499328E+01  0.30027777322E+03  0.30218520267E+03  0.00000000000E+00 0. -1.
         -5    1    3    3    0  503  0.58521612157E+02  0.68179569148E+01  0.51778398047E+02  0.78577071275E+02  0.47000000000E+01 0.  1.
         11    1    4    4    0    0 -0.19470523300E+02 -0.17615932790E+02 -0.45000697536E+01  0.26639688313E+02  0.00000000000E+00 0. -1.
        -12    1    4    4    0    0 -0.67861943150E+02  0.42150947108E+02  0.78982431640E+02  0.11233953079E+03  0.00000000000E+00 0.  1.
</event>
<event>
12    1  0.1593360E-001  0.3344843E+03  0.7818608E-02  0.1069188E+00
         21   -1    0    0  501  502  0.00000000000E+00  0.00000000000E+00  0.64786412530E+03  0.64786412530E+03  0.00000000000E+00 0.  1.
         21   -1    0    0  502  503 -0.00000000000E+00 -0.00000000000E+00 -0.20477134228E+03  0.20477134228E+03  0.00000000000E+00 0.  1.
         -6    2    1    2    0  503  0.33056044547E+02 -0.28496209658E+03  0.39046918865E+03  0.51403686066E+03  0.17167296896E+03 0.  0.
        -24    2    3    3    0    0 -0.29917297981E+02 -0.13881580905E+03  0.26347035445E+03  0.31038231709E+03  0.82192953050E+02 0.  0.
          6    2    1    2  501    0 -0.33056044547E+02  0.28496209658E+03  0.52623594373E+02  0.33859860692E+03  0.17199905625E+03 0.  0.
         24    2    5    5    0    0 -0.11453694099E+02  0.29805943054E+03  0.45754246425E+02  0.31200011743E+03  0.79246520205E+02 0.  0.
          5    1    5    5  501    0 -0.21602350448E+02 -0.13097333961E+02  0.68693479482E+01  0.26598489488E+02  0.47000000000E+01 0. -1.
        -13    1    6    6    0    0 -0.31969598212E+02  0.21834998950E+03  0.59486570705E+02  0.22855508137E+03  0.00000000000E+00 0.  1.
         14    1    6    6    0    0  0.20515904113E+02  0.79709441041E+02 -0.13732324280E+02  0.83445036058E+02  0.00000000000E+00 0. -1.
         -5    1    3    3    0  503  0.62973342528E+02 -0.14614628754E+03  0.12699883420E+03  0.20365454357E+03  0.47000000000E+01 0.  1.
         11    1    4    4    0    0  0.24516392627E+02 -0.21704209216E+02  0.75805663700E+02  0.82574965056E+02  0.00000000000E+00 0. -1.
        -12    1    4    4    0    0 -0.54433690607E+02 -0.11711159983E+03  0.18766469075E+03  0.22780735204E+03  0.00000000000E+00 0.  1.
</event>
<event>
12    1  0.1593360E-001  0.2075377E+03  0.7818608E-02  0.1143881E+00
         21   -1    0    0  501  502  0.00000000000E+00  0.00000000000E+00  0.45522527223E+02  0.45522527223E+02  0.00000000000E+00 0.  1.
         21   -1    0    0  502  503 -0.00000000000E+00 -0.00000000000E+00 -0.20017424841E+04  0.20017424841E+04  0.00000000000E+00 0.  1.
         -6    2    1    2    0  503 -0.11289034523E+03  0.48329488520E+01 -0.17222913098E+04  0.17345438600E+04  0.17201005501E+03 0.  0.
        -24    2    3    3    0    0 -0.13271501090E+03  0.55835200556E-01 -0.10083812406E+04  0.10203271456E+04  0.81372479869E+02 0.  0.
          6    2    1    2  501    0  0.11289034523E+03 -0.48329488520E+01 -0.23392864709E+03  0.31272115134E+03  0.17408135776E+03 0.  0.
         24    2    5    5    0    0 -0.12426159903E+02 -0.52363106764E+01 -0.70643915968E+02  0.10683676004E+03  0.79004443126E+02 0.  0.
          5    1    5    5  501    0  0.12531650513E+03  0.40336182437E+00 -0.16328473113E+03  0.20588439129E+03  0.47000000000E+01 0. -1.
        -13    1    6    6    0    0  0.18657830029E+02  0.28608706840E+02 -0.31763845545E+02  0.46642412161E+02  0.00000000000E+00 0.  1.
         14    1    6    6    0    0 -0.31083989931E+02 -0.33845017517E+02 -0.38880070423E+02  0.60194347881E+02  0.00000000000E+00 0. -1.
         -5    1    3    3    0  503  0.19824665675E+02  0.47771136515E+01 -0.71391006925E+03  0.71421671442E+03  0.47000000000E+01 0.  1.
         11    1    4    4    0    0 -0.39642736556E+02  0.34950029331E+02 -0.25515873717E+03  0.26057442749E+03  0.00000000000E+00 0. -1.
        -12    1    4    4    0    0 -0.93072274349E+02 -0.34894194130E+02 -0.75322250341E+03  0.75975271811E+03  0.00000000000E+00 0.  1.
</event>
<event>
12    1  0.1593360E-001  0.4944464E+03  0.7818608E-02  0.1015307E+00
         21   -1    0    0  503  502  0.00000000000E+00  0.00000000000E+00  0.12425316818E+04  0.12425316818E+04  0.00000000000E+00 0.  1.
         21   -1    0    0  501  503 -0.00000000000E+00 -0.00000000000E+00 -0.25740175885E+03  0.25740175885E+03  0.00000000000E+00 0. -1.
          6    2    1    2  501    0 -0.44585123273E+03 -0.12738546548E+03  0.12690925193E+03  0.50946891579E+03  0.16864827122E+03 0.  0.
         24    2    3    3    0    0 -0.24941176463E+03 -0.13901831368E+03  0.68300321455E+02  0.30408906157E+03  0.79201664028E+02 0.  0.
         -6    2    1    2    0  502  0.44585123273E+03  0.12738546548E+03  0.85822067107E+03  0.99046452491E+03  0.17165918650E+03 0.  0.
        -24    2    5    5    0    0  0.16986956688E+03  0.14766794327E+02  0.24997092464E+03  0.31308819745E+03  0.80405399367E+02 0.  0.
          5    1    3    3  501    0 -0.19643946810E+03  0.11632848201E+02  0.58608930475E+02  0.20537985421E+03  0.47000000000E+01 0. -1.
        -11    1    4    4    0    0 -0.11199630700E+03 -0.43941788320E+02 -0.76223949560E+01  0.12054938593E+03  0.00000000000E+00 0.  1.
         12    1    4    4    0    0 -0.13741545763E+03 -0.95076525357E+02  0.75922716411E+02  0.18353967565E+03  0.00000000000E+00 0. -1.
         -5    1    5    5    0  502  0.27598166585E+03  0.11261867115E+03  0.60824974642E+03  0.67737632746E+03  0.47000000000E+01 0.  1.
         11    1    6    6    0    0  0.62005495518E+02  0.42879413906E+02  0.80917927723E+02  0.11059401719E+03  0.00000000000E+00 0. -1.
        -12    1    6    6    0    0  0.10786407136E+03 -0.28112619579E+02  0.16905299692E+03  0.20249418026E+03  0.00000000000E+00 0.  1.
</event>
<event>
12    1  0.1593360E-001  0.2564312E+03  0.7818608E-02  0.1109347E+00
         21   -1    0    0  501  502  0.00000000000E+00  0.00000000000E+00  0.56003177246E+03  0.56003177246E+03  0.00000000000E+00 0.  1.
         21   -1    0    0  502  503 -0.00000000000E+00 -0.00000000000E+00 -0.28736452473E+03  0.28736452473E+03  0.00000000000E+00 0. -1.
         -6    2    1    2    0  503 -0.64287737485E+01  0.18964634629E+03 -0.18964553582E+03  0.31872809513E+03  0.17209039362E+03 0.  0.
        -24    2    3    3    0    0  0.46485703275E+02  0.94616897783E+02 -0.15708868950E+03  0.20509457805E+03  0.79206386248E+02 0.  0.
          6    2    1    2  501    0  0.64287737485E+01 -0.18964634629E+03  0.46231278355E+03  0.52866820206E+03  0.17248157074E+03 0.  0.
         24    2    5    5    0    0 -0.96691348686E+01 -0.37302056267E+02  0.94567628255E+02  0.13026323898E+03  0.80873602278E+02 0.  0.
          5    1    5    5  501    0  0.16097908617E+02 -0.15234429002E+03  0.36774515529E+03  0.39840496308E+03  0.47000000000E+01 0. -1.
        -13    1    6    6    0    0  0.35769089430E+02 -0.13544793570E+02  0.37994653010E+02  0.53911806210E+02  0.00000000000E+00 0.  1.
         14    1    6    6    0    0 -0.45438224298E+02 -0.23757262697E+02  0.56572975245E+02  0.76351432771E+02  0.00000000000E+00 0. -1.
         -5    1    3    3    0  503 -0.52914477023E+02  0.95029448507E+02 -0.32556846324E+02  0.11363351708E+03  0.47000000000E+01 0.  1.
         13    1    4    4    0    0  0.24706520089E+02  0.97349761408E+02 -0.91266986632E+02  0.13570943604E+03  0.00000000000E+00 0. -1.
        -14    1    4    4    0    0  0.21779183186E+02 -0.27328636248E+01 -0.65821702865E+02  0.69385142011E+02  0.00000000000E+00 0.  1.
</event>
<event>
12    1  0.1593360E-001  0.1862132E+03  0.7818608E-02  0.1162325E+00
         21   -1    0    0  503  502  0.00000000000E+00  0.00000000000E+00  0.56018412850E+03  0.56018412850E+03  0.00000000000E+00 0.  1.
         21   -1    0    0  501  503 -0.00000000000E+00 -0.00000000000E+00 -0.10790670377E+03  0.10790670377E+03  0.00000000000E+00 0.  1.
          6    2    1    2  501    0  0.29291787483E+02  0.60269581296E+02  0.72643216541E+01  0.18635488190E+03  0.17373813742E+03 0.  0.
         24    2    3    3    0    0  0.24771294565E+02  0.37054989687E+02 -0.64560450676E+02  0.11059051006E+03  0.77945620971E+02 0.  0.
         -6    2    1    2    0  502 -0.29291787483E+02 -0.60269581296E+02  0.44501310308E+03  0.48173595037E+03  0.17187912243E+03 0.  0.
        -24    2    5    5    0    0 -0.17086594599E+02 -0.91583514601E+02  0.20002769723E+03  0.23441132921E+03  0.79108152188E+02 0.  0.
          5    1    3    3  501    0  0.45204929176E+01  0.23214591609E+02  0.71824772330E+02  0.75764371839E+02  0.47000000000E+01 0. -1.
        -11    1    4    4    0    0 -0.12554944076E+02 -0.11395033188E+02 -0.42185592609E+02  0.45465345329E+02  0.00000000000E+00 0.  1.
         12    1    4    4    0    0  0.37326238642E+02  0.48450022875E+02 -0.22374858067E+02  0.65125164731E+02  0.00000000000E+00 0. -1.
         -5    1    5    5    0  502 -0.12205192884E+02  0.31313933305E+02  0.24498540585E+03  0.24732462116E+03  0.47000000000E+01 0.  1.
         13    1    6    6    0    0  0.19305436537E+02  0.16733573593E+01  0.53945490698E+02  0.57320292841E+02  0.00000000000E+00 0. -1.
        -14    1    6    6    0    0 -0.36392031136E+02 -0.93256871960E+02  0.14608220653E+03  0.17709103637E+03  0.00000000000E+00 0.  1.
</event>
<event>
12    1  0.1593360E-001  0.4426681E+03  0.7818608E-02  0.1029995E+00
         21   -1    0    0  503  502  0.00000000000E+00  0.00000000000E+00  0.60904509391E+03  0.60904509391E+03  0.00000000000E+00 0. -1.
         21   -1    0    0  501  503 -0.00000000000E+00 -0.00000000000E+00 -0.33795027247E+03  0.33795027247E+03  0.00000000000E+00 0.  1.
          6    2    1    2  501    0 -0.92226703848E+02 -0.39664841175E+03  0.29813555804E+02  0.44284093656E+03  0.17141621726E+03 0.  0.
         24    2    3    3    0    0  0.17907318409E+02 -0.14702780295E+03  0.33051057864E+01  0.16867905169E+03  0.80646462177E+02 0.  0.
         -6    2    1    2    0  502  0.92226703848E+02  0.39664841175E+03  0.24128126564E+03  0.50415442982E+03  0.17354916453E+03 0.  0.
        -24    2    5    5    0    0  0.11731816097E+03  0.20791752710E+03  0.12919281734E+03  0.28316837080E+03  0.80624395780E+02 0.  0.
          5    1    3    3  501    0 -0.11013402226E+03 -0.24962060879E+03  0.26508450018E+02  0.27416188487E+03  0.47000000000E+01 0. -1.
        -11    1    4    4    0    0 -0.78406132123E+01 -0.83945718637E+02 -0.34107401115E+02  0.90948742179E+02  0.00000000000E+00 0.  1.
         12    1    4    4    0    0  0.25747931621E+02 -0.63082084318E+02  0.37412506902E+02  0.77730309515E+02  0.00000000000E+00 0. -1.
         -5    1    5    5    0  502 -0.25091457126E+02  0.18873088465E+03  0.11208844830E+03  0.22098605902E+03  0.47000000000E+01 0.  1.
         11    1    6    6    0    0  0.32920602596E+02  0.85327199787E+02  0.92071992461E+02  0.12977576390E+03  0.00000000000E+00 0. -1.
        -12    1    6    6    0    0  0.84397558378E+02  0.12259032732E+03  0.37120824880E+02  0.15339260690E+03  0.00000000000E+00 0.  1.
</event>
<event>
12    1  0.1593360E-001  0.2169107E+03  0.7818608E-02  0.1136975E+00
         21   -1    0    0  501  502  0.00000000000E+00  0.00000000000E+00  0.45191175770E+03  0.45191175770E+03  0.00000000000E+00 0. -1.
         21   -1    0    0  502  503 -0.00000000000E+00 -0.00000000000E+00 -0.29523274254E+03  0.29523274254E+03  0.00000000000E+00 0.  1.
         -6    2    1    2    0  503  0.91073677683E+02  0.85391319294E+02 -0.22397691043E+03  0.30902443804E+03  0.17246551750E+03 0.  0.
        -24    2    3    3    0    0  0.30836909043E+02  0.10655352588E+03 -0.98645657290E+02  0.16828950884E+03  0.79283190195E+02 0.  0.
          6    2    1    2  501    0 -0.91073677683E+02 -0.85391319294E+02  0.38065592559E+03  0.43812006219E+03  0.17738140553E+03 0.  0.
         24    2    5    5    0    0 -0.22366818993E+02 -0.51466270459E+02  0.69177862630E+02  0.11732072448E+03  0.76351320403E+02 0.  0.
          5    1    5    5  501    0 -0.68706858690E+02 -0.33925048835E+02  0.31147806296E+03  0.32079933771E+03  0.47000000000E+01 0. -1.
        -11    1    6    6    0    0 -0.44010161005E+02 -0.53081924693E+02  0.65882938949E+02  0.95368478258E+02  0.00000000000E+00 0.  1.
         12    1    6    6    0    0  0.21643342012E+02  0.16156542341E+01  0.32949236810E+01  0.21952246220E+02  0.00000000000E+00 0. -1.
         -5    1    3    3    0  503  0.60236768640E+02 -0.21162206585E+02 -0.12533125314E+03  0.14073492920E+03  0.47000000000E+01 0.  1.
         13    1    4    4    0    0 -0.15979663080E+02 -0.14035005783E+01 -0.24241951388E+02  0.29068740136E+02  0.00000000000E+00 0. -1.
        -14    1    4    4    0    0  0.46816572124E+02  0.10795702646E+03 -0.74403705903E+02  0.13922076871E+03  0.00000000000E+00 0.  1.
</event>
<event>
12    1  0.1593360E-001  0.2008464E+03  0.7818608E-02  0.1149099E+00
         21   -1    0    0  503  502  0.00000000000E+00  0.00000000000E+00  0.51531373951E+02  0.51531373951E+02  0.00000000000E+00 0. -1.
         21   -1    0    0  501  503 -0.00000000000E+00 -0.00000000000E+00 -0.78764609802E+03  0.78764609802E+03  0.00000000000E+00 0. -1.
          6    2    1    2  501    0  0.88314552201E+02 -0.53258074776E+02 -0.40553337001E+03  0.45254456529E+03  0.17234670501E+03 0.  0.
         24    2    3    3    0    0 -0.83220756477E+01 -0.37910342177E+02 -0.27846465321E+03  0.29209912433E+03  0.79201542652E+02 0.  0.
         -6    2    1    2    0  502 -0.88314552201E+02  0.53258074776E+02 -0.33058135406E+03  0.38663290668E+03  0.17194502091E+03 0.  0.
        -24    2    5    5    0    0 -0.88516978171E+02  0.84629745958E+02 -0.32218762639E+03  0.35381877263E+03  0.79908747608E+02 0.  0.
          5    1    3    3  501    0  0.96636627848E+02 -0.15347732599E+02 -0.12706871679E+03  0.16044544096E+03  0.47000000000E+01 0. -1.
        -13    1    4    4    0    0  0.26534288206E+01  0.23719095782E+02 -0.10518579163E+03  0.10785957050E+03  0.00000000000E+00 0.  1.
         14    1    4    4    0    0 -0.10975504468E+02 -0.61629437959E+02 -0.17327886159E+03  0.18423955383E+03  0.00000000000E+00 0. -1.
         -5    1    5    5    0  502  0.20242597012E+00 -0.31371671181E+02 -0.83937276745E+01  0.32814134047E+02  0.47000000000E+01 0.  1.
         11    1    6    6    0    0 -0.87111251443E+02  0.55003795727E+02 -0.17010113550E+03  0.19886725213E+03  0.00000000000E+00 0. -1.
        -12    1    6    6    0    0 -0.14057267283E+01  0.29625950230E+02 -0.15208649089E+03  0.15495152050E+03  0.00000000000E+00 0.  1.
</event>
<event>
12    1  0.1593360E-001  0.2678525E+03  0.7818608E-02  0.1102961E+00
         21   -1    0    0  503  502  0.00000000000E+00  0.00000000000E+00  0.66994857463E+02  0.66994857463E+02  0.00000000000E+00 0. -1.
         21   -1    0    0  501  503 -0.00000000000E+00 -0.00000000000E+00 -0.10594045666E+04  0.10594045666E+04  0.00000000000E+00 0.  1.
          6    2    1    2  501    0 -0.72081136006E+01  0.20505731767E+03 -0.48441103418E+03  0.55353320405E+03  0.17217577509E+03 0.  0.
         24    2    3    3    0    0 -0.11638600270E+02  0.20775930732E+03 -0.32787778689E+03  0.39684345498E+03  0.81740429571E+02 0.  0.
         -6    2    1    2    0  502  0.72081136006E+01 -0.20505731767E+03 -0.50799867497E+03  0.57286622002E+03  0.16736962638E+03 0.  0.
        -24    2    5    5    0    0  0.36078841295E+02 -0.19689682821E+03 -0.49467968997E+03  0.53970603505E+03  0.80650882520E+02 0.  0.
          5    1    3    3  501    0  0.44304866695E+01 -0.27019896556E+01 -0.15653324728E+03  0.15668974908E+03  0.47000000000E+01 0. -1.
        -13    1    4    4    0    0 -0.12265202928E+02  0.10532762401E+03 -0.23806035552E+03  0.26060904906E+03  0.00000000000E+00 0.  1.
         14    1    4    4    0    0  0.62660265830E+00  0.10243168332E+03 -0.89817431376E+02  0.13623440592E+03  0.00000000000E+00 0. -1.
         -5    1    5    5    0  502 -0.28870727695E+02 -0.81604894550E+01 -0.13318985004E+02  0.33160184971E+02  0.47000000000E+01 0.  1.
         13    1    6    6    0    0 -0.48492150027E+01 -0.15384626611E+02 -0.67212606457E+01  0.17475038391E+02  0.00000000000E+00 0. -1.
        -14    1    6    6    0    0  0.40928056298E+02 -0.18151220160E+03 -0.48795842932E+03  0.52223099666E+03  0.00000000000E+00 0.  1.
</event>
<event>
12    1  0.1593360E-001  0.2036996E+03  0.7818608E-02  0.1146720E+00
         21   -1    0    0  501  502  0.00000000000E+00  0.00000000000E+00  0.55489513591E+02  0.55489513591E+02  0.00000000000E+00 0. -1.
         21   -1    0    0  502  503 -0.00000000000E+00 -0.00000000000E+00 -0.10942217291E+04  0.10942217291E+04  0.00000000000E+00 0. -1.
         -6    2    1    2    0  503 -0.96158115231E+02 -0.51711139965E+02 -0.84309481580E+03  0.86727977510E+03  0.17159520607E+03 0.  0.
        -24    2    3    3    0    0 -0.94114400885E+02 -0.56299036700E+02 -0.84799555636E+03  0.85883389901E+03  0.80449365966E+02 0.  0.
          6    2    1    2  501    0  0.96158115231E+02  0.51711139965E+02 -0.19563739976E+03  0.28243146764E+03  0.17196835932E+03 0.  0.
         24    2    5    5    0    0  0.11853751748E+03 -0.23662013602E+01 -0.14020553853E+03  0.20168508859E+03  0.83441835831E+02 0.  0.
          5    1    5    5  501    0 -0.22379402251E+02  0.54077341326E+02 -0.55431861232E+02  0.80746379050E+02  0.47000000000E+01 0. -1.
        -13    1    6    6    0    0  0.45594420688E+01 -0.38970807781E+01 -0.64655076671E+02  0.64932693536E+02  0.00000000000E+00 0.  1.
         14    1    6    6    0    0  0.11397807541E+03  0.15308794179E+01 -0.75550461858E+02  0.13675239506E+03  0.00000000000E+00 0. -1.
         -5    1    3    3    0  503 -0.20437143455E+01  0.45878967350E+01  0.49007405680E+01  0.84458760879E+01  0.47000000000E+01 0.  1.
         11    1    4    4    0    0 -0.10762129700E+03 -0.40986656695E+02 -0.74293746464E+03  0.75181003316E+03  0.00000000000E+00 0. -1.
        -12    1    4    4    0    0  0.13506896117E+02 -0.15312380005E+02 -0.10505809172E+03  0.10702386585E+03  0.00000000000E+00 0.  1.
</event>
<event>
12    1  0.1593360E-001  0.1734736E+03  0.7818608E-02  0.1174416E+00
         21   -1    0    0  501  502  0.00000000000E+00  0.00000000000E+00  0.33831826504E+02  0.33831826504E+02  0.00000000000E+00 0. -1.
         21   -1    0    0  502  503 -0.00000000000E+00 -0.00000000000E+00 -0.10105477412E+04  0.10105477412E+04  0.00000000000E+00 0. -1.
         -6    2    1    2    0  503  0.69174701342E+01  0.15414149742E+02 -0.67191723609E+03  0.69394947146E+03  0.17264891943E+03 0.  0.
        -24    2    3    3    0    0 -0.38333868899E+01  0.44987987063E+02 -0.64770464967E+03  0.65396782415E+03  0.78191994371E+02 0.  0.
          6    2    1    2  501    0 -0.69174701342E+01 -0.15414149742E+02 -0.30479867864E+03  0.35043009627E+03  0.17208593920E+03 0.  0.
         24    2    5    5    0    0  0.23418075610E+02  0.16191001961E+02 -0.29200786296E+03  0.30455171449E+03  0.81685983829E+02 0.  0.
          5    1    5    5  501    0 -0.30335545744E+02 -0.31605151703E+02 -0.12790815671E+02  0.45878381786E+02  0.47000000000E+01 0. -1.
        -11    1    6    6    0    0 -0.10095324828E+02  0.11961634108E+02 -0.63302531512E+01  0.16883968102E+02  0.00000000000E+00 0.  1.
         12    1    6    6    0    0  0.33513400438E+02  0.42293678535E+01 -0.28567760981E+03  0.28766774638E+03  0.00000000000E+00 0. -1.
         -5    1    3    3    0  503  0.10750857024E+02 -0.29573837321E+02 -0.24212586421E+02  0.39981647312E+02  0.47000000000E+01 0.  1.
         11    1    4    4    0    0 -0.40180440679E+02  0.32928518933E+02 -0.36239560262E+03  0.36610016112E+03  0.00000000000E+00 0. -1.
        -12    1    4    4    0    0  0.36347053789E+02  0.12059468130E+02 -0.28530904705E+03  0.28786766303E+03  0.00000000000E+00 0.  1.
</event>
<event>
12    1  0.1593360E-001  0.2940388E+03  0.7818608E-02  0.1088370E+00
         21   -1    0    0  503  502  0.00000000000E+00  0.00000000000E+00  0.37692029161E+03  0.37692029161E+03  0.00000000000E+00 0.  1.
         21   -1    0    0  501  503 -0.00000000000E+00 -0.00000000000E+00 -0.36638140598E+03  0.36638140598E+03  0.00000000000E+00 0. -1.
          6    2    1    2  501    0  0.38384596661E+02 -0.23555043532E+03 -0.22255674634E+03  0.36807858988E+03  0.17027318681E+03 0.  0.
         24    2    3    3    0    0 -0.34607858229E+02 -0.71548590051E+02 -0.86613323860E+02  0.14285157588E+03  0.81165265174E+02 0.  0.
         -6    2    1    2    0  502 -0.38384596661E+02  0.23555043532E+03  0.23309563198E+03  0.37522310771E+03  0.17175978013E+03 0.  0.
        -24    2    5    5    0    0  0.30645458769E+02  0.14420770704E+03  0.18801568193E+03  0.25208524002E+03  0.80386968303E+02 0.  0.
          5    1    3    3  501    0  0.72992454889E+02 -0.16400184527E+03 -0.13594342249E+03  0.22522701401E+03  0.47000000000E+01 0. -1.
        -13    1    4    4    0    0  0.19316566690E+02 -0.84116160498E+01 -0.45625401794E+02  0.50254973109E+02  0.00000000000E+00 0.  1.
         14    1    4    4    0    0 -0.53924424918E+02 -0.63136974001E+02 -0.40987922065E+02  0.92596602767E+02  0.00000000000E+00 0. -1.
         -5    1    5    5    0  502 -0.69030055430E+02  0.91342728283E+02  0.45079950052E+02  0.12313786769E+03  0.47000000000E+01 0.  1.
         13    1    6    6    0    0  0.44955189348E+02  0.37058067376E+02  0.50003402828E+02  0.76776361605E+02  0.00000000000E+00 0. -1.
        -14    1    6    6    0    0 -0.14309730579E+02  0.10714963966E+03  0.13801227910E+03  0.17530887841E+03  0.00000000000E+00 0.  1.
</event>
<event>
12    1  0.1593360E-001  0.2094424E+03  0.7818608E-02  0.1142255E+00
         21   -1    0    0  503  502  0.00000000000E+00  0.00000000000E+00  0.13603258705E+03  0.13603258705E+03  0.00000000000E+00 0. -1.
         21   -1    0    0  501  503 -0.00000000000E+00 -0.00000000000E+00 -0.39877395705E+03  0.39877395705E+03  0.00000000000E+00 0.  1.
          6    2    1    2  501    0  0.11757057828E+03  0.25041898608E+02 -0.24947857582E+03  0.32494464956E+03  0.16999861153E+03 0.  0.
         24    2    3    3    0    0  0.13650236138E+03  0.54367076110E+01 -0.14049850627E+03  0.21251012869E+03  0.82208710488E+02 0.  0.
         -6    2    1    2    0  502 -0.11757057828E+03 -0.25041898608E+02 -0.13262794183E+02  0.20986189454E+03  0.17151144425E+03 0.  0.
        -24    2    5    5    0    0 -0.99616245276E+02  0.36803300330E+02  0.25052157859E+02  0.13477985771E+03  0.79120921329E+02 0.  0.
          5    1    3    3  501    0 -0.18931783096E+02  0.19605190997E+02 -0.10898006955E+03  0.11243452087E+03  0.47000000000E+01 0. -1.
        -13    1    4    4    0    0  0.18296849947E+02  0.82498229647E+01 -0.74379551159E+02  0.77039937224E+02  0.00000000000E+00 0.  1.
         14    1    4    4    0    0  0.11820551143E+03 -0.28131153537E+01 -0.66118955115E+02  0.13547019147E+03  0.00000000000E+00 0. -1.
         -5    1    5    5    0  502 -0.17954333008E+02 -0.61845198938E+02 -0.38314952042E+02  0.75082036836E+02  0.47000000000E+01 0.  1.
         13    1    6    6    0    0  0.33725563966E+01 -0.69219079630E+01  0.21499790796E+02  0.22836986464E+02  0.00000000000E+00 0. -1.
        -14    1    6    6    0    0 -0.10298880167E+03  0.43725208293E+02  0.35523670626E+01  0.11194287124E+03  0.00000000000E+00 0.  1.
</event>
<event>
12    1  0.1593360E-001  0.1899262E+03  0.7818608E-02  0.1159939E+00
         21   -1    0    0  503  502  0.00000000000E+00  0.00000000000E+00  0.54999308311E+03  0.54999308311E+03  0.00000000000E+00 0.  1.
         21   -1    0    0  501  503 -0.00000000000E+00 -0.00000000000E+00 -0.69802377922E+02  0.69802377922E+02  0.00000000000E+00 0.  1.
          6    2    1    2  501    0  0.38402329102E+01  0.77561224015E+02  0.32974905038E+03  0.37750503208E+03  0.16656867100E+03 0.  0.
         24    2    3    3    0    0  0.10198162034E+01  0.91974215230E+02  0.13426268856E+03  0.18141144033E+03  0.80145772510E+02 0.  0.
         -6    2    1    2    0  502 -0.38402329102E+01 -0.77561224015E+02  0.15044165481E+03  0.24229042895E+03  0.17332475185E+03 0.  0.
        -24    2    5    5    0    0 -0.17321820709E+02  0.21805122141E+02  0.45082421669E+02  0.96763517473E+02  0.80964465946E+02 0.  0.
          5    1    3    3  501    0  0.28204167068E+01 -0.14412991215E+02  0.19548636183E+03  0.19609359175E+03  0.47000000000E+01 0. -1.
        -13    1    4    4    0    0 -0.34353461859E+01  0.75731989866E+02  0.14343274919E+03  0.16223467395E+03  0.00000000000E+00 0.  1.
         14    1    4    4    0    0  0.44551623893E+01  0.16242225363E+02 -0.91700606315E+01  0.19176766376E+02  0.00000000000E+00 0. -1.
         -5    1    5    5    0  502  0.13481587799E+02 -0.99366346156E+02  0.10535923314E+03  0.14552691148E+03  0.47000000000E+01 0.  1.
         11    1    6    6    0    0  0.19003825600E+02  0.32411016725E+02  0.45386667718E+02  0.58920022056E+02  0.00000000000E+00 0. -1.
        -12    1    6    6    0    0 -0.36325646309E+02 -0.10605894583E+02 -0.30424604908E+00  0.37843495417E+02  0.00000000000E+00 0.  1.
</event>
<event>
12    1  0.1593360E-001  0.1971541E+03  0.7818608E-02  0.1152691E+00
         21   -1    0    0  501  502  0.00000000000E+00  0.00000000000E+00  0.26730143900E+03  0.26730143900E+03  0.00000000000E+00 0. -1.
         21   -1    0    0  502  503 -0.00000000000E+00 -0.00000000000E+00 -0.19122163319E+03  0.19122163319E+03  0.00000000000E+00 0.  1.
         -6    2    1    2    0  503  0.26258593209E+02 -0.89425524521E+02 -0.76525220634E+02  0.20920797256E+03  0.17095446247E+03 0.  0.
        -24    2    3    3    0    0 -0.17526940839E+01  0.21355560265E+02 -0.30385822017E+02  0.85887191400E+02  0.77422087134E+02 0.  0.
          6    2    1    2  501    0 -0.26258593209E+02  0.89425524521E+02  0.15260502645E+03  0.24931509963E+03  0.17373337806E+03 0.  0.
         24    2    5    5    0    0 -0.55671044011E+02  0.89848390186E+02  0.49105953575E+02  0.14161449999E+03  0.80444226457E+02 0.  0.
          5    1    5    5  501    0  0.29412450802E+02 -0.42286566440E+00  0.10349907287E+03  0.10770059964E+03  0.47000000000E+01 0. -1.
        -13    1    6    6    0    0 -0.21648664352E+02  0.51548415793E+02 -0.16577324757E+02  0.58315619992E+02  0.00000000000E+00 0.  1.
         14    1    6    6    0    0 -0.34022379659E+02  0.38299974393E+02  0.65683278332E+02  0.83298879996E+02  0.00000000000E+00 0. -1.
         -5    1    3    3    0  503  0.28011287293E+02 -0.11078108479E+03 -0.46139398616E+02  0.12332078116E+03  0.47000000000E+01 0.  1.
         11    1    4    4    0    0 -0.16141450475E+02 -0.26126972368E+02 -0.11078009166E+02  0.32647930955E+02  0.00000000000E+00 0. -1.
        -12    1    4    4    0    0  0.14388756391E+02  0.47482532632E+02 -0.19307812851E+02  0.53239260445E+02  0.00000000000E+00 0.  1.
</event>
<event>
12    1  0.1593360E-001  0.2045506E+03  0.7818608E-02  0.1146330E+00
         21   -1    0    0  503  502  0.00000000000E+00  0.00000000000E+00  0.10479935825E+03  0.10479935825E+03  0.00000000000E+00 0.  1.
         21   -1    0    0  501  503 -0.00000000000E+00 -0.00000000000E+00 -0.13348304211E+04  0.13348304211E+04  0.00000000000E+00 0. -1.
          6    2    1    2  501    0 -0.12382280950E+02  0.10712388053E+03 -0.12179670511E+04  0.12347237401E+04  0.17166866371E+03 0.  0.
         24    2    3    3    0    0 -0.23271176634E+02  0.69363191507E+02 -0.35953790001E+03  0.37538263486E+03  0.79320999826E+02 0.  0.
         -6    2    1    2    0  502  0.12382280950E+02 -0.10712388053E+03 -0.12064011714E+02  0.20490603922E+03  0.17381627619E+03 0.  0.
        -24    2    5    5    0    0  0.50540678434E+02 -0.60876974591E+01  0.84756655872E+01  0.94868127882E+02  0.79603420427E+02 0.  0.
          5    1    3    3  501    0  0.10888895684E+02  0.37760689027E+02 -0.85842915109E+03  0.85934110523E+03  0.47000000000E+01 0. -1.
        -11    1    4    4    0    0  0.27677136095E+02  0.18392033818E+02 -0.15492681914E+03  0.15845065497E+03  0.00000000000E+00 0.  1.
         12    1    4    4    0    0 -0.50948312730E+02  0.50971157689E+02 -0.20461108087E+03  0.21693197989E+03  0.00000000000E+00 0. -1.
         -5    1    5    5    0  502 -0.38158397483E+02 -0.10103618307E+03 -0.20539677301E+02  0.11003791134E+03  0.47000000000E+01 0.  1.
         13    1    6    6    0    0  0.27227637415E+02  0.34255824811E+02  0.17988993238E+02  0.47311834148E+02  0.00000000000E+00 0. -1.
        -14    1    6    6    0    0  0.23313041019E+02 -0.40343522270E+02 -0.95133276507E+01  0.47556293734E+02  0.00000000000E+00 0.  1.
</event>
<event>
12    1  0.1593360E-001  0.2214337E+03  0.7818608E-02  0.1133123E+00
         21   -1    0    0  501  502  0.00000000000E+00  0.00000000000E+00  0.79540768890E+03  0.79540768890E+03  0.00000000000E+00 0. -1.
         21   -1    0    0  502  503 -0.00000000000E+00 -0.00000000000E+00 -0.65953237670E+02  0.65953237670E+02  0.00000000000E+00 0.  1.
         -6    2    1    2    0  503  0.91175730722E+02  0.10430714593E+03  0.25023480336E+03  0.33414121957E+03  0.17274230298E+03 0.  0.
        -24    2    3    3    0    0 -0.11634907496E+01  0.17914755816E+02  0.15852140141E+03  0.17786065459E+03  0.78632598590E+02 0.  0.
          6    2    1    2  501    0 -0.91175730722E+02 -0.10430714593E+03  0.47921964787E+03  0.52721970700E+03  0.17063456268E+03 0.  0.
         24    2    5    5    0    0 -0.64730229293E+02 -0.13999961560E+03  0.35492796729E+03  0.39514461927E+03  0.79846810989E+02 0.  0.
          5    1    5    5  501    0 -0.26445501428E+02  0.35692469663E+02  0.12429168058E+03  0.13207508773E+03  0.47000000000E+01 0. -1.
        -11    1    6    6    0    0  0.11907294443E+02 -0.16369628491E+02  0.14371051750E+02  0.24824897307E+02  0.00000000000E+00 0.  1.
         12    1    6    6    0    0 -0.76637523736E+02 -0.12362998711E+03  0.34055691554E+03  0.37031972196E+03  0.00000000000E+00 0. -1.
         -5    1    3    3    0  503  0.92339221471E+02  0.86392390118E+02  0.91713401955E+02  0.15628056498E+03  0.47000000000E+01 0.  1.
         13    1    4    4    0    0  0.34508184706E+02  0.23641261621E+02  0.10742711467E+03  0.11528360260E+03  0.00000000000E+00 0. -1.
        -14    1    4    4    0    0 -0.35671675455E+02 -0.57265058047E+01  0.51094286741E+02  0.62577051993E+02  0.00000000000E+00 0.  1.
</event>
<event>
12    1  0.1593360E-001  0.2013323E+03  0.7818608E-02  0.1151629E+00
         21   -1    0    0  501  502  0.00000000000E+00  0.00000000000E+00  0.39170666459E+03  0.39170666459E+03  0.00000000000E+00 0. -1.
         21   -1    0    0  502  503 -0.00000000000E+00 -0.00000000000E+00 -0.15521243895E+03  0.15521243895E+03  0.00000000000E+00 0. -1.
         -6    2    1    2    0  503 -0.73388926324E+02  0.39908454107E+01 -0.52516944552E+02  0.19469452031E+03  0.17247047696E+03 0.  0.
        -24    2    3    3    0    0  0.24440434969E+02 -0.15763903677E+02 -0.39063647434E+02  0.93878275364E+02  0.80257875089E+02 0.  0.
          6    2    1    2  501    0  0.73388926324E+02 -0.39908454107E+01  0.28901117019E+03  0.35222458322E+03  0.18743756074E+03 0.  0.
         24    2    5    5    0    0  0.35954091160E+02  0.73182487076E+02  0.18974260115E+03  0.22094842800E+03  0.78533942073E+02 0.  0.
          5    1    5    5  501    0  0.37434835164E+02 -0.77173332486E+02  0.99268569042E+02  0.13127615522E+03  0.47000000000E+01 0. -1.
        -13    1    6    6    0    0  0.10864844675E+02  0.42978072371E+02  0.23583632104E+02  0.50213018807E+02  0.00000000000E+00 0.  1.
         14    1    6    6    0    0  0.25089246485E+02  0.30204414705E+02  0.16615896905E+03  0.17073540919E+03  0.00000000000E+00 0. -1.
         -5    1    3    3    0  503 -0.97829361293E+02  0.19754749088E+02 -0.13453297118E+02  0.10081624495E+03  0.47000000000E+01 0.  1.
         11    1    4    4    0    0 -0.44389418010E+01  0.20989764394E+01  0.22791870423E+02  0.23314786377E+02  0.00000000000E+00 0. -1.
        -12    1    4    4    0    0  0.28879376770E+02 -0.17862880117E+02 -0.61855517857E+02  0.70563488988E+02  0.00000000000E+00 0.  1.
</event>
<event>
12    1  0.1593360E-001  0.2278544E+03  0.7818608E-02  0.1128645E+00
         21   -1    0    0  503  502  0.00000000000E+00  0.00000000000E+00  0.10834845481E+04  0.10834845481E+04  0.00000000000E+00 0.  1.
         21   -1    0    0  501  503 -0.00000000000E+00 -0.00000000000E+00 -0.60072211386E+02  0.60072211386E+02  0.00000000000E+00 0.  1.
          6    2    1    2  501    0  0.31941861781E+02  0.14446814521E+03  0.25097907284E+03  0.33898099625E+03  0.17328096636E+03 0.  0.
         24    2    3    3    0    0 -0.39111496497E+01  0.13702904536E+03  0.11200903732E+03  0.19519108212E+03  0.82226989081E+02 0.  0.
         -6    2    1    2    0  502 -0.31941861781E+02 -0.14446814521E+03  0.77243326383E+03  0.80457576319E+03  0.16969880414E+03 0.  0.
        -24    2    5    5    0    0  0.13677173606E+02 -0.74563766742E+02  0.63407040697E+03  0.64291535160E+03  0.74485219555E+02 0.  0.
          5    1    3    3  501    0  0.35853011431E+02  0.74390998497E+01  0.13897003552E+03  0.14378991414E+03  0.47000000000E+01 0. -1.
        -11    1    4    4    0    0 -0.32610444591E+02  0.34537320593E+02  0.11660629925E+02  0.48910509101E+02  0.00000000000E+00 0.  1.
         12    1    4    4    0    0  0.28699294942E+02  0.10249172476E+03  0.10034840739E+03  0.14628057301E+03  0.00000000000E+00 0. -1.
         -5    1    5    5    0  502 -0.45619035387E+02 -0.69904378463E+02  0.13836285685E+03  0.16166041159E+03  0.47000000000E+01 0.  1.
         11    1    6    6    0    0 -0.19017756184E+01  0.12287777503E+02  0.17503955969E+03  0.17548063621E+03  0.00000000000E+00 0. -1.
        -12    1    6    6    0    0  0.15578949224E+02 -0.86851544245E+02  0.45903084728E+03  0.46743471539E+03  0.00000000000E+00 0.  1.
</event>
<event>
12    1  0.1593360E-001  0.1792306E+03  0.7818608E-02  0.1168757E+00
         21   -1    0    0  501  502  0.00000000000E+00  0.00000000000E+00  0.49061716245E+03  0.49061716245E+03  0.00000000000E+00 0.  1.
         21   -1    0    0  502  503 -0.00000000000E+00 -0.00000000000E+00 -0.12086060024E+03  0.12086060024E+03  0.00000000000E+00 0.  1.
         -6    2    1    2    0  503  0.39334931025E+02 -0.22647130000E+02 -0.22430940296E+02  0.18062880120E+03  0.17338825636E+03 0.  0.
        -24    2    3    3    0    0  0.99950378710E+01 -0.44580233942E+02 -0.72790178069E+02  0.11817855534E+03  0.81120052265E+02 0.  0.
          6    2    1    2  501    0 -0.39334931025E+02  0.22647130000E+02  0.39218750251E+03  0.43084896149E+03  0.17250988723E+03 0.  0.
         24    2    5    5    0    0 -0.18315320506E+02  0.81127955277E+02  0.26009174898E+03  0.28479003827E+03  0.80873060509E+02 0.  0.
          5    1    5    5  501    0 -0.21019610519E+02 -0.58480825277E+02  0.13209575353E+03  0.14605892322E+03  0.47000000000E+01 0. -1.
        -13    1    6    6    0    0  0.14612260618E+02  0.25231947433E+02  0.17693500046E+03  0.17932139783E+03  0.00000000000E+00 0.  1.
         14    1    6    6    0    0 -0.32927581124E+02  0.55896007843E+02  0.83156748523E+02  0.10546864044E+03  0.00000000000E+00 0. -1.
         -5    1    3    3    0  503  0.29339893154E+02  0.21933103942E+02  0.50359237772E+02  0.62450245859E+02  0.47000000000E+01 0.  1.
         13    1    4    4    0    0  0.24525718348E+01  0.20408151731E+02 -0.40055369169E+02  0.45021554448E+02  0.00000000000E+00 0. -1.
        -14    1    4    4    0    0  0.75424660363E+01 -0.64988385673E+02 -0.32734808900E+02  0.73157000895E+02  0.00000000000E+00 0.  1.
</event>
<event>
12    1  0.1593360E-001  0.1731530E+03  0.7818608E-02  0.1174771E+00
         21   -1    0    0  501  502  0.00000000000E+00  0.00000000000E+00  0.40030859989E+02  0.40030859989E+02  0.00000000000E+00 0. -1.
         21   -1    0    0  502  503 -0.00000000000E+00 -0.00000000000E+00 -0.96345584142E+03  0.96345584142E+03  0.00000000000E+00 0. -1.
         -6    2    1    2    0  503  0.56521744221E+00 -0.93334709942E+01 -0.70074490110E+03  0.72182087499E+03  0.17290033545E+03 0.  0.
        -24    2    3    3    0    0  0.59334289132E+02  0.27529638365E+02 -0.38291453066E+03  0.39647348067E+03  0.79304755372E+02 0.  0.
          6    2    1    2  501    0 -0.56521744221E+00  0.93334709942E+01 -0.22268008033E+03  0.28166582642E+03  0.17222597494E+03 0.  0.
         24    2    5    5    0    0 -0.37200680331E+02  0.59662672136E+02 -0.10157495218E+03  0.14541705507E+03  0.76714561413E+02 0.  0.
          5    1    5    5  501    0  0.36635462889E+02 -0.50329201142E+02 -0.12110512815E+03  0.13624877135E+03  0.47000000000E+01 0. -1.
        -13    1    6    6    0    0 -0.25099908115E+02 -0.14037173748E+02 -0.35591414454E+02  0.45758020248E+02  0.00000000000E+00 0.  1.
         14    1    6    6    0    0 -0.12100772216E+02  0.73699845885E+02 -0.65983537723E+02  0.99659034824E+02  0.00000000000E+00 0. -1.
         -5    1    3    3    0  503 -0.58769071690E+02 -0.36863109360E+02 -0.31783037043E+03  0.32534739432E+03  0.47000000000E+01 0.  1.
         11    1    4    4    0    0 -0.19252369779E+02  0.11938216127E+02 -0.80659586728E+02  0.83780329896E+02  0.00000000000E+00 0. -1.
        -12    1    4    4    0    0  0.78586658911E+02  0.15591422239E+02 -0.30225494394E+03  0.31269315077E+03  0.00000000000E+00 0.  1.
</event>
<event>
12    1  0.1593360E-001  0.3465842E+03  0.7818608E-02  0.1064181E+00
         21   -1    0    0  503  502  0.00000000000E+00  0.00000000000E+00  0.16786341146E+03  0.16786341146E+03  0.00000000000E+00 0. -1.
         21   -1    0    0  501  503 -0.00000000000E+00 -0.00000000000E+00 -0.77593933883E+03  0.77593933883E+03  0.00000000000E+00 0.  1.
          6    2    1    2  501    0  0.24755206678E+03 -0.17113955073E+03 -0.16971940614E+03  0.38590837354E+03  0.17190062349E+03 0.  0.
         24    2    3    3    0    0  0.14574814669E+03 -0.16041636929E+03 -0.65734628074E+02  0.23991539825E+03  0.79135473642E+02 0.  0.
         -6    2    1    2    0  502 -0.24755206678E+03  0.17113955073E+03 -0.43835652123E+03  0.55789437675E+03  0.16887546983E+03 0.  0.
        -24    2    5    5    0    0 -0.77122006654E+02  0.78671585984E+02 -0.26453085753E+03  0.29744441752E+03  0.79747003571E+02 0.  0.
          5    1    3    3  501    0  0.10180392010E+03 -0.10723181446E+02 -0.10398477806E+03  0.14599297530E+03  0.47000000000E+01 0. -1.
        -13    1    4    4    0    0  0.69256706372E+02 -0.97709900128E+02 -0.73800587564E+02  0.14067779741E+03  0.00000000000E+00 0.  1.
         14    1    4    4    0    0  0.76491440317E+02 -0.62706469160E+02  0.80659594899E+01  0.99237600832E+02  0.00000000000E+00 0. -1.
         -5    1    5    5    0  502 -0.17043006013E+03  0.92467964750E+02 -0.17382566370E+03  0.26044995923E+03  0.47000000000E+01 0.  1.
         13    1    6    6    0    0 -0.46543723988E+02  0.12001636137E+01 -0.55570743495E+02  0.72497352834E+02  0.00000000000E+00 0. -1.
        -14    1    6    6    0    0 -0.30578282666E+02  0.77471422370E+02 -0.20896011403E+03  0.22494706468E+03  0.00000000000E+00 0.  1.
</event>
<event>
12    1  0.1593360E-001  0.2765280E+03  0.7818608E-02  0.1097807E+00
         21   -1    0    0  503  502  0.00000000000E+00  0.00000000000E+00  0.38428689197E+03  0.38428689197E+03  0.00000000000E+00 0.  1.
         21   -1    0    0  501  503 -0.00000000000E+00 -0.00000000000E+00 -0.20703780858E+03  0.20703780858E+03  0.00000000000E+00 0.  1.
          6    2    1    2  501    0  0.10192434042E+03 -0.18949712803E+03  0.26803468690E+02  0.27782394209E+03  0.17369508963E+03 0.  0.
         24    2    3    3    0    0  0.54615795536E+01 -0.15472390824E+03  0.19621941491E+02  0.17492639410E+03  0.79024718501E+02 0.  0.
         -6    2    1    2    0  502 -0.10192434042E+03  0.18949712803E+03  0.15044561470E+03  0.31350075847E+03  0.17132165618E+03 0.  0.
        -24    2    5    5    0    0 -0.75981031443E+02  0.17441330720E+03  0.17806190034E+03  0.27244803427E+03  0.79553580424E+02 0.  0.
          5    1    3    3  501    0  0.96462760863E+02 -0.34773219796E+02  0.71815271992E+01  0.10289754798E+03  0.47000000000E+01 0. -1.
        -13    1    4    4    0    0  0.34589603742E+02 -0.91675351080E+02  0.34534634754E+02  0.10389153806E+03  0.00000000000E+00 0.  1.
         14    1    4    4    0    0 -0.29128024188E+02 -0.63048557157E+02 -0.14912693263E+02  0.71034856043E+02  0.00000000000E+00 0. -1.
         -5    1    5    5    0  502 -0.25943308974E+02  0.15083820832E+02 -0.27616285640E+02  0.41052724196E+02  0.47000000000E+01 0.  1.
         11    1    6    6    0    0  0.10093397123E+02  0.35320417797E+01  0.25779500708E+02  0.27909400591E+02  0.00000000000E+00 0. -1.
        -12    1    6    6    0    0 -0.86074428566E+02  0.17088126542E+03  0.15228239963E+03  0.24453863368E+03  0.00000000000E+00 0.  1.
</event>
<event>
12    1  0.1593360E-001  0.2604583E+03  0.7818608E-02  0.1107824E+00
         21   -1    0    0  501  502  0.00000000000E+00  0.00000000000E+00  0.22652579264E+04  0.22652579264E+04  0.00000000000E+00 0. -1.
         21   -1    0    0  502  503 -0.00000000000E+00 -0.00000000000E+00 -0.35626006314E+02  0.35626006314E+02  0.00000000000E+00 0.  1.
         -6    2    1    2    0  503  0.16164286461E+03  0.10606957325E+03  0.63849801864E+03  0.68957831660E+03  0.17452611516E+03 0.  0.
        -24    2    3    3    0    0  0.61718005187E+02  0.12304437482E+03  0.38796687186E+03  0.41928020909E+03  0.79552308154E+02 0.  0.
          6    2    1    2  501    0 -0.16164286461E+03 -0.10606957325E+03  0.15911339015E+04  0.16113056161E+04  0.16498341170E+03 0.  0.
         24    2    5    5    0    0 -0.18035698245E+03 -0.71032378278E+02  0.14289617097E+04  0.14442734844E+04  0.80125465137E+02 0.  0.
          5    1    5    5  501    0  0.18714117843E+02 -0.35037194968E+02  0.16217219176E+03  0.16703213169E+03  0.47000000000E+01 0. -1.
        -11    1    6    6    0    0 -0.49455532913E+02  0.14140262428E+02  0.45048871481E+03  0.45341579034E+03  0.00000000000E+00 0.  1.
         12    1    6    6    0    0 -0.13090144954E+03 -0.85172640706E+02  0.97847299489E+03  0.99085769409E+03  0.00000000000E+00 0. -1.
         -5    1    3    3    0  503  0.99924859422E+02 -0.16974801576E+02  0.25053114678E+03  0.27029810751E+03  0.47000000000E+01 0.  1.
         11    1    4    4    0    0  0.13347302142E+02  0.97704335331E+02  0.19194143352E+03  0.21579110621E+03  0.00000000000E+00 0. -1.
        -12    1    4    4    0    0  0.48370703045E+02  0.25340039490E+02  0.19602543834E+03  0.20348910288E+03  0.00000000000E+00 0.  1.
</event>
<event>
12    1  0.1593360E-001  0.2097167E+03  0.7818608E-02  0.1141838E+00
         21   -1    0    0  503  502  0.00000000000E+00  0.00000000000E+00  0.96208255337E+02  0.96208255337E+02  0.00000000000E+00 0. -1.
         21   -1    0    0  501  503 -0.00000000000E+00 -0.00000000000E+00 -0.47510887951E+03  0.47510887951E+03  0.00000000000E+00 0. -1.
          6    2    1    2  501    0  0.80998544378E+02 -0.87997691543E+02 -0.24569697447E+03  0.32287339613E+03  0.17197636103E+03 0.  0.
         24    2    3    3    0    0  0.88976852090E+02  0.69369004019E+00 -0.13053621891E+03  0.17722345900E+03  0.80318668821E+02 0.  0.
         -6    2    1    2    0  502 -0.80998544378E+02  0.87997691543E+02 -0.13320364970E+03  0.24844373872E+03  0.17226932724E+03 0.  0.
        -24    2    5    5    0    0 -0.21620290604E+02  0.19969019048E+02  0.58322842999E+00  0.86967127217E+02  0.81833626178E+02 0.  0.
          5    1    3    3  501    0 -0.79783077123E+01 -0.88691381584E+02 -0.11516075557E+03  0.14564993712E+03  0.47000000000E+01 0. -1.
        -11    1    4    4    0    0 -0.80986671967E+01 -0.18178121014E+01  0.55922163668E+01  0.10008283324E+02  0.00000000000E+00 0.  1.
         12    1    4    4    0    0  0.97075519287E+02  0.25115021416E+01 -0.13612843527E+03  0.16721517568E+03  0.00000000000E+00 0. -1.
         -5    1    5    5    0  502 -0.59378253773E+02  0.68028672496E+02 -0.13378687813E+03  0.16147661150E+03  0.47000000000E+01 0.  1.
         11    1    6    6    0    0 -0.41874876210E+02  0.25693709063E+02 -0.23938517770E+02  0.54650933900E+02  0.00000000000E+00 0. -1.
        -12    1    6    6    0    0  0.20254585606E+02 -0.57246900158E+01  0.24521746200E+02  0.32316193318E+02  0.00000000000E+00 0.  1.
</event>
<event>
12    1  0.1593360E-001  0.2323925E+03  0.7818608E-02  0.1127741E+00
         21   -1    0    0  503  502  0.00000000000E+00  0.00000000000E+00  0.79714304140E+03  0.79714304140E+03  0.00000000000E+00 0.  1.
         21   -1    0    0  501  503 -0.00000000000E+00 -0.00000000000E+00 -0.74056244983E+02  0.74056244983E+02  0.00000000000E+00 0.  1.
          6    2    1    2  501    0 -0.36250062678E+02  0.15227455532E+03  0.53780928191E+03  0.58587122167E+03  0.17176919814E+03 0.  0.
         24    2    3    3    0    0 -0.37400936296E+01  0.20333177196E+02  0.31927212517E+03  0.32848823035E+03  0.74447304640E+02 0.  0.
         -6    2    1    2    0  502  0.36250062678E+02 -0.15227455532E+03  0.18527751451E+03  0.28532806471E+03  0.15027554655E+03 0.  0.
        -24    2    5    5    0    0  0.16676805878E+01 -0.13615110250E+03  0.18941808059E+03  0.24666100937E+03  0.80140753777E+02 0.  0.
          5    1    3    3  501    0 -0.32509969048E+02  0.13194137812E+03  0.21853715673E+03  0.25738299132E+03  0.47000000000E+01 0. -1.
        -13    1    4    4    0    0  0.16713449474E+02  0.43246469570E+02  0.18071830991E+03  0.18657090893E+03  0.00000000000E+00 0.  1.
         14    1    4    4    0    0 -0.20453543104E+02 -0.22913292374E+02  0.13855381527E+03  0.14191732142E+03  0.00000000000E+00 0. -1.
         -5    1    5    5    0  502  0.34582382090E+02 -0.16123452815E+02 -0.41405660856E+01  0.38667055347E+02  0.47000000000E+01 0.  1.
         13    1    6    6    0    0 -0.17087956436E+02 -0.13811610479E+02  0.19994671669E+01  0.22062563499E+02  0.00000000000E+00 0. -1.
        -14    1    6    6    0    0  0.18755637023E+02 -0.12233949202E+03  0.18741861343E+03  0.22459844587E+03  0.00000000000E+00 0.  1.
</event>
<event>
12    1  0.1593360E-001  0.2721024E+03  0.7818608E-02  0.1100185E+00
         21   -1    0    0  501  502  0.00000000000E+00  0.00000000000E+00  0.71556338611E+03  0.71556338611E+03  0.00000000000E+00 0.  1.
         21   -1    0    0  502  503 -0.00000000000E+00 -0.00000000000E+00 -0.57167102602E+03  0.57167102602E+03  0.00000000000E+00 0.  1.
         -6    2    1    2    0  503  0.26585047553E+01  0.20980823767E+03 -0.51070882562E+03  0.57833213720E+03  0.17209878591E+03 0.  0.
        -24    2    3    3    0    0  0.19873942976E+02  0.74368659384E+02 -0.35083728115E+03  0.36804364153E+03  0.80272368355E+02 0.  0.
          6    2    1    2  501    0 -0.26585047553E+01 -0.20980823767E+03  0.65460118571E+03  0.70890227493E+03  0.17324306287E+03 0.  0.
         24    2    5    5    0    0 -0.38669543631E+02 -0.41289170277E+02  0.27477045939E+03  0.29178245803E+03  0.80237573958E+02 0.  0.
          5    1    5    5  501    0  0.36011038875E+02 -0.16851906739E+03  0.37983072632E+03  0.41711981690E+03  0.47000000000E+01 0. -1.
        -11    1    6    6    0    0 -0.98133710981E+01 -0.34338534259E+02  0.25161590144E+03  0.25413775604E+03  0.00000000000E+00 0.  1.
         12    1    6    6    0    0 -0.28856172532E+02 -0.69506360173E+01  0.23154557953E+02  0.37644701995E+02  0.00000000000E+00 0. -1.
         -5    1    3    3    0  503 -0.17215438220E+02  0.13543957828E+03 -0.15987154447E+03  0.21028849567E+03  0.47000000000E+01 0.  1.
         11    1    4    4    0    0 -0.19407229190E+02 -0.54702399084E+01 -0.41108509584E+02  0.45787264929E+02  0.00000000000E+00 0. -1.
        -12    1    4    4    0    0  0.39281172166E+02  0.79838899292E+02 -0.30972877156E+03  0.32225637660E+03  0.00000000000E+00 0.  1.
</event>
<event>
12    1  0.1593360E-001  0.1852334E+03  0.7818608E-02  0.1163139E+00
         21   -1    0    0  501  502  0.00000000000E+00  0.00000000000E+00  0.23621561451E+03  0.23621561451E+03  0.00000000000E+00 0. -1.
         21   -1    0    0  502  503 -0.00000000000E+00 -0.00000000000E+00 -0.14440069798E+03  0.14440069798E+03  0.00000000000E+00 0.  1.
         -6    2    1    2    0  503 -0.46730611112E+02  0.52284767541E+02  0.39166072131E+02  0.18804604677E+03  0.17002907859E+03 0.  0.
        -24    2    3    3    0    0 -0.38650854910E+02  0.87289941857E+02  0.68834006943E+02  0.14121741189E+03  0.78043669655E+02 0.  0.
          6    2    1    2  501    0  0.46730611112E+02 -0.52284767541E+02  0.52648844400E+02  0.19257026571E+03  0.17144666660E+03 0.  0.
         24    2    5    5    0    0 -0.20538930655E+02 -0.43871734665E+02 -0.15722503160E+02  0.96171606288E+02  0.81579433533E+02 0.  0.
          5    1    5    5  501    0  0.67269541766E+02 -0.84130328766E+01  0.68371347559E+02  0.96398659424E+02  0.47000000000E+01 0. -1.
        -13    1    6    6    0    0  0.74098810787E+01 -0.58579264217E+02 -0.23655181725E+02  0.63608208246E+02  0.00000000000E+00 0.  1.
         14    1    6    6    0    0 -0.27948811734E+02  0.14707529552E+02  0.79326785655E+01  0.32563398042E+02  0.00000000000E+00 0. -1.
         -5    1    3    3    0  503 -0.80797562015E+01 -0.35005174315E+02 -0.29667934811E+02  0.46828634884E+02  0.47000000000E+01 0.  1.
         13    1    4    4    0    0 -0.26827151756E+02  0.92153639319E+02  0.30347012065E+02  0.10066245801E+03  0.00000000000E+00 0. -1.
        -14    1    4    4    0    0 -0.11823703155E+02 -0.48636974620E+01  0.38486994877E+02  0.40554953877E+02  0.00000000000E+00 0.  1.
</event>
<event>
12    1  0.1593360E-001  0.1773879E+03  0.7818608E-02  0.1172808E+00
         21   -1    0    0  501  502  0.00000000000E+00  0.00000000000E+00  0.27441272230E+03  0.27441272230E+03  0.00000000000E+00 0. -1.
         21   -1    0    0  502  503 -0.00000000000E+00 -0.00000000000E+00 -0.10937686455E+03  0.10937686455E+03  0.00000000000E+00 0. -1.
         -6    2    1    2    0  503  0.60851360439E+01  0.46437329553E+02  0.67768909992E+02  0.18989235252E+03  0.17109361744E+03 0.  0.
        -24    2    3    3    0    0  0.14979259594E+01  0.72625171649E+01  0.10744154955E+03  0.13375219976E+03  0.79315675843E+02 0.  0.
          6    2    1    2  501    0 -0.60851360439E+01 -0.46437329553E+02  0.97266947755E+02  0.19389723433E+03  0.16106465751E+03 0.  0.
         24    2    5    5    0    0 -0.33902933180E+02 -0.84360657276E+02  0.77770901953E+02  0.14276804086E+03  0.77899107348E+02 0.  0.
          5    1    5    5  501    0  0.27817797136E+02  0.37923327723E+02  0.19496045802E+02  0.51129193471E+02  0.47000000000E+01 0. -1.
        -13    1    6    6    0    0 -0.24614418547E+02 -0.47185366990E+02 -0.30673901341E+01  0.53307948194E+02  0.00000000000E+00 0.  1.
         14    1    6    6    0    0 -0.92885146320E+01 -0.37175290287E+02  0.80838292087E+02  0.89460092665E+02  0.00000000000E+00 0. -1.
         -5    1    3    3    0  503  0.45872100845E+01  0.39174812388E+02 -0.39672639557E+02  0.56140152756E+02  0.47000000000E+01 0.  1.
         13    1    4    4    0    0  0.28426036397E+02 -0.58357005677E+01  0.82933229216E+01  0.30180691699E+02  0.00000000000E+00 0. -1.
        -14    1    4    4    0    0 -0.26928110437E+02  0.13098217733E+02  0.99148226628E+02  0.10357150807E+03  0.00000000000E+00 0.  1.
</event>
<event>
12    1  0.1593360E-001  0.2477142E+03  0.7818608E-02  0.1115052E+00
         21   -1    0    0  501  502  0.00000000000E+00  0.00000000000E+00  0.14060594044E+03  0.14060594044E+03  0.00000000000E+00 0. -1.
         21   -1    0    0  502  503 -0.00000000000E+00 -0.00000000000E+00 -0.47282801390E+03  0.47282801390E+03  0.00000000000E+00 0.  1.
         -6    2    1    2    0  503 -0.40602039527E+02 -0.17200888611E+03 -0.77872033888E+02  0.25966590043E+03  0.17357057259E+03 0.  0.
        -24    2    3    3    0    0 -0.53667870513E+02 -0.97762874226E+02  0.17163243308E+02  0.13826993620E+03  0.79913568520E+02 0.  0.
          6    2    1    2  501    0  0.40602039527E+02  0.17200888611E+03 -0.25435003957E+03  0.35376805390E+03  0.17094534452E+03 0.  0.
         24    2    5    5    0    0  0.52076780418E+02  0.16289495927E+03 -0.13200922443E+03  0.23046315379E+03  0.80250053627E+02 0.  0.
          5    1    5    5  501    0 -0.11474740890E+02  0.91139268418E+01 -0.12234081514E+03  0.12330490011E+03  0.47000000000E+01 0. -1.
        -13    1    6    6    0    0  0.32555633019E+02  0.14227664953E+02 -0.44167744593E+02  0.56684083778E+02  0.00000000000E+00 0.  1.
         14    1    6    6    0    0  0.19521147399E+02  0.14866729432E+03 -0.87841479837E+02  0.17377907001E+03  0.00000000000E+00 0. -1.
         -5    1    3    3    0  503  0.13065830986E+02 -0.74246011886E+02 -0.95035277196E+02  0.12139596423E+03  0.47000000000E+01 0.  1.
         13    1    4    4    0    0 -0.65351156143E+02 -0.38484512805E+02  0.15075842529E+01  0.75855811547E+02  0.00000000000E+00 0. -1.
        -14    1    4    4    0    0  0.11683285630E+02 -0.59278361421E+02  0.15655659055E+02  0.62414124654E+02  0.00000000000E+00 0.  1.
</event>
<event>
12    1  0.1593360E-001  0.1915402E+03  0.7818608E-02  0.1157486E+00
         21   -1    0    0  503  502  0.00000000000E+00  0.00000000000E+00  0.10895984056E+03  0.10895984056E+03  0.00000000000E+00 0.  1.
         21   -1    0    0  501  503 -0.00000000000E+00 -0.00000000000E+00 -0.36376644313E+03  0.36376644313E+03  0.00000000000E+00 0.  1.
          6    2    1    2  501    0 -0.19309862113E+01 -0.78990067327E+02 -0.19610267000E+03  0.27412388230E+03  0.17448348409E+03 0.  0.
         24    2    3    3    0    0 -0.26068287238E+02 -0.18967572191E+02 -0.19095765742E+03  0.20905568440E+03  0.78740890646E+02 0.  0.
         -6    2    1    2    0  502  0.19309862113E+01  0.78990067327E+02 -0.58703932570E+02  0.19860240139E+03  0.17249232649E+03 0.  0.
        -24    2    5    5    0    0 -0.24290039358E+02  0.77589288472E+02  0.18039045852E+02  0.11735537622E+03  0.82684783690E+02 0.  0.
          5    1    3    3  501    0  0.24137301027E+02 -0.60022495136E+02 -0.51450125827E+01  0.65068197898E+02  0.47000000000E+01 0. -1.
        -11    1    4    4    0    0 -0.41121578919E+02 -0.41122121003E+02 -0.12494932518E+03  0.13781998023E+03  0.00000000000E+00 0.  1.
         12    1    4    4    0    0  0.15053291681E+02  0.22154548811E+02 -0.66008332243E+02  0.71235704173E+02  0.00000000000E+00 0. -1.
         -5    1    5    5    0  502  0.26221025569E+02  0.14007788553E+01 -0.76742978422E+02  0.81247025178E+02  0.47000000000E+01 0.  1.
         11    1    6    6    0    0 -0.28740237901E+00  0.15383253000E+02 -0.30985996287E+02  0.34595650577E+02  0.00000000000E+00 0. -1.
        -12    1    6    6    0    0 -0.24002636979E+02  0.62206035472E+02  0.49025042138E+02  0.82759725639E+02  0.00000000000E+00 0.  1.
</event>
<event>
12    1  0.1593360E-001  0.2393274E+03  0.7818608E-02  0.1121181E+00
         21   -1    0    0  501  502  0.00000000000E+00  0.00000000000E+00  0.11946209541E+03  0.11946209541E+03  0.00000000000E+00 0.  1.
         21   -1    0    0  502  503 -0.00000000000E+00 -0.00000000000E+00 -0.92500827729E+03  0.92500827729E+03  0.00000000000E+00 0. -1.
         -6    2    1    2    0  503  0.14178800330E+03 -0.68160373434E+02 -0.77206559573E+03  0.80830867193E+03  0.18035506819E+03 0.  0.
        -24    2    3    3    0    0  0.11859344706E+03  0.22469948781E+02 -0.46443015882E+03  0.48672898540E+03  0.81488824555E+02 0.  0.
          6    2    1    2  501    0 -0.14178800330E+03  0.68160373434E+02 -0.33480586148E+02  0.23616170077E+03  0.17292115220E+03 0.  0.
         24    2    5    5    0    0 -0.67160938701E+02 -0.72752725020E+01  0.33522676100E+02  0.11057801314E+03  0.80871539492E+02 0.  0.
          5    1    5    5  501    0 -0.74627064598E+02  0.75435645936E+02 -0.67003262248E+02  0.12558368764E+03  0.47000000000E+01 0. -1.
        -11    1    6    6    0    0 -0.49565325562E+02  0.15288421788E+02  0.54394345174E+02  0.75161174324E+02  0.00000000000E+00 0.  1.
         12    1    6    6    0    0 -0.17595613139E+02 -0.22563694290E+02 -0.20871669074E+02  0.35416838815E+02  0.00000000000E+00 0. -1.
         -5    1    3    3    0  503  0.23194556240E+02 -0.90630322215E+02 -0.30763543691E+03  0.32157968653E+03  0.47000000000E+01 0.  1.
         11    1    4    4    0    0  0.51386322915E+02  0.66773636162E+01 -0.34427132166E+03  0.34814922704E+03  0.00000000000E+00 0. -1.
        -12    1    4    4    0    0  0.67207124144E+02  0.15792585165E+02 -0.12015883716E+03  0.13857975837E+03  0.00000000000E+00 0.  1.
</event>
<event>
12    1  0.1593360E-001  0.2921823E+03  0.7818608E-02  0.1089425E+00
         21   -1    0    0  503  502  0.00000000000E+00  0.00000000000E+00  0.13297357653E+03  0.13297357653E+03  0.00000000000E+00 0. -1.
         21   -1    0    0  501  503 -0.00000000000E+00 -0.00000000000E+00 -0.63902428959E+03  0.63902428959E+03  0.00000000000E+00 0. -1.
          6    2    1    2  501    0 -0.21339328072E+02 -0.23383512442E+03 -0.26371062873E+03  0.39239383021E+03  0.17115896105E+03 0.  0.
         24    2    3    3    0    0  0.26456815341E+02 -0.50481839911E+02 -0.64933652126E+02  0.11773536103E+03  0.79980352711E+02 0.  0.
         -6    2    1    2    0  502  0.21339328072E+02  0.23383512442E+03 -0.24234008433E+03  0.37960403592E+03  0.17388581103E+03 0.  0.
        -24    2    5    5    0    0  0.78548196403E+02  0.18448412534E+03 -0.16756638758E+03  0.27320116259E+03  0.79725587707E+02 0.  0.
          5    1    3    3  501    0 -0.47796143413E+02 -0.18335328451E+03 -0.19877697660E+03  0.27465846918E+03  0.47000000000E+01 0. -1.
        -11    1    4    4    0    0 -0.16565228792E+02 -0.10264075660E+01  0.90389202593E+01  0.18898740616E+02  0.00000000000E+00 0.  1.
         12    1    4    4    0    0  0.43022044132E+02 -0.49455432345E+02 -0.73972572385E+02  0.98836620414E+02  0.00000000000E+00 0. -1.
         -5    1    5    5    0  502 -0.57208868331E+02  0.49350999080E+02 -0.74773696755E+02  0.10640287333E+03  0.47000000000E+01 0.  1.
         11    1    6    6    0    0  0.49287098976E+02  0.17921733689E+03 -0.14816870371E+03  0.23770157073E+03  0.00000000000E+00 0. -1.
        -12    1    6    6    0    0  0.29261097426E+02  0.52667884524E+01 -0.19397683863E+02  0.35499591863E+02  0.00000000000E+00 0.  1.
</event>
<event>
12    1  0.1593360E-001  0.2405230E+03  0.7818608E-02  0.1119891E+00
         21   -1    0    0  503  502  0.00000000000E+00  0.00000000000E+00  0.53936612401E+03  0.53936612401E+03  0.00000000000E+00 0.  1.
         21   -1    0    0  501  503 -0.00000000000E+00 -0.00000000000E+00 -0.16706237479E+03  0.16706237479E+03  0.00000000000E+00 0. -1.
          6    2    1    2  501    0  0.86831944160E+02 -0.13983673112E+03 -0.27927697383E+02  0.23948470469E+03  0.17169411640E+03 0.  0.
         24    2    3    3    0    0  0.78159908004E+02 -0.93113099365E+02 -0.81614868331E+02  0.16763274369E+03  0.81613292627E+02 0.  0.
         -6    2    1    2    0  502 -0.86831944160E+02  0.13983673112E+03  0.40023144660E+03  0.46694379410E+03  0.17537730215E+03 0.  0.
        -24    2    5    5    0    0 -0.28997245744E+02  0.77930855930E+02  0.34368047869E+03  0.36497668325E+03  0.90430356188E+02 0.  0.
          5    1    3    3  501    0  0.86720361559E+01 -0.46723631752E+02  0.53687170948E+02  0.71851961000E+02  0.47000000000E+01 0. -1.
        -13    1    4    4    0    0  0.39348048108E+00 -0.34428634375E+02  0.79033315291E+01  0.35326312305E+02  0.00000000000E+00 0.  1.
         14    1    4    4    0    0  0.77766427523E+02 -0.58684464989E+02 -0.89518199860E+02  0.13230643139E+03  0.00000000000E+00 0. -1.
         -5    1    5    5    0  502 -0.57834698416E+02  0.61905875187E+02  0.56550967910E+02  0.10196711085E+03  0.47000000000E+01 0.  1.
         13    1    6    6    0    0  0.19558557229E+02  0.57848663857E+02  0.11360272766E+03  0.12897513250E+03  0.00000000000E+00 0. -1.
        -14    1    6    6    0    0 -0.48555802974E+02  0.20082192073E+02  0.23007775103E+03  0.23600155076E+03  0.00000000000E+00 0.  1.
</event>
<event>
12    1  0.1593360E-001  0.2088329E+03  0.7818608E-02  0.1142787E+00
         21   -1    0    0  501  502  0.00000000000E+00  0.00000000000E+00  0.14954229860E+03  0.14954229860E+03  0.00000000000E+00 0.  1.
         21   -1    0    0  502  503 -0.00000000000E+00 -0.00000000000E+00 -0.42000329464E+03  0.42000329464E+03  0.00000000000E+00 0.  1.
         -6    2    1    2    0  503 -0.11264333573E+03 -0.28967986956E+02 -0.29358810831E+03  0.35943594585E+03  0.17167573059E+03 0.  0.
        -24    2    3    3    0    0 -0.75087121126E+02  0.32432094374E+02 -0.98282779890E+02  0.15123724135E+03  0.80766836295E+02 0.  0.
          6    2    1    2  501    0  0.11264333573E+03  0.28967986956E+02  0.23127112278E+02  0.21010964740E+03  0.17344605863E+03 0.  0.
         24    2    5    5    0    0  0.14470720523E+03  0.20488303147E+01  0.12420382412E+02  0.16664176516E+03  0.81675204575E+02 0.  0.
          5    1    5    5  501    0 -0.32063869506E+02  0.26919156641E+02  0.10706729866E+02  0.43467882239E+02  0.47000000000E+01 0. -1.
        -13    1    6    6    0    0  0.93020467794E+02 -0.14821272530E+02  0.43785494984E+02  0.10387322619E+03  0.00000000000E+00 0.  1.
         14    1    6    6    0    0  0.51686737441E+02  0.16870102845E+02 -0.31365112572E+02  0.62768538966E+02  0.00000000000E+00 0. -1.
         -5    1    3    3    0  503 -0.37556214603E+02 -0.61400081330E+02 -0.19530532842E+03  0.20819870449E+03  0.47000000000E+01 0.  1.
         11    1    4    4    0    0 -0.22646608348E+02 -0.11330696868E+02  0.65136974780E+01  0.26147309919E+02  0.00000000000E+00 0. -1.
        -12    1    4    4    0    0 -0.52440512778E+02  0.43762791241E+02 -0.10479647737E+03  0.12508993143E+03  0.00000000000E+00 0.  1.
</event>
<event>
12    1  0.1593360E-001  0.2831071E+03  0.7818608E-02  0.1094066E+00
         21   -1    0    0  503  502  0.00000000000E+00  0.00000000000E+00  0.43091650216E+03  0.43091650216E+03  0.00000000000E+00 0.  1.
         21   -1    0    0  501  503 -0.00000000000E+00 -0.00000000000E+00 -0.23978030084E+03  0.23978030084E+03  0.00000000000E+00 0. -1.
          6    2    1    2  501    0  0.13521048516E+03 -0.17870668743E+03 -0.63638823604E+02  0.29017158524E+03  0.17300778474E+03 0.  0.
         24    2    3    3    0    0  0.13971299377E+03 -0.13904657875E+03 -0.10070836940E+03  0.23549583165E+03  0.80389298840E+02 0.  0.
         -6    2    1    2    0  502 -0.13521048516E+03  0.17870668743E+03  0.25477502492E+03  0.38052521777E+03  0.17225322234E+03 0.  0.
        -24    2    5    5    0    0 -0.12320324477E+03  0.12186830981E+03  0.25913901836E+03  0.32207943579E+03  0.80939530906E+02 0.  0.
          5    1    3    3  501    0 -0.45025086114E+01 -0.39660108676E+02  0.37069545798E+02  0.54675753581E+02  0.47000000000E+01 0. -1.
        -13    1    4    4    0    0  0.63678108763E+02 -0.13270565697E+02 -0.21310447292E+02  0.68448116215E+02  0.00000000000E+00 0.  1.
         14    1    4    4    0    0  0.76034885005E+02 -0.12577601306E+03 -0.79397922110E+02  0.16704771544E+03  0.00000000000E+00 0. -1.
         -5    1    5    5    0  502 -0.12007240384E+02  0.56838377617E+02 -0.43639934440E+01  0.58445781974E+02  0.47000000000E+01 0.  1.
         13    1    6    6    0    0  0.12083849606E+02  0.11162715390E+02  0.22910625516E+02  0.28205006608E+02  0.00000000000E+00 0. -1.
        -14    1    6    6    0    0 -0.13528709438E+03  0.11070559442E+03  0.23622839285E+03  0.29387442919E+03  0.00000000000E+00 0.  1.
</event>
<event>
12    1  0.1593360E-001  0.2068494E+03  0.7818608E-02  0.1144175E+00
         21   -1    0    0  501  502  0.00000000000E+00  0.00000000000E+00  0.50922044513E+03  0.50922044513E+03  0.00000000000E+00 0.  1.
         21   -1    0    0  502  503 -0.00000000000E+00 -0.00000000000E+00 -0.10261375222E+03  0.10261375222E+03  0.00000000000E+00 0. -1.
         -6    2    1    2    0  503 -0.11279396690E+03 -0.96437872976E+01  0.72285500294E+02  0.21869640076E+03  0.17259038371E+03 0.  0.
        -24    2    3    3    0    0 -0.25763790331E+02 -0.30116816358E+02 -0.18135006893E+02  0.91451146730E+02  0.80396755180E+02 0.  0.
          6    2    1    2  501    0  0.11279396690E+03  0.96437872976E+01  0.33432119262E+03  0.39313779659E+03  0.17312188096E+03 0.  0.
         24    2    5    5    0    0  0.65003964283E+01 -0.14685219748E+02  0.76788181745E+02  0.11343158393E+03  0.81929167853E+02 0.  0.
          5    1    5    5  501    0  0.10629357047E+03  0.24329007045E+02  0.25753301087E+03  0.27970621265E+03  0.47000000000E+01 0. -1.
        -13    1    6    6    0    0  0.87710605290E+01 -0.40830147486E+02  0.76534586247E+02  0.87187013589E+02  0.00000000000E+00 0.  1.
         14    1    6    6    0    0 -0.22706641007E+01  0.26144927738E+02  0.25359549759E+00  0.26244570344E+02  0.00000000000E+00 0. -1.
         -5    1    3    3    0  503 -0.87030176568E+02  0.20473029060E+02  0.90420507187E+02  0.12724525403E+03  0.47000000000E+01 0.  1.
         13    1    4    4    0    0 -0.51622141361E+02 -0.36220061674E+02 -0.13189537300E+02  0.64425943847E+02  0.00000000000E+00 0. -1.
        -14    1    4    4    0    0  0.25858351030E+02  0.61032453163E+01 -0.49454695932E+01  0.27025202883E+02  0.00000000000E+00 0.  1.
</event>
<event>
12    1  0.1593360E-001  0.1753074E+03  0.7818608E-02  0.1172906E+00
         21   -1    0    0  503  502  0.00000000000E+00  0.00000000000E+00  0.46560659453E+03  0.46560659453E+03  0.00000000000E+00 0. -1.
         21   -1    0    0  501  503 -0.00000000000E+00 -0.00000000000E+00 -0.65290473453E+02  0.65290473453E+02  0.00000000000E+00 0. -1.
          6    2    1    2  501    0 -0.20562609920E+02  0.31861078539E+02  0.20352921120E+03  0.26862021042E+03  0.17115702843E+03 0.  0.
         24    2    3    3    0    0 -0.10398775178E+01  0.37282007751E+02  0.17029947547E+02  0.80964704515E+02  0.69815720411E+02 0.  0.
         -6    2    1    2    0  502  0.20562609920E+02 -0.31861078539E+02  0.19678690989E+03  0.26227685757E+03  0.16919253193E+03 0.  0.
        -24    2    5    5    0    0  0.43629554603E+01  0.42410383302E+02  0.73824096555E+02  0.11763722845E+03  0.81060744470E+02 0.  0.
          5    1    3    3  501    0 -0.19522732402E+02 -0.54209292128E+01  0.18649926365E+03  0.18765550590E+03  0.47000000000E+01 0. -1.
        -11    1    4    4    0    0  0.27823763732E+02  0.37242359488E+02 -0.17639502685E+01  0.46521679774E+02  0.00000000000E+00 0.  1.
         12    1    4    4    0    0 -0.28863641250E+02  0.39648263262E-01  0.18793897815E+02  0.34443024741E+02  0.00000000000E+00 0. -1.
         -5    1    5    5    0  502  0.16199654459E+02 -0.74271461840E+02  0.12296281333E+03  0.14463962912E+03  0.47000000000E+01 0.  1.
         11    1    6    6    0    0 -0.20264592982E+02  0.25171333636E+02 -0.55256929476E+01  0.32783883972E+02  0.00000000000E+00 0. -1.
        -12    1    6    6    0    0  0.24627548442E+02  0.17239049666E+02  0.79349789503E+02  0.84853344482E+02  0.00000000000E+00 0.  1.
</event>
<event>
12    1  0.1593360E-001  0.3112989E+03  0.7818608E-02  0.1079769E+00
         21   -1    0    0  501  502  0.00000000000E+00  0.00000000000E+00  0.35643116004E+03  0.35643116004E+03  0.00000000000E+00 0.  1.
         21   -1    0    0  502  503 -0.00000000000E+00 -0.00000000000E+00 -0.17920039829E+04  0.17920039829E+04  0.00000000000E+00 0. -1.
         -6    2    1    2    0  503 -0.11068868618E+01 -0.25962442700E+03 -0.17072040427E+04  0.17352880142E+04  0.17109290003E+03 0.  0.
        -24    2    3    3    0    0  0.22858369354E+02 -0.19119305562E+03 -0.85896246465E+03  0.88394022929E+03  0.80352496640E+02 0.  0.
          6    2    1    2  501    0  0.11068868618E+01  0.25962442700E+03  0.27163121984E+03  0.41314712877E+03  0.17175844121E+03 0.  0.
         24    2    5    5    0    0  0.47819078459E+02  0.20014560060E+03  0.13976553690E+03  0.26106028525E+03  0.79203166141E+02 0.  0.
          5    1    5    5  501    0 -0.46712191598E+02  0.59478826396E+02  0.13186568294E+03  0.15208684352E+03  0.47000000000E+01 0. -1.
        -13    1    6    6    0    0  0.48838295657E+02  0.58652250020E+02  0.68840946699E+02  0.10278298253E+03  0.00000000000E+00 0.  1.
         14    1    6    6    0    0 -0.10192171978E+01  0.14149335058E+03  0.70924590197E+02  0.15827730272E+03  0.00000000000E+00 0. -1.
         -5    1    3    3    0  503 -0.23965256216E+02 -0.68431371372E+02 -0.84824157804E+03  0.85134778487E+03  0.47000000000E+01 0.  1.
         13    1    4    4    0    0 -0.66183839628E+01 -0.13614913759E+03 -0.44852284257E+03  0.46877833886E+03  0.00000000000E+00 0. -1.
        -14    1    4    4    0    0  0.29476753317E+02 -0.55043918034E+02 -0.41043962208E+03  0.41516189043E+03  0.00000000000E+00 0.  1.
</event>
<event>
12    1  0.1593360E-001  0.1871461E+03  0.7818608E-02  0.1161319E+00
         21   -1    0    0  503  502  0.00000000000E+00  0.00000000000E+00  0.47727812133E+02  0.47727812133E+02  0.00000000000E+00 0.  1.
         21   -1    0    0  501  503 -0.00000000000E+00 -0.00000000000E+00 -0.10263343157E+04  0.10263343157E+04  0.00000000000E+00 0.  1.
          6    2    1    2  501    0 -0.17244890240E+02 -0.70665728399E+02 -0.77709954293E+03  0.79905536541E+03  0.17121549567E+03 0.  0.
         24    2    3    3    0    0  0.82676682784E+01 -0.26054588506E+02 -0.71148586489E+03  0.71557908620E+03  0.71372941281E+02 0.  0.
         -6    2    1    2    0  502  0.17244890240E+02  0.70665728399E+02 -0.20150696069E+03  0.27500676247E+03  0.17243153073E+03 0.  0.
        -24    2    5    5    0    0 -0.23122971024E+02 -0.77253968107E+01 -0.15360016411E+03  0.17454839352E+03  0.79245048561E+02 0.  0.
          5    1    3    3  501    0 -0.25512558518E+02 -0.44611139893E+02 -0.65613678038E+02  0.83476279208E+02  0.47000000000E+01 0. -1.
        -11    1    4    4    0    0  0.18005319478E+02  0.20054006003E+02 -0.34967722022E+03  0.35071428974E+03  0.00000000000E+00 0.  1.
         12    1    4    4    0    0 -0.97376511991E+01 -0.46108594509E+02 -0.36180864467E+03  0.36486479646E+03  0.00000000000E+00 0. -1.
         -5    1    5    5    0  502  0.40367861263E+02  0.78391125210E+02 -0.47906796581E+02  0.10045836896E+03  0.47000000000E+01 0.  1.
         11    1    6    6    0    0 -0.52234418287E+02 -0.11315909436E+02 -0.94386739005E+02  0.10846815551E+03  0.00000000000E+00 0. -1.
        -12    1    6    6    0    0  0.29111447264E+02  0.35905126253E+01 -0.59213425101E+02  0.66080238006E+02  0.00000000000E+00 0.  1.
</event>
<event>
12    1  0.1593360E-001  0.2163642E+03  0.7818608E-02  0.1136690E+00
         21   -1    0    0  503  502  0.00000000000E+00  0.00000000000E+00  0.42119596303E+03  0.42119596303E+03  0.00000000000E+00 0. -1.
         21   -1    0    0  501  503 -0.00000000000E+00 -0.00000000000E+00 -0.15786261607E+03  0.15786261607E+03  0.00000000000E+00 0.  1.
          6    2    1    2  501    0  0.12470751104E+03 -0.42813321881E+02 -0.26217166406E+02  0.21759905506E+03  0.17110542104E+03 0.  0.
         24    2    3    3    0    0  0.13097011684E+03 -0.11472704144E+01 -0.58102764213E+02  0.16455132727E+03  0.80911806068E+02 0.  0.
         -6    2    1    2    0  502 -0.12470751104E+03  0.42813321881E+02  0.28955051337E+03  0.36145952404E+03  0.17154749747E+03 0.  0.
        -24    2    5    5    0    0 -0.15400128734E+02 -0.27326613115E+02  0.10125439669E+03  0.13266872033E+03  0.79778623422E+02 0.  0.
          5    1    3    3  501    0 -0.62626058044E+01 -0.41666051467E+02  0.31885597807E+02  0.53047727791E+02  0.47000000000E+01 0. -1.
        -13    1    4    4    0    0  0.14075523612E+03 -0.38167932834E+01 -0.61778071060E+02  0.15376324161E+03  0.00000000000E+00 0.  1.
         14    1    4    4    0    0 -0.97851192813E+01  0.26695228690E+01  0.36753068470E+01  0.10788085656E+02  0.00000000000E+00 0. -1.
         -5    1    5    5    0  502 -0.10930738230E+03  0.70139934996E+02  0.18829611668E+03  0.22879080371E+03  0.47000000000E+01 0.  1.
         13    1    6    6    0    0  0.31398875156E+02 -0.10673767098E+02  0.24455656742E+02  0.41205555594E+02  0.00000000000E+00 0. -1.
        -14    1    6    6    0    0 -0.46799003890E+02 -0.16652846017E+02  0.76798739951E+02  0.91463164736E+02  0.00000000000E+00 0.  1.
</event>
<event>
12    1  0.1593360E-001  0.1835054E+03  0.7818608E-02  0.1165373E+00
         21   -1    0    0  501  502  0.00000000000E+00  0.00000000000E+00  0.25046667261E+03  0.25046667261E+03  0.00000000000E+00 0. -1.
         21   -1    0    0  502  503 -0.00000000000E+00 -0.00000000000E+00 -0.13165122542E+03  0.13165122542E+03  0.00000000000E+00 0.  1.
         -6    2    1    2    0  503  0.22088064168E+02 -0.56962331283E+02  0.62097998227E+02  0.19372761206E+03  0.17303651790E+03 0.  0.
        -24    2    3    3    0    0 -0.27099809184E+02 -0.84453576439E+02  0.67242107290E+02  0.13694938293E+03  0.79792394757E+02 0.  0.
          6    2    1    2  501    0 -0.22088064168E+02  0.56962331283E+02  0.56717448963E+02  0.18839028596E+03  0.16894212342E+03 0.  0.
         24    2    5    5    0    0 -0.20681266606E+02  0.44268498256E+02  0.10359116837E+03  0.13958098308E+03  0.79776600243E+02 0.  0.
          5    1    5    5  501    0 -0.14067975621E+01  0.12693833028E+02 -0.46873719411E+02  0.48809302881E+02  0.47000000000E+01 0. -1.
        -13    1    6    6    0    0  0.29877879008E+01  0.18553111222E+02 -0.96103673172E+01  0.21106965024E+02  0.00000000000E+00 0.  1.
         14    1    6    6    0    0 -0.23669054507E+02  0.25715387033E+02  0.11320153569E+03  0.11847401806E+03  0.00000000000E+00 0. -1.
         -5    1    3    3    0  503  0.49187873352E+02  0.27491245156E+02 -0.51441090632E+01  0.56778229130E+02  0.47000000000E+01 0.  1.
         11    1    4    4    0    0 -0.48744498076E+02 -0.81764596601E+02  0.43346683670E+02  0.10459641645E+03  0.00000000000E+00 0. -1.
        -12    1    4    4    0    0  0.21644688892E+02 -0.26889798379E+01  0.23895423620E+02  0.32352966476E+02  0.00000000000E+00 0.  1.
</event>
<event>
12    1  0.1593360E-001  0.2057787E+03  0.7818608E-02  0.1145412E+00
         21   -1    0    0  503  502  0.00000000000E+00  0.00000000000E+00  0.18429755954E+03  0.18429755954E+03  0.00000000000E+00 0. -1.
         21   -1    0    0  501  503 -0.00000000000E+00 -0.00000000000E+00 -0.34825965532E+03  0.34825965532E+03  0.00000000000E+00 0. -1.
          6    2    1    2  501    0 -0.92721897880E+02 -0.60559985199E+02 -0.23922367031E+03  0.31555164868E+03  0.17343591438E+03 0.  0.
         24    2    3    3    0    0 -0.32734863997E+02 -0.10203894625E+03 -0.16342646604E+03  0.21026036405E+03  0.77573790797E+02 0.  0.
         -6    2    1    2    0  502  0.92721897880E+02  0.60559985199E+02  0.75261574526E+02  0.21700556617E+03  0.17076957866E+03 0.  0.
        -24    2    5    5    0    0  0.96106137403E+02  0.35946581852E+02 -0.86851858188E+01  0.12933332841E+03  0.78250437646E+02 0.  0.
          5    1    3    3  501    0 -0.59987033883E+02  0.41478961047E+02 -0.75797204269E+02  0.10529128463E+03  0.47000000000E+01 0. -1.
        -13    1    4    4    0    0 -0.33691370868E+02 -0.74497650464E+02 -0.55372927296E+02  0.98748009969E+02  0.00000000000E+00 0.  1.
         14    1    4    4    0    0  0.95650687055E+00 -0.27541295782E+02 -0.10805353874E+03  0.11151235408E+03  0.00000000000E+00 0. -1.
         -5    1    5    5    0  502 -0.33842395228E+01  0.24613403347E+02  0.83946760345E+02  0.87672237760E+02  0.47000000000E+01 0.  1.
         13    1    6    6    0    0  0.37860076061E+02  0.59896377544E+01  0.33930880670E+02  0.51191462011E+02  0.00000000000E+00 0. -1.
        -14    1    6    6    0    0  0.58246061342E+02  0.29956944098E+02 -0.42616066489E+02  0.78141866401E+02  0.00000000000E+00 0.  1.
</event>
<event>
12    1  0.1593360E-001  0.2015725E+03  0.7818608E-02  0.1148434E+00
         21   -1    0    0  503  502  0.00000000000E+00  0.00000000000E+00  0.20113932269E+03  0.20113932269E+03  0.00000000000E+00 0. -1.
         21   -1    0    0  501  503 -0.00000000000E+00 -0.00000000000E+00 -0.20794185320E+03  0.20794185320E+03  0.00000000000E+00 0. -1.
          6    2    1    2  501    0 -0.78836561099E+02  0.67893979313E+02 -0.38165551937E+02  0.20515375700E+03  0.17264605083E+03 0.  0.
         24    2    3    3    0    0  0.22587387770E+02  0.52694966794E+02 -0.26184228203E+02  0.10179288673E+03  0.79932648963E+02 0.  0.
         -6    2    1    2    0  502  0.78836561099E+02 -0.67893979313E+02  0.31363021431E+02  0.20392741889E+03  0.17256290815E+03 0.  0.
        -24    2    5    5    0    0  0.37272588040E+02 -0.90021156845E+02 -0.26363030161E+02  0.12928451652E+03  0.80786275770E+02 0.  0.
          5    1    3    3  501    0 -0.10142394887E+03  0.15199012519E+02 -0.11981323734E+02  0.10336087028E+03  0.47000000000E+01 0. -1.
        -13    1    4    4    0    0  0.10203080832E+02  0.44849821558E+02 -0.53644986987E+02  0.70663951072E+02  0.00000000000E+00 0.  1.
         14    1    4    4    0    0  0.12384306938E+02  0.78451452365E+01  0.27460758784E+02  0.31128935657E+02  0.00000000000E+00 0. -1.
         -5    1    5    5    0  502  0.41563973058E+02  0.22127177532E+02  0.57726051592E+02  0.74642902371E+02  0.47000000000E+01 0.  1.
         13    1    6    6    0    0  0.61478040666E+02 -0.47854891671E+02 -0.14645006432E+02  0.79272418623E+02  0.00000000000E+00 0. -1.
        -14    1    6    6    0    0 -0.24205452626E+02 -0.42166265175E+02 -0.11718023730E+02  0.50012097894E+02  0.00000000000E+00 0.  1.
</event>
<event>
12    1  0.1593360E-001  0.1859600E+03  0.7818608E-02  0.1162383E+00
         21   -1    0    0  501  502  0.00000000000E+00  0.00000000000E+00  0.33541267778E+02  0.33541267778E+02  0.00000000000E+00 0.  1.
         21   -1    0    0  502  503 -0.00000000000E+00 -0.00000000000E+00 -0.11940531230E+04  0.11940531230E+04  0.00000000000E+00 0. -1.
         -6    2    1    2    0  503 -0.40591341996E+02  0.54688628541E+02 -0.81210438168E+03  0.83312342125E+03  0.17303931676E+03 0.  0.
        -24    2    3    3    0    0 -0.76860330860E+02  0.66908715796E+02 -0.43260316336E+03  0.45166826688E+03  0.80463902748E+02 0.  0.
          6    2    1    2  501    0  0.40591341996E+02 -0.54688628541E+02 -0.34840747353E+03  0.39447096953E+03  0.17199149703E+03 0.  0.
         24    2    5    5    0    0  0.47369179797E+02 -0.79417216511E+02 -0.34407780971E+03  0.36804601660E+03  0.92289748757E+02 0.  0.
          5    1    5    5  501    0 -0.67778378008E+01  0.24728587970E+02 -0.43296638175E+01  0.26424952924E+02  0.47000000000E+01 0. -1.
        -11    1    6    6    0    0  0.64963099487E+02 -0.22587270800E+02 -0.14919075546E+03  0.16428107199E+03  0.00000000000E+00 0.  1.
         12    1    6    6    0    0 -0.17593919690E+02 -0.56829945711E+02 -0.19488705425E+03  0.20376494462E+03  0.00000000000E+00 0. -1.
         -5    1    3    3    0  503  0.36268988864E+02 -0.12220087255E+02 -0.37950121832E+03  0.38145515437E+03  0.47000000000E+01 0.  1.
         11    1    4    4    0    0 -0.43472049956E+02  0.20250549617E+02 -0.71872531654E+02  0.86403499313E+02  0.00000000000E+00 0. -1.
        -12    1    4    4    0    0 -0.33388280905E+02  0.46658166179E+02 -0.36073063171E+03  0.36526476756E+03  0.00000000000E+00 0.  1.
</event>
<event>
12    1  0.1593360E-001  0.2218580E+03  0.7818608E-02  0.1132586E+00
         21   -1    0    0  503  502  0.00000000000E+00  0.00000000000E+00  0.10584225291E+04  0.10584225291E+04  0.00000000000E+00 0. -1.
         21   -1    0    0  501  503 -0.00000000000E+00 -0.00000000000E+00 -0.56008635427E+02  0.56008635427E+02  0.00000000000E+00 0. -1.
          6    2    1    2  501    0  0.13636026284E+03  0.29205335314E+02  0.27015198137E+03  0.34929819065E+03  0.17198854632E+03 0.  0.
         24    2    3    3    0    0  0.62390569621E+02  0.51959610232E+02  0.24348582967E+03  0.26730766566E+03  0.74670306010E+02 0.  0.
         -6    2    1    2    0  502 -0.13636026284E+03 -0.29205335314E+02  0.73226191229E+03  0.76513297386E+03  0.17255111303E+03 0.  0.
        -24    2    5    5    0    0 -0.15193950996E+02 -0.20890335418E+02  0.16200724404E+03  0.18206960594E+03  0.78966651351E+02 0.  0.
          5    1    3    3  501    0  0.73969693216E+02 -0.22754274918E+02  0.26666151700E+02  0.81990524989E+02  0.47000000000E+01 0. -1.
        -11    1    4    4    0    0  0.11008986901E+02  0.53021306509E+02  0.16349944533E+03  0.17223392628E+03  0.00000000000E+00 0.  1.
         12    1    4    4    0    0  0.51381582720E+02 -0.10616962775E+01  0.79986384338E+02  0.95073739388E+02  0.00000000000E+00 0. -1.
         -5    1    5    5    0  502 -0.12116631184E+03 -0.83149998960E+01  0.57025466825E+03  0.58306336792E+03  0.47000000000E+01 0.  1.
         11    1    6    6    0    0 -0.47583321470E+02 -0.11941681011E+02  0.86986697260E+02  0.99867220487E+02  0.00000000000E+00 0. -1.
        -12    1    6    6    0    0  0.32389370474E+02 -0.89486544071E+01  0.75020546777E+02  0.82202385453E+02  0.00000000000E+00 0.  1.
</event>
<event>
12    1  0.1593360E-001  0.2138046E+03  0.7818608E-02  0.1138693E+00
         21   -1    0    0  503  502  0.00000000000E+00  0.00000000000E+00  0.52606238982E+02  0.52606238982E+02  0.00000000000E+00 0.  1.
         21   -1    0    0  501  503 -0.00000000000E+00 -0.00000000000E+00 -0.86674888551E+03  0.86674888551E+03  0.00000000000E+00 0.  1.
          6    2    1    2  501    0 -0.10756112657E+03 -0.64792586971E+02 -0.40556234279E+03  0.45821492909E+03  0.17237352487E+03 0.  0.
         24    2    3    3    0    0 -0.54419918375E+02 -0.28756985078E+02 -0.37202974576E+03  0.38562651627E+03  0.80704315948E+02 0.  0.
         -6    2    1    2    0  502  0.10756112657E+03  0.64792586971E+02 -0.40858030374E+03  0.46114019541E+03  0.17304606306E+03 0.  0.
        -24    2    5    5    0    0  0.99533308927E+02 -0.50587563347E+01 -0.18089659890E+03  0.22280090895E+03  0.83571495943E+02 0.  0.
          5    1    3    3  501    0 -0.53141208193E+02 -0.36035601893E+02 -0.33532597026E+02  0.72588412817E+02  0.47000000000E+01 0. -1.
        -13    1    4    4    0    0 -0.10354131897E+01 -0.45110061196E+02 -0.18628150905E+03  0.19166843850E+03  0.00000000000E+00 0.  1.
         14    1    4    4    0    0 -0.53384505185E+02  0.16353076118E+02 -0.18574823671E+03  0.19395807777E+03  0.00000000000E+00 0. -1.
         -5    1    5    5    0  502  0.80278176409E+01  0.69851343305E+02 -0.22768370484E+03  0.23833928645E+03  0.47000000000E+01 0.  1.
         13    1    6    6    0    0  0.40960037472E+01  0.17051917410E+02 -0.52790836457E+00  0.17544908700E+02  0.00000000000E+00 0. -1.
        -14    1    6    6    0    0  0.95437305180E+02 -0.22110673745E+02 -0.18036869054E+03  0.20525600025E+03  0.00000000000E+00 0.  1.
</event>
<event>
12    1  0.1593360E-001  0.1730451E+03  0.7818608E-02  0.1174801E+00
         21   -1    0    0  501  502  0.00000000000E+00  0.00000000000E+00  0.47503004941E+02  0.47503004941E+02  0.00000000000E+00 0. -1.
         21   -1    0    0  502  503 -0.00000000000E+00 -0.00000000000E+00 -0.76997060623E+03  0.76997060623E+03  0.00000000000E+00 0. -1.
         -6    2    1    2    0  503 -0.10338080567E+02  0.13899454197E+02 -0.53639296466E+03  0.56361512817E+03  0.17217586772E+03 0.  0.
        -24    2    3    3    0    0 -0.35304274462E+01 -0.28859568386E+02 -0.13311218097E+03  0.15798948962E+03  0.79978043879E+02 0.  0.
          6    2    1    2  501    0  0.10338080567E+02 -0.13899454197E+02 -0.18607463662E+03  0.25385848300E+03  0.17181469163E+03 0.  0.
         24    2    5    5    0    0  0.72874336948E+02 -0.38497451043E+02 -0.10765611727E+03  0.15047860590E+03  0.65278239298E+02 0.  0.
          5    1    5    5  501    0 -0.62536256381E+02  0.24597996846E+02 -0.78418519355E+02  0.10337987710E+03  0.47000000000E+01 0. -1.
        -13    1    6    6    0    0  0.42215151613E+02 -0.55505779481E+02 -0.77244333032E+02  0.10406583285E+03  0.00000000000E+00 0.  1.
         14    1    6    6    0    0  0.30659185334E+02  0.17008328438E+02 -0.30411784238E+02  0.46412773050E+02  0.00000000000E+00 0. -1.
         -5    1    3    3    0  503 -0.68076531207E+01  0.42759022583E+02 -0.40328078369E+03  0.40562563855E+03  0.47000000000E+01 0.  1.
         13    1    4    4    0    0 -0.29554629651E+02  0.55209757130E+01 -0.97609369102E+02  0.10213494134E+03  0.00000000000E+00 0. -1.
        -14    1    4    4    0    0  0.26024202205E+02 -0.34380544099E+02 -0.35502811872E+02  0.55854548282E+02  0.00000000000E+00 0.  1.
</event>
<event>
12    1  0.1593360E-001  0.2361962E+03  0.7818608E-02  0.1122644E+00
         21   -1    0    0  501  502  0.00000000000E+00  0.00000000000E+00  0.85710655951E+03  0.85710655951E+03  0.00000000000E+00 0.  1.
         21   -1    0    0  502  503 -0.00000000000E+00 -0.00000000000E+00 -0.87406265280E+02  0.87406265280E+02  0.00000000000E+00 0. -1.
         -6    2    1    2    0  503  0.13754391140E+03 -0.80808272868E+02  0.14269797304E+03  0.27449749865E+03  0.17186582188E+03 0.  0.
        -24    2    3    3    0    0  0.66351086809E+02 -0.53245320454E+02  0.55520819874E+01  0.11746495409E+03  0.80806305165E+02 0.  0.
          6    2    1    2  501    0 -0.13754391140E+03  0.80808272868E+02  0.62700232119E+03  0.67001532614E+03  0.17418473513E+03 0.  0.
         24    2    5    5    0    0 -0.97794014787E+02 -0.19082774521E+02  0.34041954001E+03  0.36389434335E+03  0.81276123769E+02 0.  0.
          5    1    5    5  501    0 -0.39749896613E+02  0.99891047389E+02  0.28658278119E+03  0.30612098279E+03  0.47000000000E+01 0. -1.
        -11    1    6    6    0    0 -0.10207075697E+03 -0.77858480388E+01  0.33564044841E+03  0.35090393196E+03  0.00000000000E+00 0.  1.
         12    1    6    6    0    0  0.42767421827E+01 -0.11296926482E+02  0.47790915978E+01  0.12990411392E+02  0.00000000000E+00 0. -1.
         -5    1    3    3    0  503  0.71192824591E+02 -0.27562952414E+02  0.13714589105E+03  0.15703254456E+03  0.47000000000E+01 0.  1.
         13    1    4    4    0    0  0.24318095521E+02  0.53146101322E+01  0.32124291583E+02  0.40639696854E+02  0.00000000000E+00 0. -1.
        -14    1    4    4    0    0  0.42032991288E+02 -0.58559930586E+02 -0.26572209596E+02  0.76825257238E+02  0.00000000000E+00 0.  1.
</event>
<event>
12    1  0.1593360E-001  0.1795829E+03  0.7818608E-02  0.1168743E+00
         21   -1    0    0  501  502  0.00000000000E+00  0.00000000000E+00  0.74489932997E+02  0.74489932997E+02  0.00000000000E+00 0. -1.
         21   -1    0    0  502  503 -0.00000000000E+00 -0.00000000000E+00 -0.74694793835E+03  0.74694793835E+03  0.00000000000E+00 0. -1.
         -6    2    1    2    0  503  0.28242592310E+02 -0.34812551813E+02 -0.60356576028E+03  0.62909400681E+03  0.17163357666E+03 0.  0.
        -24    2    3    3    0    0  0.38614860129E+02  0.39518585671E+02 -0.40748112914E+03  0.41908454390E+03  0.80858878917E+02 0.  0.
          6    2    1    2  501    0 -0.28242592310E+02  0.34812551813E+02 -0.68892245067E+02  0.19234386453E+03  0.17389785223E+03 0.  0.
         24    2    5    5    0    0 -0.55128044817E+01 -0.48195319764E+02 -0.32552304418E+02  0.98804400750E+02  0.79683606999E+02 0.  0.
          5    1    5    5  501    0 -0.22729787828E+02  0.83007871577E+02 -0.36339940648E+02  0.93539463783E+02  0.47000000000E+01 0. -1.
        -11    1    6    6    0    0  0.30208732909E+02 -0.20276672972E+02 -0.38624851263E+02  0.53062134766E+02  0.00000000000E+00 0.  1.
         12    1    6    6    0    0 -0.35721537391E+02 -0.27918646791E+02  0.60725468446E+01  0.45742265985E+02  0.00000000000E+00 0. -1.
         -5    1    3    3    0  503 -0.10372267819E+02 -0.74331137484E+02 -0.19608463115E+03  0.21000946291E+03  0.47000000000E+01 0.  1.
         11    1    4    4    0    0  0.46858844837E+02  0.15540848263E+02 -0.11054728759E+03  0.12107011233E+03  0.00000000000E+00 0. -1.
        -12    1    4    4    0    0 -0.82439847079E+01  0.23977737408E+02 -0.29693384154E+03  0.29801443158E+03  0.00000000000E+00 0.  1.
</event>
<event>
12    1  0.1593360E-001  0.1855938E+03  0.7818608E-02  0.1162784E+00
         21   -1    0    0  503  502  0.00000000000E+00  0.00000000000E+00  0.24238883024E+03  0.24238883024E+03  0.00000000000E+00 0.  1.
         21   -1    0    0  501  503 -0.00000000000E+00 -0.00000000000E+00 -0.14680778958E+03  0.14680778958E+03  0.00000000000E+00 0.  1.
          6    2    1    2  501    0 -0.62059938239E+02 -0.26642112172E+02  0.85789501169E+02  0.20334467081E+03  0.17154584973E+03 0.  0.
         24    2    3    3    0    0 -0.97613121521E+02 -0.16694781180E+02  0.10115119706E+03  0.16308240639E+03  0.80976968298E+02 0.  0.
         -6    2    1    2    0  502  0.62059938239E+02  0.26642112172E+02  0.97915394841E+01  0.18585194901E+03  0.17286941497E+03 0.  0.
        -24    2    5    5    0    0 -0.78714973058E+01 -0.34763541766E+02  0.15443760599E+02  0.92497261844E+02  0.83945037979E+02 0.  0.
          5    1    3    3  501    0  0.35553183282E+02 -0.99473309920E+01 -0.15361695895E+02  0.40262264419E+02  0.47000000000E+01 0. -1.
        -13    1    4    4    0    0 -0.26273869759E+02  0.42629084537E+01 -0.10770179060E+02  0.28713853409E+02  0.00000000000E+00 0.  1.
         14    1    4    4    0    0 -0.71339251762E+02 -0.20957689634E+02  0.11192137612E+03  0.13436855298E+03  0.00000000000E+00 0. -1.
         -5    1    5    5    0  502  0.69931435545E+02  0.61405653938E+02 -0.56522211152E+01  0.93354687169E+02  0.47000000000E+01 0.  1.
         13    1    6    6    0    0  0.20486790817E+02 -0.31644511694E+02 -0.23349620083E+02  0.44342851468E+02  0.00000000000E+00 0. -1.
        -14    1    6    6    0    0 -0.28358288122E+02 -0.31190300718E+01  0.38793380683E+02  0.48154410376E+02  0.00000000000E+00 0.  1.
</event>
<event>
12    1  0.1593360E-001  0.2727737E+03  0.7818608E-02  0.1101253E+00
         21   -1    0    0  503  502  0.00000000000E+00  0.00000000000E+00  0.68506552386E+03  0.68506552386E+03  0.00000000000E+00 0. -1.
         21   -1    0    0  501  503 -0.00000000000E+00 -0.00000000000E+00 -0.11405798516E+03  0.11405798516E+03  0.00000000000E+00 0.  1.
          6    2    1    2  501    0  0.13647060335E+03 -0.16029172366E+03  0.16384097924E+03  0.30903156041E+03  0.15600954008E+03 0.  0.
         24    2    3    3    0    0  0.56751277494E+02 -0.57727857822E+02  0.19423772317E+02  0.11473040975E+03  0.78946633393E+02 0.  0.
         -6    2    1    2    0  502 -0.13647060335E+03  0.16029172366E+03  0.40716655946E+03  0.49009194861E+03  0.17345849271E+03 0.  0.
        -24    2    5    5    0    0 -0.12666253286E+02  0.70682951306E+02  0.99315363336E+02  0.14635993361E+03  0.80007344631E+02 0.  0.
          5    1    3    3  501    0  0.79719325855E+02 -0.10256386584E+03  0.14441720693E+03  0.19430115066E+03  0.47000000000E+01 0. -1.
        -13    1    4    4    0    0  0.43818743489E+02 -0.15743174640E+02  0.44280129890E+02  0.64254647550E+02  0.00000000000E+00 0.  1.
         14    1    4    4    0    0  0.12932534005E+02 -0.41984683182E+02 -0.24856357573E+02  0.50475762198E+02  0.00000000000E+00 0. -1.
         -5    1    5    5    0  502 -0.12380435006E+03  0.89608772357E+02  0.30785119612E+03  0.34373201499E+03  0.47000000000E+01 0.  1.
         11    1    6    6    0    0 -0.23737813316E+02  0.83968044814E+02  0.94022212933E+02  0.12827428759E+03  0.00000000000E+00 0. -1.
        -12    1    6    6    0    0  0.11071560030E+02 -0.13285093508E+02  0.52931504031E+01  0.18085646027E+02  0.00000000000E+00 0.  1.
</event>
<event>
12    1  0.1593360E-001  0.1890421E+03  0.7818608E-02  0.1160218E+00
         21   -1    0    0  501  502  0.00000000000E+00  0.00000000000E+00  0.48771434957E+03  0.48771434957E+03  0.00000000000E+00 0.  1.
         21   -1    0    0  502  503 -0.00000000000E+00 -0.00000000000E+00 -0.32787665339E+03  0.32787665339E+03  0.00000000000E+00 0.  1.
         -6    2    1    2    0  503 -0.48758152764E+00 -0.69682810637E+02 -0.28029940482E+03  0.33808976720E+03  0.17572991354E+03 0.  0.
        -24    2    3    3    0    0  0.11085639006E+02 -0.83418561164E+01 -0.25973554136E+03  0.27219883752E+03  0.80232024412E+02 0.  0.
          6    2    1    2  501    0  0.48758152764E+00  0.69682810637E+02  0.44013710101E+03  0.47750123575E+03  0.17155416238E+03 0.  0.
         24    2    5    5    0    0 -0.48002595905E+02  0.64471748820E+02  0.17468348218E+03  0.20756389818E+03  0.78151118155E+02 0.  0.
          5    1    5    5  501    0  0.48490177433E+02  0.52110618170E+01  0.26545361882E+03  0.26993733758E+03  0.47000000000E+01 0. -1.
        -13    1    6    6    0    0 -0.41087793128E+01  0.37409656747E+02  0.14108460617E+03  0.14601791186E+03  0.00000000000E+00 0.  1.
         14    1    6    6    0    0 -0.43893816592E+02  0.27062092073E+02  0.33598876011E+02  0.61545986316E+02  0.00000000000E+00 0. -1.
         -5    1    3    3    0  503 -0.11573220534E+02 -0.61340954521E+02 -0.20563863454E+02  0.65890929688E+02  0.47000000000E+01 0.  1.
         13    1    4    4    0    0  0.28614917571E+02 -0.13001898555E+02 -0.24929899280E+03  0.25127246305E+03  0.00000000000E+00 0. -1.
        -14    1    4    4    0    0 -0.17529278565E+02  0.46600424391E+01 -0.10436548564E+02  0.20926374470E+02  0.00000000000E+00 0.  1.
</event>
<event>
12    1  0.1593360E-001  0.1950367E+03  0.7818608E-02  0.1154343E+00
         21   -1    0    0  501  502  0.00000000000E+00  0.00000000000E+00  0.13409415304E+04  0.13409415304E+04  0.00000000000E+00 0. -1.
         21   -1    0    0  502  503 -0.00000000000E+00 -0.00000000000E+00 -0.28520102226E+02  0.28520102226E+02  0.00000000000E+00 0.  1.
         -6    2    1    2    0  503  0.86845175752E+02  0.19209702856E+02  0.73293645901E+03  0.75803532617E+03  0.17178651152E+03 0.  0.
        -24    2    3    3    0    0  0.34395045497E+02 -0.55124124657E+02  0.39235018011E+03  0.40547662545E+03  0.79062896999E+02 0.  0.
          6    2    1    2  501    0 -0.86845175752E+02 -0.19209702856E+02  0.57948496914E+03  0.61142630643E+03  0.17357477208E+03 0.  0.
         24    2    5    5    0    0 -0.12854430311E+03 -0.29613967755E+02  0.44443553668E+03  0.46962537146E+03  0.74996121969E+02 0.  0.
          5    1    5    5  501    0  0.41699127357E+02  0.10404264899E+02  0.13504943246E+03  0.14180093497E+03  0.47000000000E+01 0. -1.
        -11    1    6    6    0    0 -0.44801309497E+02 -0.15253890654E+02  0.62745162657E+02  0.78592582026E+02  0.00000000000E+00 0.  1.
         12    1    6    6    0    0 -0.83742993613E+02 -0.14360077101E+02  0.38169037402E+03  0.39103278944E+03  0.00000000000E+00 0. -1.
         -5    1    3    3    0  503  0.52450130255E+02  0.74333827513E+02  0.34058627890E+03  0.35255870071E+03  0.47000000000E+01 0.  1.
         11    1    4    4    0    0  0.45628630240E+02 -0.46603223860E+02  0.38310297086E+03  0.38861512921E+03  0.00000000000E+00 0. -1.
        -12    1    4    4    0    0 -0.11233584743E+02 -0.85209007966E+01  0.92472092545E+01  0.16861496243E+02  0.00000000000E+00 0.  1.
</event>
<event>
12    1  0.1593360E-001  0.3617171E+03  0.7818608E-02  0.1057967E+00
         21   -1    0    0  501  502  0.00000000000E+00  0.00000000000E+00  0.99845900782E+03  0.99845900782E+03  0.00000000000E+00 0. -1.
         21   -1    0    0  502  503 -0.00000000000E+00 -0.00000000000E+00 -0.15875201641E+03  0.15875201641E+03  0.00000000000E+00 0.  1.
         -6    2    1    2    0  503  0.31046563971E+03  0.68402761549E+02  0.17742968046E+03  0.40289023661E+03  0.17254390753E+03 0.  0.
        -24    2    3    3    0    0  0.20238629812E+03 -0.19950749046E+02  0.13755246027E+03  0.25763263921E+03  0.78074652785E+02 0.  0.
          6    2    1    2  501    0 -0.31046563971E+03 -0.68402761549E+02  0.66227731096E+03  0.75432078762E+03  0.17123306572E+03 0.  0.
         24    2    5    5    0    0 -0.32462807798E+03 -0.74841171622E+02  0.64648531519E+03  0.73166014084E+03  0.79991930535E+02 0.  0.
          5    1    5    5  501    0  0.14162438276E+02  0.64384100722E+01  0.15791995773E+02  0.22660646784E+02  0.47000000000E+01 0. -1.
        -11    1    6    6    0    0 -0.21727863499E+03 -0.33399769126E+02  0.34637468311E+03  0.41024501325E+03  0.00000000000E+00 0.  1.
         12    1    6    6    0    0 -0.10734944299E+03 -0.41441402495E+02  0.30011063208E+03  0.32141512758E+03  0.00000000000E+00 0. -1.
         -5    1    3    3    0  503  0.10807934159E+03  0.88353510595E+02  0.39877220181E+02  0.14525759740E+03  0.47000000000E+01 0.  1.
         13    1    4    4    0    0  0.20167502464E+03 -0.77175276390E+01  0.11584889283E+03  0.23270870582E+03  0.00000000000E+00 0. -1.
        -14    1    4    4    0    0  0.71127348177E+00 -0.12233221407E+02  0.21703567446E+02  0.24923933394E+02  0.00000000000E+00 0.  1.
</event>
<event>
12    1  0.1593360E-001  0.1855697E+03  0.7818608E-02  0.1162798E+00
         21   -1    0    0  503  502  0.00000000000E+00  0.00000000000E+00  0.28001124913E+03  0.28001124913E+03  0.00000000000E+00 0.  1.
         21   -1    0    0  501  503 -0.00000000000E+00 -0.00000000000E+00 -0.17801938542E+03  0.17801938542E+03  0.00000000000E+00 0.  1.
          6    2    1    2  501    0 -0.61477346157E+02  0.25915073537E+02 -0.77368471089E+02  0.19994876828E+03  0.17187953482E+03 0.  0.
         24    2    3    3    0    0 -0.75549649985E+02 -0.29946761517E+02 -0.83411926813E+02  0.14183519235E+03  0.80963659224E+02 0.  0.
         -6    2    1    2    0  502  0.61477346157E+02 -0.25915073537E+02  0.17936033479E+03  0.25808186627E+03  0.17316196139E+03 0.  0.
        -24    2    5    5    0    0  0.37358865082E+02  0.23288676313E+01  0.15204329088E+02  0.89711127864E+02  0.80098729172E+02 0.  0.
          5    1    3    3  501    0  0.14072303828E+02  0.55861835054E+02  0.60434557239E+01  0.58113575933E+02  0.47000000000E+01 0. -1.
        -11    1    4    4    0    0 -0.16924082169E+02  0.23123446397E+02 -0.26062628295E+01  0.28773441512E+02  0.00000000000E+00 0.  1.
         12    1    4    4    0    0 -0.58625567816E+02 -0.53070207914E+02 -0.80805663984E+02  0.11306175083E+03  0.00000000000E+00 0. -1.
         -5    1    5    5    0  502  0.24118481075E+02 -0.28243941168E+02  0.16415600570E+03  0.16837073840E+03  0.47000000000E+01 0.  1.
         13    1    6    6    0    0  0.57735529659E+02  0.72594104657E+01 -0.76578080367E+01  0.58691843123E+02  0.00000000000E+00 0. -1.
        -14    1    6    6    0    0 -0.20376664577E+02 -0.49305428344E+01  0.22862137124E+02  0.31019284741E+02  0.00000000000E+00 0.  1.
</event>
<event>
12    1  0.1593360E-001  0.4045952E+03  0.7818608E-02  0.1042207E+00
         21   -1    0    0  503  502  0.00000000000E+00  0.00000000000E+00  0.12606037689E+04  0.12606037689E+04  0.00000000000E+00 0.  1.
         21   -1    0    0  501  503 -0.00000000000E+00 -0.00000000000E+00 -0.25059630209E+03  0.25059630209E+03  0.00000000000E+00 0. -1.
          6    2    1    2  501    0 -0.31680967818E+03 -0.18338941088E+03 -0.19561474099E+02  0.40498602657E+03  0.17213652210E+03 0.  0.
         24    2    3    3    0    0 -0.25312794584E+03 -0.18476686462E+03  0.29970521486E+02  0.32416047988E+03  0.77260813653E+02 0.  0.
         -6    2    1    2    0  502  0.31680967818E+03  0.18338941088E+03  0.10295689409E+04  0.11062140444E+04  0.17232892902E+03 0.  0.
        -24    2    5    5    0    0  0.20873521756E+03  0.16033587939E+03  0.86727934825E+03  0.90981761820E+03  0.79477325060E+02 0.  0.
          5    1    3    3  501    0 -0.63681732331E+02  0.13774537428E+01 -0.49531995585E+02  0.80825546693E+02  0.47000000000E+01 0. -1.
        -11    1    4    4    0    0 -0.38210540304E+02 -0.55494501621E+02 -0.15831459115E+02  0.69212139096E+02  0.00000000000E+00 0.  1.
         12    1    4    4    0    0 -0.21491740554E+03 -0.12927236300E+03  0.45801980601E+02  0.25494834078E+03  0.00000000000E+00 0. -1.
         -5    1    5    5    0  502  0.10807446061E+03  0.23053531483E+02  0.16228959268E+03  0.19639642624E+03  0.47000000000E+01 0.  1.
         13    1    6    6    0    0  0.38210700026E+02  0.20042050152E+01  0.18599234308E+03  0.18988740379E+03  0.00000000000E+00 0. -1.
        -14    1    6    6    0    0  0.17052451754E+03  0.15833167438E+03  0.68128700517E+03  0.71993021440E+03  0.00000000000E+00 0.  1.
</event>
<event>
12    1  0.1593360E-001  0.1849761E+03  0.7818608E-02  0.1163558E+00
         21   -1    0    0  503  502  0.00000000000E+00  0.00000000000E+00  0.77576752369E+02  0.77576752369E+02  0.00000000000E+00 0. -1.
         21   -1    0    0  501  503 -0.00000000000E+00 -0.00000000000E+00 -0.43986731787E+03  0.43986731787E+03  0.00000000000E+00 0. -1.
          6    2    1    2  501    0 -0.57520044785E+02  0.34068810238E+02 -0.20393854300E+03  0.27394558095E+03  0.17025279034E+03 0.  0.
         24    2    3    3    0    0 -0.62268742933E+02  0.56467311741E+02 -0.65215920580E+02  0.13326758347E+03  0.80256955248E+02 0.  0.
         -6    2    1    2    0  502  0.57520044785E+02 -0.34068810238E+02 -0.15835202250E+03  0.24349848929E+03  0.17247293084E+03 0.  0.
        -24    2    5    5    0    0  0.67170756141E+02 -0.75979145715E+02 -0.15238887731E+03  0.19982628359E+03  0.80146320085E+02 0.  0.
          5    1    3    3  501    0  0.47486981486E+01 -0.22398501503E+02 -0.13872262242E+03  0.14067799748E+03  0.47000000000E+01 0. -1.
        -11    1    4    4    0    0  0.15254432781E+02  0.31091731867E+02 -0.18387806109E+02  0.39211030635E+02  0.00000000000E+00 0.  1.
         12    1    4    4    0    0 -0.77523175714E+02  0.25375579874E+02 -0.46828114471E+02  0.94056552837E+02  0.00000000000E+00 0. -1.
         -5    1    5    5    0  502 -0.96507113561E+01  0.41910335476E+02 -0.59631451888E+01  0.43672205692E+02  0.47000000000E+01 0.  1.
         13    1    6    6    0    0  0.33664007846E+02  0.10833368797E+02 -0.32223644510E+02  0.47843396297E+02  0.00000000000E+00 0. -1.
        -14    1    6    6    0    0  0.33506748295E+02 -0.86812514512E+02 -0.12016523280E+03  0.15198288730E+03  0.00000000000E+00 0.  1.
</event>
<event>
12    1  0.1593360E-001  0.1917727E+03  0.7818608E-02  0.1156997E+00
         21   -1    0    0  503  502  0.00000000000E+00  0.00000000000E+00  0.42348918591E+03  0.42348918591E+03  0.00000000000E+00 0.  1.
         21   -1    0    0  501  503 -0.00000000000E+00 -0.00000000000E+00 -0.10632213516E+03  0.10632213516E+03  0.00000000000E+00 0. -1.
          6    2    1    2  501    0  0.58666762319E+01 -0.83603627084E+02  0.44646181417E+02  0.19690112855E+03  0.17248996655E+03 0.  0.
         24    2    3    3    0    0 -0.78739202144E+01 -0.17743714396E+01  0.73463547415E+02  0.10893885452E+03  0.80035206077E+02 0.  0.
         -6    2    1    2    0  502 -0.58666762319E+01  0.83603627084E+02  0.27252086933E+03  0.33291019251E+03  0.17186502759E+03 0.  0.
        -24    2    5    5    0    0 -0.82943657383E+01  0.11914579319E+03  0.21337922406E+03  0.26370785546E+03  0.98724987889E+02 0.  0.
          5    1    3    3  501    0  0.13740596446E+02 -0.81829255645E+02 -0.28817365998E+02  0.87962274034E+02  0.47000000000E+01 0. -1.
        -11    1    4    4    0    0 -0.21105033030E+02  0.34982367297E+02  0.31362780009E+02  0.51505460009E+02  0.00000000000E+00 0.  1.
         12    1    4    4    0    0  0.13231112816E+02 -0.36756738736E+02  0.42100767406E+02  0.57433394511E+02  0.00000000000E+00 0. -1.
         -5    1    5    5    0  502  0.24276895065E+01 -0.35542166110E+02  0.59141645271E+02  0.69202337052E+02  0.47000000000E+01 0.  1.
         13    1    6    6    0    0  0.34330496125E+02  0.90428680713E+01  0.35450995272E+02  0.50171002511E+02  0.00000000000E+00 0. -1.
        -14    1    6    6    0    0 -0.42624861863E+02  0.11010292512E+03  0.17792822879E+03  0.21353685295E+03  0.00000000000E+00 0.  1.
</event>
<event>
12    1  0.1593360E-001  0.2469241E+03  0.7818608E-02  0.1115275E+00
         21   -1    0    0  503  502  0.00000000000E+00  0.00000000000E+00  0.23892395845E+04  0.23892395845E+04  0.00000000000E+00 0.  1.
         21   -1    0    0  501  503 -0.00000000000E+00 -0.00000000000E+00 -0.25700006672E+02  0.25700006672E+02  0.00000000000E+00 0. -1.
          6    2    1    2  501    0  0.17401054501E+03 -0.35352252149E+02  0.10784229723E+04  0.11063158126E+04  0.17149086978E+03 0.  0.
         24    2    3    3    0    0  0.54235172927E+02 -0.42044907684E+01  0.73330673843E+03  0.73965025967E+03  0.79903706232E+02 0.  0.
         -6    2    1    2    0  502 -0.17401054501E+03  0.35352252149E+02  0.12851166055E+04  0.13086237786E+04  0.17158686620E+03 0.  0.
        -24    2    5    5    0    0 -0.13287483890E+03  0.40850523727E+02  0.56440269665E+03  0.58670064852E+03  0.79641439573E+02 0.  0.
          5    1    3    3  501    0  0.11977537208E+03 -0.31147761381E+02  0.34511623388E+03  0.36666555290E+03  0.47000000000E+01 0. -1.
        -11    1    4    4    0    0  0.44097337819E+02  0.27952575869E+02  0.59526911055E+03  0.59755437885E+03  0.00000000000E+00 0.  1.
         12    1    4    4    0    0  0.10137835108E+02 -0.32157066638E+02  0.13803762788E+03  0.14209588082E+03  0.00000000000E+00 0. -1.
         -5    1    5    5    0  502 -0.41135706107E+02 -0.54982715781E+01  0.72071390884E+03  0.72192313005E+03  0.47000000000E+01 0.  1.
         13    1    6    6    0    0 -0.64805374394E+02  0.57295609995E+02  0.24836522184E+03  0.26299773173E+03  0.00000000000E+00 0. -1.
        -14    1    6    6    0    0 -0.68069464505E+02 -0.16445086268E+02  0.31603747481E+03  0.32370291680E+03  0.00000000000E+00 0.  1.
</event>
<event>
12    1  0.1593360E-001  0.2506147E+03  0.7818608E-02  0.1113455E+00
         21   -1    0    0  501  502  0.00000000000E+00  0.00000000000E+00  0.10626419259E+03  0.10626419259E+03  0.00000000000E+00 0.  1.
         21   -1    0    0  502  503 -0.00000000000E+00 -0.00000000000E+00 -0.70426052350E+03  0.70426052350E+03  0.00000000000E+00 0. -1.
         -6    2    1    2    0  503  0.38338428353E+02 -0.17425901178E+03 -0.46541475074E+03  0.52700120538E+03  0.17112376222E+03 0.  0.
        -24    2    3    3    0    0  0.96149398032E+01 -0.33620828646E+02 -0.92282041204E+02  0.12718343905E+03  0.80229949857E+02 0.  0.
          6    2    1    2  501    0 -0.38338428353E+02  0.17425901178E+03 -0.13258158017E+03  0.28352351070E+03  0.17598769118E+03 0.  0.
         24    2    5    5    0    0  0.44497685900E+02  0.62809057051E+02 -0.78676315198E+02  0.13449068941E+03  0.77283641644E+02 0.  0.
          5    1    5    5  501    0 -0.82836114253E+02  0.11144995472E+03 -0.53905264971E+02  0.14903282130E+03  0.47000000000E+01 0. -1.
        -11    1    6    6    0    0  0.64274729701E+02  0.61525566433E+02 -0.67957010124E+02  0.11195888276E+03  0.00000000000E+00 0.  1.
         12    1    6    6    0    0 -0.19777043801E+02  0.12834906185E+01 -0.10719305075E+02  0.22531806651E+02  0.00000000000E+00 0. -1.
         -5    1    3    3    0  503  0.28723488550E+02 -0.14063818313E+03 -0.37313270954E+03  0.39981776633E+03  0.47000000000E+01 0.  1.
         11    1    4    4    0    0  0.13575254218E+02  0.23730663527E+02 -0.45428485470E+02  0.53020554604E+02  0.00000000000E+00 0. -1.
        -12    1    4    4    0    0 -0.39603144144E+01 -0.57351492173E+02 -0.46853555734E+02  0.74162884448E+02  0.00000000000E+00 0.  1.
</event>
<event>
12    1  0.1593360E-001  0.1959625E+03  0.7818608E-02  0.1153816E+00
         21   -1    0    0  501  502  0.00000000000E+00  0.00000000000E+00  0.11150394012E+03  0.11150394012E+03  0.00000000000E+00 0. -1.
         21   -1    0    0  502  503 -0.00000000000E+00 -0.00000000000E+00 -0.34538949236E+03  0.34538949236E+03  0.00000000000E+00 0. -1.
         -6    2    1    2    0  503 -0.39669853451E+02 -0.68803191425E+02 -0.85965932028E+02  0.21137046568E+03  0.17601066977E+03 0.  0.
        -24    2    3    3    0    0 -0.14292418189E+02 -0.34378365866E+02 -0.12277988050E+03  0.15474503291E+03  0.86515784095E+02 0.  0.
          6    2    1    2  501    0  0.39669853451E+02  0.68803191425E+02 -0.14791962021E+03  0.24552296680E+03  0.17914724882E+03 0.  0.
         24    2    5    5    0    0 -0.73534783466E+00  0.10641256955E+03 -0.66240287869E+02  0.14682824077E+03  0.76462937804E+02 0.  0.
          5    1    5    5  501    0  0.40405201286E+02 -0.37609378123E+02 -0.81679332340E+02  0.98694726026E+02  0.47000000000E+01 0. -1.
        -13    1    6    6    0    0  0.80221202125E+01  0.60731070992E+02 -0.77680499366E+02  0.98928647915E+02  0.00000000000E+00 0.  1.
         14    1    6    6    0    0 -0.87574680472E+01  0.45681498557E+02  0.11440211497E+02  0.47899592859E+02  0.00000000000E+00 0. -1.
         -5    1    3    3    0  503 -0.25377435262E+02 -0.34424825559E+02  0.36813948469E+02  0.56625432777E+02  0.47000000000E+01 0.  1.
         13    1    4    4    0    0 -0.40541421328E+02  0.95749788963E+01 -0.68175820895E+02  0.79895116364E+02  0.00000000000E+00 0. -1.
        -14    1    4    4    0    0  0.26249003139E+02 -0.43953344763E+02 -0.54604059602E+02  0.74849916544E+02  0.00000000000E+00 0.  1.
</event>
<event>
12    1  0.1593360E-001  0.1939018E+03  0.7818608E-02  0.1155462E+00
         21   -1    0    0  501  502  0.00000000000E+00  0.00000000000E+00  0.85823160532E+02  0.85823160532E+02  0.00000000000E+00 0. -1.
         21   -1    0    0  502  503 -0.00000000000E+00 -0.00000000000E+00 -0.58090409833E+03  0.58090409833E+03  0.00000000000E+00 0. -1.
         -6    2    1    2    0  503  0.21009747758E+02 -0.83882337404E+02 -0.41663188692E+03  0.45954328404E+03  0.17355185010E+03 0.  0.
        -24    2    3    3    0    0  0.22817307848E+02 -0.61929577824E+02 -0.42441286272E+03  0.43571421542E+03  0.73244094149E+02 0.  0.
          6    2    1    2  501    0 -0.21009747758E+02  0.83882337404E+02 -0.78449050872E+02  0.20718397482E+03  0.17115282590E+03 0.  0.
         24    2    5    5    0    0 -0.51683909035E+02 -0.12536858725E+01 -0.64848538919E+02  0.11555368204E+03  0.80464416065E+02 0.  0.
          5    1    5    5  501    0  0.30674161278E+02  0.85136023277E+02 -0.13600511952E+02  0.91630292779E+02  0.47000000000E+01 0. -1.
        -11    1    6    6    0    0 -0.29298546090E+02 -0.39354688503E+02 -0.46848676475E+02  0.67838004080E+02  0.00000000000E+00 0.  1.
         12    1    6    6    0    0 -0.22385362945E+02  0.38101002630E+02 -0.17999862445E+02  0.47715677965E+02  0.00000000000E+00 0. -1.
         -5    1    3    3    0  503 -0.18075600904E+01 -0.21952759580E+02  0.77809757999E+01  0.23829068615E+02  0.47000000000E+01 0.  1.
         13    1    4    4    0    0  0.43011376081E+02 -0.20467632100E+02 -0.14788183028E+03  0.15536388951E+03  0.00000000000E+00 0. -1.
        -14    1    4    4    0    0 -0.20194068233E+02 -0.41461945724E+02 -0.27653103244E+03  0.28035032591E+03  0.00000000000E+00 0.  1.
</event>
<event>
12    1  0.1593360E-001  0.2130921E+03  0.7818608E-02  0.1139512E+00
         21   -1    0    0  501  502  0.00000000000E+00  0.00000000000E+00  0.59182938355E+02  0.59182938355E+02  0.00000000000E+00 0.  1.
         21   -1    0    0  502  503 -0.00000000000E+00 -0.00000000000E+00 -0.12458724418E+04  0.12458724418E+04  0.00000000000E+00 0.  1.
         -6    2    1    2    0  503 -0.73311166901E+02 -0.10366667243E+03 -0.10022920980E+04  0.10246939413E+04  0.17113420868E+03 0.  0.
        -24    2    3    3    0    0 -0.93339675409E+02 -0.12975769018E+03 -0.87054993789E+03  0.88882647234E+03  0.81276998047E+02 0.  0.
          6    2    1    2  501    0  0.73311166901E+02  0.10366667243E+03 -0.18439740542E+03  0.28036143887E+03  0.16875670983E+03 0.  0.
         24    2    5    5    0    0  0.11365176398E+03  0.69579114396E+02 -0.11620175815E+03  0.19397821311E+03  0.79791741099E+02 0.  0.
          5    1    5    5  501    0 -0.40340597082E+02  0.34087558039E+02 -0.68195647270E+02  0.86383225759E+02  0.47000000000E+01 0. -1.
        -11    1    6    6    0    0  0.20208359788E+02 -0.12479367292E+02  0.39419802527E-01  0.23751083496E+02  0.00000000000E+00 0.  1.
         12    1    6    6    0    0  0.93443404195E+02  0.82058481688E+02 -0.11624117796E+03  0.17022712962E+03  0.00000000000E+00 0. -1.
         -5    1    3    3    0  503  0.20028508508E+02  0.26091017747E+02 -0.13174216013E+03  0.13586746894E+03  0.47000000000E+01 0.  1.
         13    1    4    4    0    0 -0.21270740631E+02  0.19184712271E+01 -0.45892954792E+02  0.50619050153E+02  0.00000000000E+00 0. -1.
        -14    1    4    4    0    0 -0.72068934779E+02 -0.13167616141E+03 -0.82465698310E+03  0.83820742219E+03  0.00000000000E+00 0.  1.
</event>
<event>
12    1  0.1593360E-001  0.2623409E+03  0.7818608E-02  0.1105876E+00
         21   -1    0    0  503  502  0.00000000000E+00  0.00000000000E+00  0.19898805141E+03  0.19898805141E+03  0.00000000000E+00 0.  1.
         21   -1    0    0  501  503 -0.00000000000E+00 -0.00000000000E+00 -0.73739377827E+03  0.73739377827E+03  0.00000000000E+00 0. -1.
          6    2    1    2  501    0 -0.13018883078E+03 -0.14915970382E+03 -0.61107896235E+03  0.66501144490E+03  0.17211907135E+03 0.  0.
         24    2    3    3    0    0 -0.80435218476E+02 -0.12953889349E+02 -0.21646126335E+03  0.24456803112E+03  0.79501042085E+02 0.  0.
         -6    2    1    2    0  502  0.13018883078E+03  0.14915970382E+03  0.72673235477E+02  0.27137038478E+03  0.17077100947E+03 0.  0.
        -24    2    5    5    0    0 -0.84521297847E+01  0.58310867016E+02  0.24476166948E+02  0.98686064381E+02  0.75287853234E+02 0.  0.
          5    1    3    3  501    0 -0.49753612307E+02 -0.13620581447E+03 -0.39461769900E+03  0.42044341378E+03  0.47000000000E+01 0. -1.
        -13    1    4    4    0    0 -0.25711438191E+02 -0.14763624620E+02 -0.10500009842E+02  0.31453026443E+02  0.00000000000E+00 0.  1.
         14    1    4    4    0    0 -0.54723780285E+02  0.18097352703E+01 -0.20596125351E+03  0.21311500467E+03  0.00000000000E+00 0. -1.
         -5    1    5    5    0  502  0.13864096057E+03  0.90848836807E+02  0.48197068529E+02  0.17268432040E+03  0.47000000000E+01 0.  1.
         13    1    6    6    0    0 -0.12759959281E+02  0.15787632531E+02 -0.25715438786E+02  0.32762016021E+02  0.00000000000E+00 0. -1.
        -14    1    6    6    0    0  0.43078294964E+01  0.42523234485E+02  0.50191605734E+02  0.65924048360E+02  0.00000000000E+00 0.  1.
</event>
<event>
12    1  0.1593360E-001  0.2271806E+03  0.7818608E-02  0.1129542E+00
         21   -1    0    0  501  502  0.00000000000E+00  0.00000000000E+00  0.78520612087E+02  0.78520612087E+02  0.00000000000E+00 0. -1.
         21   -1    0    0  502  503 -0.00000000000E+00 -0.00000000000E+00 -0.64320917205E+03  0.64320917205E+03  0.00000000000E+00 0. -1.
         -6    2    1    2    0  503  0.12277055439E+03  0.72550185833E+02 -0.29264129420E+03  0.37047260784E+03  0.17684707406E+03 0.  0.
        -24    2    3    3    0    0  0.23304695235E+02  0.21447326387E+02 -0.22182450679E+03  0.23802614032E+03  0.80294676249E+02 0.  0.
          6    2    1    2  501    0 -0.12277055439E+03 -0.72550185833E+02 -0.27204726577E+03  0.35125717630E+03  0.17039879871E+03 0.  0.
         24    2    5    5    0    0 -0.18022690783E+02 -0.21737043719E+02 -0.18328765111E+03  0.20478380147E+03  0.86860381304E+02 0.  0.
          5    1    5    5  501    0 -0.10474786360E+03 -0.50813142115E+02 -0.88759614656E+02  0.14647337483E+03  0.47000000000E+01 0. -1.
        -13    1    6    6    0    0 -0.63319767937E+01  0.33406194420E+02 -0.83829549604E+02  0.90462484725E+02  0.00000000000E+00 0.  1.
         14    1    6    6    0    0 -0.11690713989E+02 -0.55143238139E+02 -0.99458101507E+02  0.11432131674E+03  0.00000000000E+00 0. -1.
         -5    1    3    3    0  503  0.99465859150E+02  0.51102859446E+02 -0.70816787408E+02  0.13244646752E+03  0.47000000000E+01 0.  1.
         13    1    4    4    0    0  0.51174894227E+02  0.15553028873E+02 -0.17709575275E+03  0.18499641117E+03  0.00000000000E+00 0. -1.
        -14    1    4    4    0    0 -0.27870198992E+02  0.58942975145E+01 -0.44728754041E+02  0.53029729144E+02  0.00000000000E+00 0.  1.
</event>
<event>
12    1  0.1593360E-001  0.1781334E+03  0.7818608E-02  0.1170107E+00
         21   -1    0    0  501  502  0.00000000000E+00  0.00000000000E+00  0.36877726295E+02  0.36877726295E+02  0.00000000000E+00 0. -1.
         21   -1    0    0  502  503 -0.00000000000E+00 -0.00000000000E+00 -0.87332159574E+03  0.87332159574E+03  0.00000000000E+00 0. -1.
         -6    2    1    2    0  503 -0.42716607721E+02 -0.19354831709E+02 -0.34318760974E+03  0.38576320698E+03  0.16981224423E+03 0.  0.
        -24    2    3    3    0    0 -0.73250631725E+02 -0.51056086628E+02 -0.30298877979E+03  0.32596912604E+03  0.80506468217E+02 0.  0.
          6    2    1    2  501    0  0.42716607721E+02  0.19354831709E+02 -0.49325625970E+03  0.52443611506E+03  0.17184930304E+03 0.  0.
         24    2    5    5    0    0  0.49242420848E+02  0.83280199779E+01 -0.12000250320E+03  0.15093292423E+03  0.76720107630E+02 0.  0.
          5    1    5    5  501    0 -0.65258131275E+01  0.11026811731E+02 -0.37325375651E+03  0.37350319083E+03  0.47000000000E+01 0. -1.
        -13    1    6    6    0    0 -0.14026973074E+02 -0.12998953059E+02 -0.84098624373E+01  0.20891494453E+02  0.00000000000E+00 0.  1.
         14    1    6    6    0    0  0.63269393923E+02  0.21326973037E+02 -0.11159264076E+03  0.13004142977E+03  0.00000000000E+00 0. -1.
         -5    1    3    3    0  503  0.30534024005E+02  0.31701254918E+02 -0.40198829952E+02  0.59794080935E+02  0.47000000000E+01 0.  1.
         13    1    4    4    0    0 -0.27163362770E+02  0.18022763131E+02 -0.13081332364E+03  0.13481392327E+03  0.00000000000E+00 0. -1.
        -14    1    4    4    0    0 -0.46087268955E+02 -0.69078849759E+02 -0.17217545615E+03  0.19115520277E+03  0.00000000000E+00 0.  1.
</event>
<event>
12    1  0.1593360E-001  0.2393423E+03  0.7818608E-02  0.1120867E+00
         21   -1    0    0  503  502  0.00000000000E+00  0.00000000000E+00  0.28413994575E+03  0.28413994575E+03  0.00000000000E+00 0. -1.
         21   -1    0    0  501  503 -0.00000000000E+00 -0.00000000000E+00 -0.22707609523E+03  0.22707609523E+03  0.00000000000E+00 0. -1.
          6    2    1    2  501    0 -0.10934122243E+03 -0.12649056580E+03  0.11948956168E+03  0.26751165758E+03  0.17125818356E+03 0.  0.
         24    2    3    3    0    0 -0.12893542334E+02 -0.10823978632E+03  0.34139641915E+02  0.13735043159E+03  0.76272741743E+02 0.  0.
         -6    2    1    2    0  502  0.10934122243E+03  0.12649056580E+03 -0.62425711157E+02  0.24370438339E+03  0.16595026638E+03 0.  0.
        -24    2    5    5    0    0  0.10515688279E+03  0.57185014037E+02  0.62233097092E+01  0.14595190890E+03  0.83277453728E+02 0.  0.
          5    1    3    3  501    0 -0.96447680100E+02 -0.18250779481E+02  0.85349919761E+02  0.13016122599E+03  0.47000000000E+01 0. -1.
        -11    1    4    4    0    0  0.26679346503E+02 -0.67040879313E+02  0.35050677240E+02  0.80217311123E+02  0.00000000000E+00 0.  1.
         12    1    4    4    0    0 -0.39572888837E+02 -0.41198907003E+02 -0.91103532527E+00  0.57133120469E+02  0.00000000000E+00 0. -1.
         -5    1    5    5    0  502  0.41843396411E+01  0.69305551759E+02 -0.68649020867E+02  0.97752474490E+02  0.47000000000E+01 0.  1.
         11    1    6    6    0    0  0.11524709239E+03  0.64798171505E+02  0.85055128060E+00  0.13221731646E+03  0.00000000000E+00 0. -1.
        -12    1    6    6    0    0 -0.10090209598E+02 -0.76131574681E+01  0.53727584286E+01  0.13734592440E+02  0.00000000000E+00 0.  1.
</event>
<event>
12    1  0.1593360E-001  0.2484547E+03  0.7818608E-02  0.1114420E+00
         21   -1    0    0  503  502  0.00000000000E+00  0.00000000000E+00  0.41803864145E+03  0.41803864145E+03  0.00000000000E+00 0.  1.
         21   -1    0    0  501  503 -0.00000000000E+00 -0.00000000000E+00 -0.20242383668E+03  0.20242383668E+03  0.00000000000E+00 0. -1.
          6    2    1    2  501    0  0.94018049627E+02 -0.15175873055E+03 -0.54149178014E+02  0.25428696280E+03  0.17279936347E+03 0.  0.
         24    2    3    3    0    0  0.51601277162E+02 -0.17511352125E+03 -0.47383435404E+02  0.20516981602E+03  0.80759063429E+02 0.  0.
         -6    2    1    2    0  502 -0.94018049627E+02  0.15175873055E+03  0.26976398278E+03  0.36617551533E+03  0.17158611734E+03 0.  0.
        -24    2    5    5    0    0 -0.11271395111E+03  0.17172783002E+03  0.23894531096E+03  0.32470043607E+03  0.78362166767E+02 0.  0.
          5    1    3    3  501    0  0.42416772466E+02  0.23354790698E+02 -0.67657426096E+01  0.49117146782E+02  0.47000000000E+01 0. -1.
        -13    1    4    4    0    0  0.31956140363E+02 -0.87505147772E+02  0.16988499107E+02  0.94694006650E+02  0.00000000000E+00 0.  1.
         14    1    4    4    0    0  0.19645136799E+02 -0.87608373476E+02 -0.64371934512E+02  0.11047580937E+03  0.00000000000E+00 0. -1.
         -5    1    5    5    0  502  0.18695901487E+02 -0.19969099465E+02  0.30818671825E+02  0.41475079251E+02  0.47000000000E+01 0.  1.
         11    1    6    6    0    0 -0.64431688164E+02  0.15307313609E+03  0.16231025941E+03  0.23222284070E+03  0.00000000000E+00 0. -1.
        -12    1    6    6    0    0 -0.48282262950E+02  0.18654693928E+02  0.76635051549E+02  0.92477595379E+02  0.00000000000E+00 0.  1.
</event>
<event>
12    1  0.1593360E-001  0.2272227E+03  0.7818608E-02  0.1128762E+00
         21   -1    0    0  501  502  0.00000000000E+00  0.00000000000E+00  0.17458876147E+04  0.17458876147E+04  0.00000000000E+00 0.  1.
         21   -1    0    0  502  503 -0.00000000000E+00 -0.00000000000E+00 -0.32880731755E+02  0.32880731755E+02  0.00000000000E+00 0.  1.
         -6    2    1    2    0  503  0.14865748292E+03 -0.15591977265E+02  0.56830502775E+03  0.61173257749E+03  0.17001171966E+03 0.  0.
        -24    2    3    3    0    0  0.11617963452E+03 -0.27896159020E+02  0.22617464519E+03  0.26781181308E+03  0.79323980820E+02 0.  0.
          6    2    1    2  501    0 -0.14865748292E+03  0.15591977265E+02  0.11447018552E+04  0.11670357689E+04  0.17113734765E+03 0.  0.
         24    2    5    5    0    0 -0.15964625480E+03 -0.34823275731E+01  0.11203534722E+04  0.11338768190E+04  0.70609379846E+02 0.  0.
          5    1    5    5  501    0  0.10988771885E+02  0.19074304838E+02  0.24348382931E+02  0.33158949982E+02  0.47000000000E+01 0. -1.
        -11    1    6    6    0    0 -0.10005404419E+03 -0.33669336845E+02  0.77102381031E+03  0.77821729103E+03  0.00000000000E+00 0.  1.
         12    1    6    6    0    0 -0.59592210613E+02  0.30187009272E+02  0.34932966193E+03  0.35565952792E+03  0.00000000000E+00 0. -1.
         -5    1    3    3    0  503  0.32477848393E+02  0.12304181755E+02  0.34213038256E+03  0.34392076441E+03  0.47000000000E+01 0.  1.
         13    1    4    4    0    0  0.22274906091E+02 -0.42866774725E+02  0.74260959838E+02  0.88591319963E+02  0.00000000000E+00 0. -1.
        -14    1    4    4    0    0  0.93904728431E+02  0.14970615705E+02  0.15191368535E+03  0.17922049312E+03  0.00000000000E+00 0.  1.
</event>
<event>
12    1  0.1593360E-001  0.2108081E+03  0.7818608E-02  0.1141133E+00
         21   -1    0    0  503  502  0.00000000000E+00  0.00000000000E+00  0.24870832339E+03  0.24870832339E+03  0.00000000000E+00 0. -1.
         21   -1    0    0  501  503 -0.00000000000E+00 -0.00000000000E+00 -0.24507200061E+03  0.24507200061E+03  0.00000000000E+00 0.  1.
          6    2    1    2  501    0 -0.11601493754E+03  0.36040051527E+02 -0.12753215596E+03  0.24549571881E+03  0.17101270744E+03 0.  0.
         24    2    3    3    0    0  0.51083610355E+01 -0.11250748311E+02 -0.40628216367E+02  0.89029562974E+02  0.78249194425E+02 0.  0.
         -6    2    1    2    0  502  0.11601493754E+03 -0.36040051527E+02  0.13116847874E+03  0.24828460519E+03  0.17228384809E+03 0.  0.
        -24    2    5    5    0    0  0.11815979677E+03 -0.82839634027E+02  0.10965509089E+03  0.19651862022E+03  0.75968326266E+02 0.  0.
          5    1    3    3  501    0 -0.12112329857E+03  0.47290799838E+02 -0.86903939591E+02  0.15646615584E+03  0.47000000000E+01 0. -1.
        -13    1    4    4    0    0  0.95227674911E+01  0.30903689824E+02 -0.32547984204E+02  0.45881286176E+02  0.00000000000E+00 0.  1.
         14    1    4    4    0    0 -0.44144064555E+01 -0.42154438135E+02 -0.80802321629E+01  0.43148276798E+02  0.00000000000E+00 0. -1.
         -5    1    5    5    0  502 -0.21448592316E+01  0.46799582500E+02  0.21513387848E+02  0.51765984971E+02  0.47000000000E+01 0.  1.
         11    1    6    6    0    0  0.67758724717E+02 -0.20408681978E+02  0.88927738958E+02  0.11364814927E+03  0.00000000000E+00 0. -1.
        -12    1    6    6    0    0  0.50401072050E+02 -0.62430952049E+02  0.20727351936E+02  0.82870470953E+02  0.00000000000E+00 0.  1.
</event>
<event>
12    1  0.1593360E-001  0.2018799E+03  0.7818608E-02  0.1148617E+00
         21   -1    0    0  503  502  0.00000000000E+00  0.00000000000E+00  0.19909506468E+04  0.19909506468E+04  0.00000000000E+00 0. -1.
         21   -1    0    0  501  503 -0.00000000000E+00 -0.00000000000E+00 -0.22551896087E+02  0.22551896087E+02  0.00000000000E+00 0. -1.
          6    2    1    2  501    0  0.99173238551E+02 -0.24904326030E+02  0.65788643693E+03  0.68753194321E+03  0.17155189400E+03 0.  0.
         24    2    3    3    0    0  0.68537603162E+02  0.46320568707E+02  0.47904949258E+03  0.49255432795E+03  0.79236049329E+02 0.  0.
         -6    2    1    2    0  502 -0.99173238551E+02  0.24904326030E+02  0.13105123137E+04  0.13259705996E+04  0.17406880804E+03 0.  0.
        -24    2    5    5    0    0 -0.10964105235E+03 -0.33110253382E+02  0.10189523103E+04  0.10284733860E+04  0.79851397485E+02 0.  0.
          5    1    3    3  501    0  0.30635635389E+02 -0.71224894737E+02  0.17883694436E+03  0.19497761526E+03  0.47000000000E+01 0. -1.
        -11    1    4    4    0    0  0.25832182961E+02  0.54834795945E+02  0.17064626344E+03  0.18109197593E+03  0.00000000000E+00 0.  1.
         12    1    4    4    0    0  0.42705420201E+02 -0.85142272386E+01  0.30840322914E+03  0.31146235202E+03  0.00000000000E+00 0. -1.
         -5    1    5    5    0  502  0.10467813803E+02  0.58014579412E+02  0.29156000340E+03  0.29749721365E+03  0.47000000000E+01 0.  1.
         13    1    6    6    0    0 -0.81375052346E+02 -0.34015213206E+02  0.94798025330E+03  0.95207431145E+03  0.00000000000E+00 0. -1.
        -14    1    6    6    0    0 -0.28266000009E+02  0.90495982414E+00  0.70972057051E+02  0.76399074542E+02  0.00000000000E+00 0.  1.
</event>
<event>
12    1  0.1593360E-001  0.2209580E+03  0.7818608E-02  0.1133187E+00
         21   -1    0    0  503  502  0.00000000000E+00  0.00000000000E+00  0.53811286602E+03  0.53811286602E+03  0.00000000000E+00 0. -1.
         21   -1    0    0  501  503 -0.00000000000E+00 -0.00000000000E+00 -0.10543115460E+03  0.10543115460E+03  0.00000000000E+00 0.  1.
          6    2    1    2  501    0  0.13382261922E+03 -0.36702849688E+02  0.95995994628E+02  0.24082858310E+03  0.17183591843E+03 0.  0.
         24    2    3    3    0    0  0.12363913025E+03 -0.83679749477E+02  0.53565979035E+02  0.17654072433E+03  0.77513729334E+02 0.  0.
         -6    2    1    2    0  502 -0.13382261922E+03  0.36702849688E+02  0.33668571680E+03  0.40271543752E+03  0.17195016468E+03 0.  0.
        -24    2    5    5    0    0 -0.13338375533E+03  0.76684659990E+02  0.22624186614E+03  0.28516259024E+03  0.80377593976E+02 0.  0.
          5    1    3    3  501    0  0.10183488968E+02  0.46976899789E+02  0.42430015593E+02  0.64287858765E+02  0.47000000000E+01 0. -1.
        -13    1    4    4    0    0  0.12227605000E+03 -0.83277396567E+02  0.67444648012E+02  0.16258947606E+03  0.00000000000E+00 0.  1.
         14    1    4    4    0    0  0.13630802588E+01 -0.40235291065E+00 -0.13878668977E+02  0.13951248268E+02  0.00000000000E+00 0. -1.
         -5    1    5    5    0  502 -0.43886389238E+00 -0.39981810302E+02  0.11044385065E+03  0.11755284728E+03  0.47000000000E+01 0.  1.
         11    1    6    6    0    0 -0.67403430243E+02  0.24912646030E+02  0.43260457190E+02  0.83876871050E+02  0.00000000000E+00 0. -1.
        -12    1    6    6    0    0 -0.65980325087E+02  0.51772013961E+02  0.18298140895E+03  0.20128571919E+03  0.00000000000E+00 0.  1.
</event>
<event>
12    1  0.1593360E-001  0.1764950E+03  0.7818608E-02  0.1171971E+00
         21   -1    0    0  503  502  0.00000000000E+00  0.00000000000E+00  0.10406397539E+03  0.10406397539E+03  0.00000000000E+00 0. -1.
         21   -1    0    0  501  503 -0.00000000000E+00 -0.00000000000E+00 -0.44588313390E+03  0.44588313390E+03  0.00000000000E+00 0. -1.
          6    2    1    2  501    0  0.23021863369E+02  0.35223589171E+02 -0.33211955711E+03  0.37610355229E+03  0.17140529279E+03 0.  0.
         24    2    3    3    0    0 -0.45143011094E+02  0.35206424986E+02 -0.12272541684E+03  0.15584360044E+03  0.77125326899E+02 0.  0.
         -6    2    1    2    0  502 -0.23021863369E+02 -0.35223589171E+02 -0.96996013932E+01  0.17384355701E+03  0.16839475235E+03 0.  0.
        -24    2    5    5    0    0 -0.47441070091E+02  0.29782128896E+02 -0.29366307030E+02  0.10151852435E+03  0.79410329711E+02 0.  0.
          5    1    3    3  501    0  0.68164874463E+02  0.17164185353E-01 -0.20939414027E+03  0.22025995184E+03  0.47000000000E+01 0. -1.
        -11    1    4    4    0    0 -0.44200528084E+01 -0.23685045481E+02 -0.25295941631E+02  0.34934265547E+02  0.00000000000E+00 0.  1.
         12    1    4    4    0    0 -0.40722958285E+02  0.58891470467E+02 -0.97429475208E+02  0.12090933489E+03  0.00000000000E+00 0. -1.
         -5    1    5    5    0  502  0.24419206722E+02 -0.65005718067E+02  0.19666705636E+02  0.72325032657E+02  0.47000000000E+01 0.  1.
         13    1    6    6    0    0 -0.35394176243E+02 -0.23000698939E+02 -0.19454428866E+02  0.46478539845E+02  0.00000000000E+00 0. -1.
        -14    1    6    6    0    0 -0.12046893848E+02  0.52782827835E+02 -0.99118781635E+01  0.55039984505E+02  0.00000000000E+00 0.  1.
</event>
<event>
12    1  0.1593360E-001  0.1991845E+03  0.7818608E-02  0.1150539E+00
         21   -1    0    0  501  502  0.00000000000E+00  0.00000000000E+00  0.45872774257E+03  0.45872774257E+03  0.00000000000E+00 0. -1.
         21   -1    0    0  502  503 -0.00000000000E+00 -0.00000000000E+00 -0.34344764232E+03  0.34344764232E+03  0.00000000000E+00 0. -1.
         -6    2    1    2    0  503 -0.99359713166E+02 -0.11678688440E+02 -0.28946000964E+03  0.35107782271E+03  0.17163856226E+03 0.  0.
        -24    2    3    3    0    0 -0.54469867915E+02  0.58307361360E+02 -0.14225457130E+03  0.18194865181E+03  0.80636430594E+02 0.  0.
          6    2    1    2  501    0  0.99359713166E+02  0.11678688440E+02  0.40474010989E+03  0.45109756218E+03  0.17223736438E+03 0.  0.
         24    2    5    5    0    0  0.10371328106E+03  0.16929541976E+02  0.41691784060E+03  0.43636962472E+03  0.74531265331E+02 0.  0.
          5    1    5    5  501    0 -0.43535678975E+01 -0.52508535357E+01 -0.12177730714E+02  0.14727937453E+02  0.47000000000E+01 0. -1.
        -11    1    6    6    0    0  0.57631012314E+02  0.13561499768E+02  0.10086556655E+03  0.11695772899E+03  0.00000000000E+00 0.  1.
         12    1    6    6    0    0  0.46082268749E+02  0.33680422082E+01  0.31605227405E+03  0.31941189573E+03  0.00000000000E+00 0. -1.
         -5    1    3    3    0  503 -0.44889845250E+02 -0.69986049800E+02 -0.14720543834E+03  0.16912917090E+03  0.47000000000E+01 0.  1.
         13    1    4    4    0    0  0.28103922921E+01  0.47009636677E+02 -0.97864463747E+02  0.10860597364E+03  0.00000000000E+00 0. -1.
        -14    1    4    4    0    0 -0.57280260207E+02  0.11297724684E+02 -0.44390107555E+02  0.73342678170E+02  0.00000000000E+00 0.  1.
</event>
<event>
12    1  0.1593360E-001  0.2096303E+03  0.7818608E-02  0.1142148E+00
         21   -1    0    0  501  502  0.00000000000E+00  0.00000000000E+00  0.35910805390E+03  0.35910805390E+03  0.00000000000E+00 0.  1.
         21   -1    0    0  502  503 -0.00000000000E+00 -0.00000000000E+00 -0.29269279961E+03  0.29269279961E+03  0.00000000000E+00 0.  1.
         -6    2    1    2    0  503 -0.11130750556E+03  0.34792492456E+02 -0.21606119745E+03  0.30003701284E+03  0.17245257234E+03 0.  0.
        -24    2    3    3    0    0 -0.13552521213E+03  0.91389424981E+01 -0.12117413242E+03  0.19869478548E+03  0.79660806020E+02 0.  0.
          6    2    1    2  501    0  0.11130750556E+03 -0.34792492456E+02  0.28247645174E+03  0.35176384066E+03  0.17419809266E+03 0.  0.
         24    2    5    5    0    0  0.70755316050E+02 -0.60673118510E+02  0.27729900128E+03  0.30315126130E+03  0.79488420912E+02 0.  0.
          5    1    5    5  501    0  0.40552189511E+02  0.25880626054E+02  0.51774504611E+01  0.48612579363E+02  0.47000000000E+01 0. -1.
        -11    1    6    6    0    0  0.44523575868E+02  0.10481573765E+02  0.86848640487E+02  0.98157519076E+02  0.00000000000E+00 0.  1.
         12    1    6    6    0    0  0.26231740182E+02 -0.71154692275E+02  0.19045036079E+03  0.20499374222E+03  0.00000000000E+00 0. -1.
         -5    1    3    3    0  503  0.24217706572E+02  0.25653549958E+02 -0.94887065029E+02  0.10134222736E+03  0.47000000000E+01 0.  1.
         13    1    4    4    0    0 -0.93852374877E+02  0.33168433855E+02 -0.46497519766E+02  0.10986552061E+03  0.00000000000E+00 0. -1.
        -14    1    4    4    0    0 -0.41672837255E+02 -0.24029491357E+02 -0.74676612656E+02  0.88829264871E+02  0.00000000000E+00 0.  1.
</event>
<event>
12    1  0.1593360E-001  0.1764352E+03  0.7818608E-02  0.1171868E+00
         21   -1    0    0  503  502  0.00000000000E+00  0.00000000000E+00  0.41581025441E+03  0.41581025441E+03  0.00000000000E+00 0.  1.
         21   -1    0    0  501  503 -0.00000000000E+00 -0.00000000000E+00 -0.46283688250E+03  0.46283688250E+03  0.00000000000E+00 0.  1.
          6    2    1    2  501    0  0.13628104855E+02  0.39119686281E+02 -0.42621334445E+03  0.46042238481E+03  0.16915934012E+03 0.  0.
         24    2    3    3    0    0 -0.55622921096E+02  0.35588582862E+02 -0.27244264983E+03  0.29167497057E+03  0.80553301811E+02 0.  0.
         -6    2    1    2    0  502 -0.13628104855E+02 -0.39119686281E+02  0.37918671636E+03  0.41822475211E+03  0.17150306794E+03 0.  0.
        -24    2    5    5    0    0  0.19566140246E+02 -0.82909733212E+02  0.21029316560E+03  0.24055498088E+03  0.79916366433E+02 0.  0.
          5    1    3    3  501    0  0.69251025951E+02  0.35311034184E+01 -0.15377069462E+03  0.16874741424E+03  0.47000000000E+01 0. -1.
        -11    1    4    4    0    0 -0.35919185402E+02  0.24791584660E+02 -0.26414088020E+03  0.26772227241E+03  0.00000000000E+00 0.  1.
         12    1    4    4    0    0 -0.19703735694E+02  0.10796998202E+02 -0.83017696262E+01  0.23952698166E+02  0.00000000000E+00 0. -1.
         -5    1    5    5    0  502 -0.33194245101E+02  0.43790046931E+02  0.16889355076E+03  0.17766977122E+03  0.47000000000E+01 0.  1.
         13    1    6    6    0    0 -0.12218684767E+02 -0.79902590973E+02  0.17614788991E+03  0.19380866704E+03  0.00000000000E+00 0. -1.
        -14    1    6    6    0    0  0.31784825013E+02 -0.30071422384E+01  0.34145275694E+02  0.46746313841E+02  0.00000000000E+00 0.  1.
</event>
<event>
12    1  0.1593360E-001  0.2154652E+03  0.7818608E-02  0.1138269E+00
         21   -1    0    0  501  502  0.00000000000E+00  0.00000000000E+00  0.53564743296E+03  0.53564743296E+03  0.00000000000E+00 0. -1.
         21   -1    0    0  502  503 -0.00000000000E+00 -0.00000000000E+00 -0.12909730594E+03  0.12909730594E+03  0.00000000000E+00 0. -1.
         -6    2    1    2    0  503 -0.10892453114E+03 -0.67914712050E+02  0.68044035302E+01  0.21062810728E+03  0.16685603997E+03 0.  0.
        -24    2    3    3    0    0 -0.74359936034E+02 -0.95869775274E+02 -0.33187059097E+02  0.15064807829E+03  0.82903852166E+02 0.  0.
          6    2    1    2  501    0  0.10892453114E+03  0.67914712050E+02  0.39974572349E+03  0.45411663161E+03  0.17305580044E+03 0.  0.
         24    2    5    5    0    0  0.43681225481E+02  0.28962396384E+02  0.72944949645E+02  0.11856513391E+03  0.77394156346E+02 0.  0.
          5    1    5    5  501    0  0.65243305657E+02  0.38952315666E+02  0.32680077384E+03  0.33555149770E+03  0.47000000000E+01 0. -1.
        -11    1    6    6    0    0  0.58019262025E+02  0.30291352400E+02  0.79303388083E+02  0.10282425860E+03  0.00000000000E+00 0.  1.
         12    1    6    6    0    0 -0.14338036544E+02 -0.13289560162E+01 -0.63584384375E+01  0.15740875305E+02  0.00000000000E+00 0. -1.
         -5    1    3    3    0  503 -0.34564595104E+02  0.27955063224E+02  0.39991462627E+02  0.59980028990E+02  0.47000000000E+01 0.  1.
         13    1    4    4    0    0  0.12303672033E+02  0.55766377099E+01 -0.24383344349E+01  0.13726787988E+02  0.00000000000E+00 0. -1.
        -14    1    4    4    0    0 -0.86663608068E+02 -0.10144641298E+03 -0.30748724662E+02  0.13692129031E+03  0.00000000000E+00 0.  1.
</event>
<event>
12    1  0.1593360E-001  0.2097937E+03  0.7818608E-02  0.1141745E+00
         21   -1    0    0  501  502  0.00000000000E+00  0.00000000000E+00  0.52956289975E+02  0.52956289975E+02  0.00000000000E+00 0.  1.
         21   -1    0    0  502  503 -0.00000000000E+00 -0.00000000000E+00 -0.12300384348E+04  0.12300384348E+04  0.00000000000E+00 0.  1.
         -6    2    1    2    0  503 -0.12096454958E+03 -0.94897986916E+01 -0.95392986848E+03  0.97671002816E+03  0.17104913502E+03 0.  0.
        -24    2    3    3    0    0 -0.70646535402E+01 -0.44821047147E+02 -0.44480812741E+03  0.45378697391E+03  0.77521041549E+02 0.  0.
          6    2    1    2  501    0  0.12096454958E+03  0.94897986916E+01 -0.22315227635E+03  0.30628469662E+03  0.17114583960E+03 0.  0.
         24    2    5    5    0    0  0.20564383845E+02  0.20785554746E+02 -0.17374984116E+03  0.19372147889E+03  0.80523728863E+02 0.  0.
          5    1    5    5  501    0  0.10040016573E+03 -0.11295756055E+02 -0.49402435183E+02  0.11256321773E+03  0.47000000000E+01 0. -1.
        -11    1    6    6    0    0  0.33233307736E+02  0.42825841680E+02 -0.14765207332E+03  0.15728839822E+03  0.00000000000E+00 0.  1.
         12    1    6    6    0    0 -0.12668923891E+02 -0.22040286933E+02 -0.26097767837E+02  0.36433080665E+02  0.00000000000E+00 0. -1.
         -5    1    3    3    0  503 -0.11389989604E+03  0.35331248455E+02 -0.50912174107E+03  0.52292305425E+03  0.47000000000E+01 0.  1.
         11    1    4    4    0    0 -0.14037603145E+02 -0.40050787699E+02 -0.97019180514E+02  0.10589542618E+03  0.00000000000E+00 0. -1.
        -12    1    4    4    0    0  0.69729496044E+01 -0.47702594478E+01 -0.34778894690E+03  0.34789154773E+03  0.00000000000E+00 0.  1.
</event>
<event>
12    1  0.1593360E-001  0.2189563E+03  0.7818608E-02  0.1134964E+00
         21   -1    0    0  501  502  0.00000000000E+00  0.00000000000E+00  0.84429482111E+03  0.84429482111E+03  0.00000000000E+00 0.  1.
         21   -1    0    0  502  503 -0.00000000000E+00 -0.00000000000E+00 -0.10558357487E+03  0.10558357487E+03  0.00000000000E+00 0. -1.
         -6    2    1    2    0  503 -0.45577188251E+02 -0.12467515904E+03  0.45826190187E+02  0.22370044481E+03  0.17412832604E+03 0.  0.
        -24    2    3    3    0    0 -0.76868347119E+02 -0.29277548086E+02  0.32747798715E+01  0.11455580078E+03  0.79664230990E+02 0.  0.
          6    2    1    2  501    0  0.45577188251E+02  0.12467515904E+03  0.69288505605E+03  0.72617795116E+03  0.17211490490E+03 0.  0.
         24    2    5    5    0    0  0.90197852729E+01  0.13976218073E+03  0.41014931997E+03  0.44065098503E+03  0.79599009056E+02 0.  0.
          5    1    5    5  501    0  0.36557402978E+02 -0.15087021688E+02  0.28273573608E+03  0.28552696614E+03  0.47000000000E+01 0. -1.
        -13    1    6    6    0    0  0.28087836365E+02  0.56654002361E+02  0.94630558725E+02  0.11381364233E+03  0.00000000000E+00 0.  1.
         14    1    6    6    0    0 -0.19068051092E+02  0.83108178372E+02  0.31551876125E+03  0.32683734270E+03  0.00000000000E+00 0. -1.
         -5    1    3    3    0  503  0.31291158868E+02 -0.95397610959E+02  0.42551410315E+02  0.10914464403E+03  0.47000000000E+01 0.  1.
         11    1    4    4    0    0 -0.17004368039E+02 -0.48344379741E+02 -0.34853533398E+01  0.51366090691E+02  0.00000000000E+00 0. -1.
        -12    1    4    4    0    0 -0.59863979079E+02  0.19066831655E+02  0.67601332113E+01  0.63189710093E+02  0.00000000000E+00 0.  1.
</event>
<event>
12    1  0.1593360E-001  0.1912659E+03  0.7818608E-02  0.1157720E+00
         21   -1    0    0  501  502  0.00000000000E+00  0.00000000000E+00  0.19452878875E+02  0.19452878875E+02  0.00000000000E+00 0.  1.
         21   -1    0    0  502  503 -0.00000000000E+00 -0.00000000000E+00 -0.18802109647E+04  0.18802109647E+04  0.00000000000E+00 0.  1.
         -6    2    1    2    0  503 -0.70593305875E+02 -0.37951534499E+02 -0.83608041301E+03  0.85728819469E+03  0.17172320149E+03 0.  0.
        -24    2    3    3    0    0  0.60480008152E+01  0.22363190811E+02 -0.34462851660E+03  0.35623050094E+03  0.87147373625E+02 0.  0.
          6    2    1    2  501    0  0.70593305875E+02  0.37951534499E+02 -0.10246776728E+04  0.10423756489E+04  0.17366325581E+03 0.  0.
         24    2    5    5    0    0  0.10150995872E+03 -0.10615246689E+02 -0.56531831134E+03  0.57939866821E+03  0.75505419733E+02 0.  0.
          5    1    5    5  501    0 -0.30916652842E+02  0.48566781188E+02 -0.45935936149E+03  0.46297698068E+03  0.47000000000E+01 0. -1.
        -11    1    6    6    0    0  0.24109670179E+02 -0.17287779467E+00 -0.30359143960E+02  0.38768333790E+02  0.00000000000E+00 0.  1.
         12    1    6    6    0    0  0.77400288537E+02 -0.10442368894E+02 -0.53495916738E+03  0.54063033442E+03  0.00000000000E+00 0. -1.
         -5    1    3    3    0  503 -0.76641306690E+02 -0.60314725311E+02 -0.49145189640E+03  0.50105769374E+03  0.47000000000E+01 0.  1.
         11    1    4    4    0    0 -0.23473256031E+02  0.27587360895E+01 -0.24122483446E+02  0.33771268574E+02  0.00000000000E+00 0. -1.
        -12    1    4    4    0    0  0.29521256846E+02  0.19604454722E+02 -0.32050603316E+03  0.32245923237E+03  0.00000000000E+00 0.  1.
</event>
<event>
12    1  0.1593360E-001  0.2169285E+03  0.7818608E-02  0.1138232E+00
         21   -1    0    0  501  502  0.00000000000E+00  0.00000000000E+00  0.15184675033E+03  0.15184675033E+03  0.00000000000E+00 0.  1.
         21   -1    0    0  502  503 -0.00000000000E+00 -0.00000000000E+00 -0.30994089863E+03  0.30994089863E+03  0.00000000000E+00 0.  1.
         -6    2    1    2    0  503 -0.84399084318E+02 -0.76374178289E+02 -0.13134487736E+03  0.25359308657E+03  0.18466660825E+03 0.  0.
        -24    2    3    3    0    0 -0.10600224315E+03 -0.61261331276E+02 -0.31325933479E+02  0.15005095142E+03  0.80898378548E+02 0.  0.
          6    2    1    2  501    0  0.84399084318E+02  0.76374178289E+02 -0.26749270932E+02  0.20819456239E+03  0.17225919938E+03 0.  0.
         24    2    5    5    0    0 -0.10303496140E+02  0.22670114454E+02  0.26221688028E+02  0.87030550777E+02  0.79162135667E+02 0.  0.
          5    1    5    5  501    0  0.94702580457E+02  0.53704063836E+02 -0.52970958960E+02  0.12116401162E+03  0.47000000000E+01 0. -1.
        -13    1    6    6    0    0  0.21953414986E+02 -0.17792675003E+02  0.20619264413E+02  0.34981220365E+02  0.00000000000E+00 0.  1.
         14    1    6    6    0    0 -0.32256911125E+02  0.40462789456E+02  0.56024236146E+01  0.52049330412E+02  0.00000000000E+00 0. -1.
         -5    1    3    3    0  503  0.21603158827E+02 -0.15112847013E+02 -0.10001894388E+03  0.10354213515E+03  0.47000000000E+01 0.  1.
         13    1    4    4    0    0 -0.22916781740E+02 -0.37886833487E+02  0.21117526986E+02  0.49056508059E+02  0.00000000000E+00 0. -1.
        -14    1    4    4    0    0 -0.83085461405E+02 -0.23374497789E+02 -0.52443460465E+02  0.10099444336E+03  0.00000000000E+00 0.  1.
</event>
<event>
12    1  0.1593360E-001  0.2048995E+03  0.7818608E-02  0.1145917E+00
         21   -1    0    0  501  502  0.00000000000E+00  0.00000000000E+00  0.39560142986E+03  0.39560142986E+03  0.00000000000E+00 0.  1.
         21   -1    0    0  502  503 -0.00000000000E+00 -0.00000000000E+00 -0.29786060614E+03  0.29786060614E+03  0.00000000000E+00 0.  1.
         -6    2    1    2    0  503  0.90830442971E+02  0.62338784548E+02 -0.22971566636E+03  0.30781993335E+03  0.17276437877E+03 0.  0.
        -24    2    3    3    0    0 -0.26121848661E+02  0.14959281423E+02 -0.70702517742E+02  0.10476839490E+03  0.71214039891E+02 0.  0.
          6    2    1    2  501    0 -0.90830442971E+02 -0.62338784548E+02  0.32745649007E+03  0.38564210265E+03  0.17133529997E+03 0.  0.
         24    2    5    5    0    0 -0.12067899779E+03 -0.80845285495E+02  0.28422852217E+03  0.32974779157E+03  0.82754894337E+02 0.  0.
          5    1    5    5  501    0  0.29848554817E+02  0.18506500947E+02  0.43227967909E+02  0.55894311084E+02  0.47000000000E+01 0. -1.
        -11    1    6    6    0    0 -0.68515031367E+02 -0.78239563583E+02  0.12744179591E+03  0.16449057778E+03  0.00000000000E+00 0.  1.
         12    1    6    6    0    0 -0.52163966421E+02 -0.26057219122E+01  0.15678672625E+03  0.16525721379E+03  0.00000000000E+00 0. -1.
         -5    1    3    3    0  503  0.11695229163E+03  0.47379503126E+02 -0.15901314862E+03  0.20305153845E+03  0.47000000000E+01 0.  1.
         11    1    4    4    0    0 -0.10399573655E+02  0.11039499151E+01 -0.80822746696E+02  0.81496541161E+02  0.00000000000E+00 0. -1.
        -12    1    4    4    0    0 -0.15722275006E+02  0.13855331507E+02  0.10120228955E+02  0.23271853743E+02  0.00000000000E+00 0.  1.
</event>
<event>
12    1  0.1593360E-001  0.2062830E+03  0.7818608E-02  0.1146147E+00
         21   -1    0    0  503  502  0.00000000000E+00  0.00000000000E+00  0.17776542245E+03  0.17776542245E+03  0.00000000000E+00 0. -1.
         21   -1    0    0  501  503 -0.00000000000E+00 -0.00000000000E+00 -0.29075389993E+03  0.29075389993E+03  0.00000000000E+00 0. -1.
          6    2    1    2  501    0 -0.43074002156E+02  0.88628606864E+02 -0.16400842205E+03  0.26353644731E+03  0.18122443803E+03 0.  0.
         24    2    3    3    0    0  0.13377213602E+01 -0.11591939928E+02 -0.12212470079E+03  0.14609328961E+03  0.79326188331E+02 0.  0.
         -6    2    1    2    0  502  0.43074002156E+02 -0.88628606864E+02  0.51019944570E+02  0.20498287508E+03  0.17235006445E+03 0.  0.
        -24    2    5    5    0    0  0.63941321681E+02  0.10803584383E+01  0.58500083017E+01  0.10229131446E+03  0.79621797417E+02 0.  0.
          5    1    3    3  501    0 -0.44411723517E+02  0.10022054679E+03 -0.41883721262E+02  0.11744315770E+03  0.47000000000E+01 0. -1.
        -13    1    4    4    0    0 -0.18154204218E+02 -0.88011320436E+01  0.21307587788E+01  0.20287315964E+02  0.00000000000E+00 0.  1.
         14    1    4    4    0    0  0.19491925579E+02 -0.27908078842E+01 -0.12425545957E+03  0.12580597364E+03  0.00000000000E+00 0. -1.
         -5    1    5    5    0  502 -0.20867319525E+02 -0.89708965302E+02  0.45169936268E+02  0.10269156062E+03  0.47000000000E+01 0.  1.
         13    1    6    6    0    0  0.48016159535E+02 -0.35102851696E+02 -0.88098251537E+01  0.60127986769E+02  0.00000000000E+00 0. -1.
        -14    1    6    6    0    0  0.15925162146E+02  0.36183210134E+02  0.14659833455E+02  0.42163327690E+02  0.00000000000E+00 0.  1.
</event>
<event>
12    1  0.1593360E-001  0.3032620E+03  0.7818608E-02  0.1083634E+00
         21   -1    0    0  503  502  0.00000000000E+00  0.00000000000E+00  0.38339117028E+03  0.38339117028E+03  0.00000000000E+00 0. -1.
         21   -1    0    0  501  503 -0.00000000000E+00 -0.00000000000E+00 -0.24512607722E+03  0.24512607722E+03  0.00000000000E+00 0. -1.
          6    2    1    2  501    0 -0.24708778252E+03 -0.34413130348E+02  0.22782191876E+02  0.30401120749E+03  0.17224154610E+03 0.  0.
         24    2    3    3    0    0 -0.11515498943E+03  0.22064929553E+02  0.63583568350E+02  0.15473671046E+03  0.78441358301E+02 0.  0.
         -6    2    1    2    0  502  0.24708778252E+03  0.34413130348E+02  0.11548290118E+03  0.32450604001E+03  0.17242747382E+03 0.  0.
        -24    2    5    5    0    0  0.22631417371E+03  0.28694607720E+02  0.37926375193E+02  0.24387509652E+03  0.77428463990E+02 0.  0.
          5    1    3    3  501    0 -0.13193279309E+03 -0.56478059901E+02 -0.40801376474E+02  0.14927449703E+03  0.47000000000E+01 0. -1.
        -11    1    4    4    0    0  0.75610852425E+01 -0.11290375052E+02  0.93051097661E+01  0.16468990455E+02  0.00000000000E+00 0.  1.
         12    1    4    4    0    0 -0.12271607467E+03  0.33355304605E+02  0.54278458584E+02  0.13826772000E+03  0.00000000000E+00 0. -1.
         -5    1    5    5    0  502  0.20773608810E+02  0.57185226282E+01  0.77556525989E+02  0.80630943486E+02  0.47000000000E+01 0.  1.
         11    1    6    6    0    0  0.21439779559E+03  0.68465545878E+01  0.42215555363E+02  0.21862168963E+03  0.00000000000E+00 0. -1.
        -12    1    6    6    0    0  0.11916378122E+02  0.21848053132E+02 -0.42891801703E+01  0.25253406894E+02  0.00000000000E+00 0.  1.
</event>
<event>
12    1  0.1593360E-001  0.2333392E+03  0.7818608E-02  0.1124741E+00
         21   -1    0    0  503  502  0.00000000000E+00  0.00000000000E+00  0.94991869193E+03  0.94991869193E+03  0.00000000000E+00 0.  1.
         21   -1    0    0  501  503 -0.00000000000E+00 -0.00000000000E+00 -0.56961960028E+02  0.56961960028E+02  0.00000000000E+00 0. -1.
          6    2    1    2  501    0 -0.10368009762E+03  0.11896190646E+03  0.41551974635E+03  0.47655412063E+03  0.17188854659E+03 0.  0.
         24    2    3    3    0    0 -0.52844057171E+02  0.54404038459E+02  0.36102479242E+03  0.37784337484E+03  0.81697132085E+02 0.  0.
         -6    2    1    2    0  502  0.10368009762E+03 -0.11896190646E+03  0.47743698556E+03  0.53032653134E+03  0.16851901029E+03 0.  0.
        -24    2    5    5    0    0  0.78680724819E+02 -0.14960552645E+03  0.41994208547E+03  0.46038545884E+03  0.83850733785E+02 0.  0.
          5    1    3    3  501    0 -0.50836040449E+02  0.64557868003E+02  0.54494953929E+02  0.98710745785E+02  0.47000000000E+01 0. -1.
        -13    1    4    4    0    0 -0.68085332907E+02  0.17687583694E+02  0.25789011060E+03  0.26731212527E+03  0.00000000000E+00 0.  1.
         14    1    4    4    0    0  0.15241275736E+02  0.36716454765E+02  0.10313468182E+03  0.11053124957E+03  0.00000000000E+00 0. -1.
         -5    1    5    5    0  502  0.24999372802E+02  0.30643619988E+02  0.57494900088E+02  0.69941072501E+02  0.47000000000E+01 0.  1.
         11    1    6    6    0    0  0.38323143476E+02 -0.10082261179E+02  0.56639098580E+02  0.69125268927E+02  0.00000000000E+00 0. -1.
        -12    1    6    6    0    0  0.40357581342E+02 -0.13952326527E+03  0.36330298689E+03  0.39126018991E+03  0.00000000000E+00 0.  1.
</event>
<event>
12    1  0.1593360E-001  0.3024439E+03  0.7818608E-02  0.1084342E+00
         21   -1    0    0  503  502  0.00000000000E+00  0.00000000000E+00  0.50027502256E+03  0.50027502256E+03  0.00000000000E+00 0.  1.
         21   -1    0    0  501  503 -0.00000000000E+00 -0.00000000000E+00 -0.22208811375E+03  0.22208811375E+03  0.00000000000E+00 0. -1.
          6    2    1    2  501    0  0.24028603127E+03  0.64510312072E+02 -0.16164914017E+02  0.30032602526E+03  0.16743792826E+03 0.  0.
         24    2    3    3    0    0  0.12213877525E+03  0.99369092154E+02 -0.86085254265E+01  0.17682259348E+03  0.80000162257E+02 0.  0.
         -6    2    1    2    0  502 -0.24028603127E+03 -0.64510312072E+02  0.29435182283E+03  0.42203711105E+03  0.17196909699E+03 0.  0.
        -24    2    5    5    0    0 -0.16862409073E+03  0.15289857371E+02  0.13604079880E+03  0.23075728699E+03  0.77935632735E+02 0.  0.
          5    1    3    3  501    0  0.11814725602E+03 -0.34858780082E+02 -0.75563885907E+01  0.12350343178E+03  0.47000000000E+01 0. -1.
        -13    1    4    4    0    0  0.24642069324E+02  0.30239711807E+02 -0.37232280924E+02  0.53925082230E+02  0.00000000000E+00 0.  1.
         14    1    4    4    0    0  0.97496705924E+02  0.69129380346E+02  0.28623755497E+02  0.12289751125E+03  0.00000000000E+00 0. -1.
         -5    1    5    5    0  502 -0.71661940540E+02 -0.79800169443E+02  0.15831102402E+03  0.19127982406E+03  0.47000000000E+01 0.  1.
         13    1    6    6    0    0 -0.14824718642E+03  0.27135966795E+02  0.14131990075E+03  0.20660325100E+03  0.00000000000E+00 0. -1.
        -14    1    6    6    0    0 -0.20376904309E+02 -0.11846109424E+02 -0.52791019430E+01  0.24154035998E+02  0.00000000000E+00 0.  1.
</event>
<event>
12    1  0.1593360E-001  0.1817845E+03  0.7818608E-02  0.1166329E+00
         21   -1    0    0  501  502  0.00000000000E+00  0.00000000000E+00  0.10254557808E+03  0.10254557808E+03  0.00000000000E+00 0. -1.
         21   -1    0    0  502  503 -0.00000000000E+00 -0.00000000000E+00 -0.34827513636E+03  0.34827513636E+03  0.00000000000E+00 0. -1.
         -6    2    1    2    0  503 -0.47827720380E+02 -0.32452452600E+02 -0.58851391155E+02  0.19011199283E+03  0.17128464923E+03 0.  0.
        -24    2    3    3    0    0 -0.22193856978E+02  0.22780423641E+02  0.26394959172E+02  0.85246384479E+02  0.74556939371E+02 0.  0.
          6    2    1    2  501    0  0.47827720380E+02  0.32452452600E+02 -0.18687816713E+03  0.26070872161E+03  0.17235119861E+03 0.  0.
         24    2    5    5    0    0  0.23201598679E+01  0.39713037018E+02 -0.25850449987E+02  0.93150761980E+02  0.80164270357E+02 0.  0.
          5    1    5    5  501    0  0.45507560512E+02 -0.72605844186E+01 -0.16102771714E+03  0.16755795963E+03  0.47000000000E+01 0. -1.
        -13    1    6    6    0    0  0.22346900252E+02 -0.14948830606E+02  0.48759458046E+01  0.27324464036E+02  0.00000000000E+00 0.  1.
         14    1    6    6    0    0 -0.20026740384E+02  0.54661867625E+02 -0.30726395792E+02  0.65826297944E+02  0.00000000000E+00 0. -1.
         -5    1    3    3    0  503 -0.25633863402E+02 -0.55232876241E+02 -0.85246350327E+02  0.10486560835E+03  0.47000000000E+01 0.  1.
         11    1    4    4    0    0 -0.37527229417E+02  0.12515567051E+02  0.44399051478E+02  0.59466025077E+02  0.00000000000E+00 0. -1.
        -12    1    4    4    0    0  0.15333372439E+02  0.10264856590E+02 -0.18004092306E+02  0.25780359403E+02  0.00000000000E+00 0.  1.
</event>
<event>
12    1  0.1593360E-001  0.1903323E+03  0.7818608E-02  0.1158241E+00
         21   -1    0    0  503  502  0.00000000000E+00  0.00000000000E+00  0.34605619556E+03  0.34605619556E+03  0.00000000000E+00 0.  1.
         21   -1    0    0  501  503 -0.00000000000E+00 -0.00000000000E+00 -0.29680166276E+03  0.29680166276E+03  0.00000000000E+00 0.  1.
          6    2    1    2  501    0 -0.32179460797E+02  0.74568848824E+02 -0.23409964633E+03  0.30171019804E+03  0.17213473872E+03 0.  0.
         24    2    3    3    0    0 -0.33335629710E+02  0.83309782743E+02 -0.25363708707E+03  0.27976612724E+03  0.76717207355E+02 0.  0.
         -6    2    1    2    0  502  0.32179460797E+02 -0.74568848824E+02  0.28335417912E+03  0.34114766028E+03  0.17174429940E+03 0.  0.
        -24    2    5    5    0    0 -0.34741028498E+02 -0.84375479504E+01  0.18758889961E+03  0.20681680157E+03  0.79406944772E+02 0.  0.
          5    1    3    3  501    0  0.11561689139E+01 -0.87409339187E+01  0.19537440742E+02  0.21944070796E+02  0.47000000000E+01 0. -1.
        -13    1    4    4    0    0 -0.48995229013E+02  0.33862505771E+02 -0.18073662341E+03  0.19029694902E+03  0.00000000000E+00 0.  1.
         14    1    4    4    0    0  0.15659599303E+02  0.49447276971E+02 -0.72900463664E+02  0.89469178227E+02  0.00000000000E+00 0. -1.
         -5    1    5    5    0  502  0.66920489294E+02 -0.66131300874E+02  0.95765279518E+02  0.13433085872E+03  0.47000000000E+01 0.  1.
         13    1    6    6    0    0 -0.68202529867E+01  0.28445740340E+02  0.27393425322E+02  0.40075874852E+02  0.00000000000E+00 0. -1.
        -14    1    6    6    0    0 -0.27920775511E+02 -0.36883288290E+02  0.16019547428E+03  0.16674092671E+03  0.00000000000E+00 0.  1.
</event>
<event>
12    1  0.1593360E-001  0.1881991E+03  0.7818608E-02  0.1160418E+00
         21   -1    0    0  501  502  0.00000000000E+00  0.00000000000E+00  0.45100679936E+02  0.45100679936E+02  0.00000000000E+00 0.  1.
         21   -1    0    0  502  503 -0.00000000000E+00 -0.00000000000E+00 -0.95839380248E+03  0.95839380248E+03  0.00000000000E+00 0.  1.
         -6    2    1    2    0  503 -0.36749542305E+02 -0.65337290850E+02 -0.67204585108E+03  0.69752203163E+03  0.17109023414E+03 0.  0.
        -24    2    3    3    0    0 -0.11678480740E+02 -0.10901536152E+03 -0.54092171314E+03  0.55698035975E+03  0.74900503583E+02 0.  0.
          6    2    1    2  501    0  0.36749542305E+02  0.65337290850E+02 -0.24124727146E+03  0.30597245078E+03  0.17262503937E+03 0.  0.
         24    2    5    5    0    0 -0.90473111209E+01  0.95143517468E+02 -0.20695517702E+03  0.24129014509E+03  0.79097067368E+02 0.  0.
          5    1    5    5  501    0  0.45796853426E+02 -0.29806226618E+02 -0.34292094434E+02  0.64682305692E+02  0.47000000000E+01 0. -1.
        -11    1    6    6    0    0  0.16811038770E+02  0.13398737044E+02 -0.52643815290E+01  0.22132575354E+02  0.00000000000E+00 0.  1.
         12    1    6    6    0    0 -0.25858349891E+02  0.81744780424E+02 -0.20169079549E+03  0.21915756974E+03  0.00000000000E+00 0. -1.
         -5    1    3    3    0  503 -0.25071061565E+02  0.43678070665E+02 -0.13112413794E+03  0.14054167188E+03  0.47000000000E+01 0.  1.
         13    1    4    4    0    0  0.19906402034E+02 -0.20289535531E+02 -0.23968199619E+03  0.24136153254E+03  0.00000000000E+00 0. -1.
        -14    1    4    4    0    0 -0.31584882774E+02 -0.88725825984E+02 -0.30123971695E+03  0.31561882720E+03  0.00000000000E+00 0.  1.
</event>
<event>
12    1  0.1593360E-001  0.2281678E+03  0.7818608E-02  0.1127942E+00
         21   -1    0    0  501  502  0.00000000000E+00  0.00000000000E+00  0.26837092216E+03  0.26837092216E+03  0.00000000000E+00 0. -1.
         21   -1    0    0  502  503 -0.00000000000E+00 -0.00000000000E+00 -0.27428262655E+03  0.27428262655E+03  0.00000000000E+00 0.  1.
         -6    2    1    2    0  503  0.63445206146E+02  0.13432954492E+03 -0.14978550662E+03  0.27291252149E+03  0.17313528114E+03 0.  0.
        -24    2    3    3    0    0  0.11061345406E+03  0.94597155178E+02 -0.10731353691E+03  0.19788276328E+03  0.80358165814E+02 0.  0.
          6    2    1    2  501    0 -0.63445206146E+02 -0.13432954492E+03  0.14387380222E+03  0.26974102721E+03  0.17317860715E+03 0.  0.
         24    2    5    5    0    0 -0.18882243575E+02 -0.21191849130E+02  0.12218550390E+02  0.90461382032E+02  0.85019615816E+02 0.  0.
          5    1    5    5  501    0 -0.44562962571E+02 -0.11313769579E+03  0.13165525183E+03  0.17927964518E+03  0.47000000000E+01 0. -1.
        -11    1    6    6    0    0  0.24945972479E+02 -0.33171588038E+02 -0.51410398095E+01  0.41822076541E+02  0.00000000000E+00 0.  1.
         12    1    6    6    0    0 -0.43828216054E+02  0.11979738908E+02  0.17359590199E+02  0.48639305491E+02  0.00000000000E+00 0. -1.
         -5    1    3    3    0  503 -0.47168247917E+02  0.39732389738E+02 -0.42471969709E+02  0.75029758208E+02  0.47000000000E+01 0.  1.
         13    1    4    4    0    0  0.52558138953E+02  0.85765965355E+02 -0.39218214485E+02  0.10796400850E+03  0.00000000000E+00 0. -1.
        -14    1    4    4    0    0  0.58055315110E+02  0.88311898228E+01 -0.68095322421E+02  0.89918754783E+02  0.00000000000E+00 0.  1.
</event>
<event>
12    1  0.1593360E-001  0.1729998E+03  0.7818608E-02  0.1174782E+00
         21   -1    0    0  501  502  0.00000000000E+00  0.00000000000E+00  0.31914036101E+03  0.31914036101E+03  0.00000000000E+00 0. -1.
         21   -1    0    0  502  503 -0.00000000000E+00 -0.00000000000E+00 -0.94947699287E+02  0.94947699287E+02  0.00000000000E+00 0. -1.
         -6    2    1    2    0  503  0.32254936876E+01 -0.16125468272E+02  0.13558303366E+03  0.21971573978E+03  0.17210988570E+03 0.  0.
        -24    2    3    3    0    0  0.22176431198E+02 -0.47214376389E+02  0.19504461612E+02  0.97970172600E+02  0.80602352683E+02 0.  0.
          6    2    1    2  501    0 -0.32254936876E+01  0.16125468272E+02  0.88609628066E+02  0.19437232052E+03  0.17221642854E+03 0.  0.
         24    2    5    5    0    0 -0.52887140864E+02  0.23107399130E+02  0.86453239811E+01  0.99866201736E+02  0.81040206436E+02 0.  0.
          5    1    5    5  501    0  0.49661647177E+02 -0.69819308579E+01  0.79964304085E+02  0.94506118779E+02  0.47000000000E+01 0. -1.
        -11    1    6    6    0    0  0.10635479049E+02  0.29980059132E+02  0.15898806015E+02  0.35562471692E+02  0.00000000000E+00 0.  1.
         12    1    6    6    0    0 -0.63522619913E+02 -0.68726600015E+01 -0.72534820336E+01  0.64303730045E+02  0.00000000000E+00 0. -1.
         -5    1    3    3    0  503 -0.18950937510E+02  0.31088908117E+02  0.11607857205E+03  0.12174556718E+03  0.47000000000E+01 0.  1.
         13    1    4    4    0    0  0.40964483776E+02 -0.20985749249E+02 -0.17168783765E+02  0.49124919731E+02  0.00000000000E+00 0. -1.
        -14    1    4    4    0    0 -0.18788052579E+02 -0.26228627140E+02  0.36673245377E+02  0.48845252869E+02  0.00000000000E+00 0.  1.
</event>
<event>
12    1  0.1593360E-001  0.2081526E+03  0.7818608E-02  0.1143047E+00
         21   -1    0    0  503  502  0.00000000000E+00  0.00000000000E+00  0.11212332910E+04  0.11212332910E+04  0.00000000000E+00 0.  1.
         21   -1    0    0  501  503 -0.00000000000E+00 -0.00000000000E+00 -0.42639951562E+02  0.42639951562E+02  0.00000000000E+00 0.  1.
          6    2    1    2  501    0 -0.70330230444E+01  0.11692926149E+03  0.36085340775E+03  0.41655930486E+03  0.17200161912E+03 0.  0.
         24    2    3    3    0    0 -0.66760885433E+02  0.10131052640E+03  0.27245831925E+03  0.30863736965E+03  0.79389241264E+02 0.  0.
         -6    2    1    2    0  502  0.70330230444E+01 -0.11692926149E+03  0.71773993170E+03  0.74731393770E+03  0.17206276857E+03 0.  0.
        -24    2    5    5    0    0 -0.61115728568E+02 -0.51574110917E+02  0.37405706709E+03  0.39086541481E+03  0.80386950779E+02 0.  0.
          5    1    3    3  501    0  0.59727862388E+02  0.15618735089E+02  0.88395088491E+02  0.10792193522E+03  0.47000000000E+01 0. -1.
        -13    1    4    4    0    0 -0.63181927422E+02  0.70132279674E+02  0.11844230067E+03  0.15145649934E+03  0.00000000000E+00 0.  1.
         14    1    4    4    0    0 -0.35789580111E+01  0.31178246726E+02  0.15401601858E+03  0.15718087030E+03  0.00000000000E+00 0. -1.
         -5    1    5    5    0  502  0.68148751612E+02 -0.65355150572E+02  0.34368286460E+03  0.35644852290E+03  0.47000000000E+01 0.  1.
         13    1    6    6    0    0 -0.43648716524E+02  0.10742099312E+02  0.10660538055E+03  0.11569490185E+03  0.00000000000E+00 0. -1.
        -14    1    6    6    0    0 -0.17467012044E+02 -0.62316210229E+02  0.26745168654E+03  0.27517051295E+03  0.00000000000E+00 0.  1.
</event>
<event>
12    1  0.1593360E-001  0.1985365E+03  0.7818608E-02  0.1150993E+00
         21   -1    0    0  501  502  0.00000000000E+00  0.00000000000E+00  0.85886674651E+03  0.85886674651E+03  0.00000000000E+00 0.  1.
         21   -1    0    0  502  503 -0.00000000000E+00 -0.00000000000E+00 -0.63530176942E+02  0.63530176942E+02  0.00000000000E+00 0.  1.
         -6    2    1    2    0  503  0.95034613892E+02 -0.34803267736E+02  0.15461797732E+03  0.25164153425E+03  0.17080368136E+03 0.  0.
        -24    2    3    3    0    0 -0.83828005549E+01 -0.26789846604E+02  0.10889064426E+03  0.13818468995E+03  0.80311075842E+02 0.  0.
          6    2    1    2  501    0 -0.95034613892E+02  0.34803267736E+02  0.64071859225E+03  0.67075538920E+03  0.17073263429E+03 0.  0.
         24    2    5    5    0    0 -0.12137761361E+03  0.28023434651E+01  0.56750231081E+03  0.58648957967E+03  0.84680435022E+02 0.  0.
          5    1    5    5  501    0  0.26342999717E+02  0.32000924271E+02  0.73216281436E+02  0.84265809529E+02  0.47000000000E+01 0. -1.
        -11    1    6    6    0    0 -0.48903134081E+02 -0.18928678204E+02  0.39034197037E+03  0.39384853080E+03  0.00000000000E+00 0.  1.
         12    1    6    6    0    0 -0.72474479528E+02  0.21731021669E+02  0.17716034044E+03  0.19264104887E+03  0.00000000000E+00 0. -1.
         -5    1    3    3    0  503  0.10341741445E+03 -0.80134211314E+01  0.45727333057E+02  0.11345684430E+03  0.47000000000E+01 0.  1.
         13    1    4    4    0    0 -0.19035844845E+02  0.43678401884E+01  0.10287334237E+03  0.10471086852E+03  0.00000000000E+00 0. -1.
        -14    1    4    4    0    0  0.10653044290E+02 -0.31157686793E+02  0.60173018941E+01  0.33473821428E+02  0.00000000000E+00 0.  1.
</event>
<event>
12    1  0.1593360E-001  0.2297305E+03  0.7818608E-02  0.1127252E+00
         21   -1    0    0  501  502  0.00000000000E+00  0.00000000000E+00  0.11312361890E+04  0.11312361890E+04  0.00000000000E+00 0. -1.
         21   -1    0    0  502  503 -0.00000000000E+00 -0.00000000000E+00 -0.79361878532E+02  0.79361878532E+02  0.00000000000E+00 0. -1.
         -6    2    1    2    0  503 -0.14724298204E+03  0.30507171216E+02  0.13290017508E+03  0.26334437879E+03  0.17051868533E+03 0.  0.
        -24    2    3    3    0    0 -0.15594647932E+03  0.59920525564E+02  0.78757784032E+02  0.20093937268E+03  0.79145872602E+02 0.  0.
          6    2    1    2  501    0  0.14724298204E+03 -0.30507171216E+02  0.91897413538E+03  0.94725368874E+03  0.17368047120E+03 0.  0.
         24    2    5    5    0    0  0.74779779971E+02 -0.58999754436E+02  0.76288807981E+03  0.77276102501E+03  0.78028154781E+02 0.  0.
          5    1    5    5  501    0  0.72463202070E+02  0.28492583221E+02  0.15608605557E+03  0.17449266373E+03  0.47000000000E+01 0. -1.
        -13    1    6    6    0    0 -0.11468409508E+02 -0.12209027967E+02  0.41862612700E+02  0.45089501246E+02  0.00000000000E+00 0.  1.
         14    1    6    6    0    0  0.86248189479E+02 -0.46790726469E+02  0.72102546711E+03  0.72767152376E+03  0.00000000000E+00 0. -1.
         -5    1    3    3    0  503  0.87034972813E+01 -0.29413354349E+02  0.54142391050E+02  0.62405006110E+02  0.47000000000E+01 0.  1.
         13    1    4    4    0    0 -0.12692391821E+03  0.22652156408E+02  0.83280095676E+02  0.15348737909E+03  0.00000000000E+00 0. -1.
        -14    1    4    4    0    0 -0.29022561115E+02  0.37268369156E+02 -0.45223116442E+01  0.47451993592E+02  0.00000000000E+00 0.  1.
</event>
<event>
12    1  0.1593360E-001  0.1832024E+03  0.7818608E-02  0.1165526E+00
         21   -1    0    0  503  502  0.00000000000E+00  0.00000000000E+00  0.69692393816E+03  0.69692393816E+03  0.00000000000E+00 0. -1.
         21   -1    0    0  501  503 -0.00000000000E+00 -0.00000000000E+00 -0.57648719687E+02  0.57648719687E+02  0.00000000000E+00 0. -1.
          6    2    1    2  501    0  0.53194112144E+02 -0.20097856883E+02  0.15738904491E+03  0.23903663183E+03  0.17068585906E+03 0.  0.
         24    2    3    3    0    0  0.84770649566E+02 -0.62221090276E+02  0.11956061932E+03  0.17404029124E+03  0.70269155263E+02 0.  0.
         -6    2    1    2    0  502 -0.53194112144E+02  0.20097856883E+02  0.48188617356E+03  0.51553602601E+03  0.17415387573E+03 0.  0.
        -24    2    5    5    0    0 -0.98666038951E+02  0.90327043779E+01  0.26988079919E+03  0.29837594108E+03  0.79849730439E+02 0.  0.
          5    1    3    3  501    0 -0.31576537422E+02  0.42123233393E+02  0.37828425595E+02  0.64996340590E+02  0.47000000000E+01 0. -1.
        -13    1    4    4    0    0 -0.12528616790E+02 -0.86588247999E+01  0.11556730745E+02  0.19118041508E+02  0.00000000000E+00 0.  1.
         14    1    4    4    0    0  0.97299266356E+02 -0.53562265477E+02  0.10800388857E+03  0.15492224973E+03  0.00000000000E+00 0. -1.
         -5    1    5    5    0  502  0.45471926808E+02  0.11065152505E+02  0.21200537436E+03  0.21716008493E+03  0.47000000000E+01 0.  1.
         11    1    6    6    0    0 -0.13498527956E+02 -0.19698707617E+02  0.12951399066E+03  0.13169708849E+03  0.00000000000E+00 0. -1.
        -12    1    6    6    0    0 -0.85167510996E+02  0.28731411995E+02  0.14036680853E+03  0.16667885259E+03  0.00000000000E+00 0.  1.
</event>
<event>
12    1  0.1593360E-001  0.2099189E+03  0.7818608E-02  0.1141702E+00
         21   -1    0    0  503  502  0.00000000000E+00  0.00000000000E+00  0.10290393228E+03  0.10290393228E+03  0.00000000000E+00 0. -1.
         21   -1    0    0  501  503 -0.00000000000E+00 -0.00000000000E+00 -0.64996956135E+03  0.64996956135E+03  0.00000000000E+00 0. -1.
          6    2    1    2  501    0  0.11715714514E+03  0.28366502725E+02 -0.49392716980E+03  0.53668427383E+03  0.17185897002E+03 0.  0.
         24    2    3    3    0    0  0.40474896660E+02 -0.39714168509E+02 -0.31985720133E+03  0.33460114996E+03  0.80211394922E+02 0.  0.
         -6    2    1    2    0  502 -0.11715714514E+03 -0.28366502725E+02 -0.53138459273E+02  0.21618921981E+03  0.17141653297E+03 0.  0.
        -24    2    5    5    0    0 -0.21212381112E+02 -0.27529559257E+02  0.26644462195E+02  0.91315272262E+02  0.80129331941E+02 0.  0.
          5    1    3    3  501    0  0.76682248480E+02  0.68080671235E+02 -0.17406996847E+03  0.20208312387E+03  0.47000000000E+01 0. -1.
        -13    1    4    4    0    0  0.29135310568E+02  0.83581077029E+01 -0.23065142703E+03  0.23263448815E+03  0.00000000000E+00 0.  1.
         14    1    4    4    0    0  0.11339586091E+02 -0.48072276212E+02 -0.89205774294E+02  0.10196666181E+03  0.00000000000E+00 0. -1.
         -5    1    5    5    0  502 -0.95944764028E+02 -0.83694346856E+00 -0.79782921468E+02  0.12487394755E+03  0.47000000000E+01 0.  1.
         13    1    6    6    0    0 -0.39724452238E+02 -0.12229834617E+02 -0.14208608292E+02  0.43925909324E+02  0.00000000000E+00 0. -1.
        -14    1    6    6    0    0  0.18512071125E+02 -0.15299724640E+02  0.40853070487E+02  0.47389362938E+02  0.00000000000E+00 0.  1.
</event>
<event>
12    1  0.1593360E-001  0.1778122E+03  0.7818608E-02  0.1170244E+00
         21   -1    0    0  501  502  0.00000000000E+00  0.00000000000E+00  0.89402432086E+02  0.89402432086E+02  0.00000000000E+00 0.  1.
         21   -1    0    0  502  503 -0.00000000000E+00 -0.00000000000E+00 -0.57397012290E+03  0.57397012290E+03  0.00000000000E+00 0.  1.
         -6    2    1    2    0  503 -0.26560060802E+02 -0.38696984323E+02 -0.44944823323E+03  0.48334345070E+03  0.17150592864E+03 0.  0.
        -24    2    3    3    0    0  0.13409532337E+02 -0.97367465340E+01 -0.94043363019E+02  0.12449672086E+03  0.79879030957E+02 0.  0.
          6    2    1    2  501    0  0.26560060802E+02  0.38696984323E+02 -0.35119457583E+02  0.18002910428E+03  0.17021812084E+03 0.  0.
         24    2    5    5    0    0  0.77157220420E+02  0.29177984417E+02  0.51337890032E+00  0.11723998933E+03  0.83308823680E+02 0.  0.
          5    1    5    5  501    0 -0.50597159618E+02  0.95189999058E+01 -0.35632836483E+02  0.62789114952E+02  0.47000000000E+01 0. -1.
        -11    1    6    6    0    0  0.26878971836E+02  0.21460524738E+02  0.40066328315E+02  0.52804771694E+02  0.00000000000E+00 0.  1.
         12    1    6    6    0    0  0.50278248584E+02  0.77174596793E+01 -0.39552949415E+02  0.64435217637E+02  0.00000000000E+00 0. -1.
         -5    1    3    3    0  503 -0.39969593139E+02 -0.28960237789E+02 -0.35540487021E+03  0.35884672984E+03  0.47000000000E+01 0.  1.
         11    1    4    4    0    0  0.43135067790E+02  0.61646263946E+01 -0.32621115421E+02  0.54431368374E+02  0.00000000000E+00 0. -1.
        -12    1    4    4    0    0 -0.29725535453E+02 -0.15901372929E+02 -0.61422247599E+02  0.70065352487E+02  0.00000000000E+00 0.  1.
</event>
<event>
12    1  0.1593360E-001  0.1724124E+03  0.7818608E-02  0.1176007E+00
         21   -1    0    0  503  502  0.00000000000E+00  0.00000000000E+00  0.88935056884E+02  0.88935056884E+02  0.00000000000E+00 0. -1.
         21   -1    0    0  501  503 -0.00000000000E+00 -0.00000000000E+00 -0.36833577821E+03  0.36833577821E+03  0.00000000000E+00 0. -1.
          6    2    1    2  501    0  0.25160266773E+02 -0.11093751778E+02 -0.21499194683E+03  0.27558585073E+03  0.17020550393E+03 0.  0.
         24    2    3    3    0    0 -0.53829504819E+02 -0.63004160228E+01 -0.12903542206E+03  0.15865435697E+03  0.74724520788E+02 0.  0.
         -6    2    1    2    0  502 -0.25160266773E+02  0.11093751778E+02 -0.64408774492E+02  0.18168498436E+03  0.16764496103E+03 0.  0.
        -24    2    5    5    0    0 -0.60480195890E+02 -0.24328633514E+02 -0.66460335200E+01  0.10512868470E+03  0.82207871168E+02 0.  0.
          5    1    3    3  501    0  0.78989771592E+02 -0.47933357547E+01 -0.85956524767E+02  0.11693149376E+03  0.47000000000E+01 0. -1.
        -13    1    4    4    0    0 -0.68342035898E+01 -0.32930769682E+02 -0.26715932182E+02  0.42952100797E+02  0.00000000000E+00 0.  1.
         14    1    4    4    0    0 -0.46995301229E+02  0.26630353659E+02 -0.10231948988E+03  0.11570225617E+03  0.00000000000E+00 0. -1.
         -5    1    5    5    0  502  0.35319929117E+02  0.35422385291E+02 -0.57762740972E+02  0.76556299657E+02  0.47000000000E+01 0.  1.
         11    1    6    6    0    0  0.15464529136E+00 -0.36487330655E+02  0.15220223358E+02  0.39534850608E+02  0.00000000000E+00 0. -1.
        -12    1    6    6    0    0 -0.60634841182E+02  0.12158697141E+02 -0.21866256878E+02  0.65593834094E+02  0.00000000000E+00 0.  1.
</event>
<event>
12    1  0.1593360E-001  0.1908845E+03  0.7818608E-02  0.1158157E+00
         21   -1    0    0  501  502  0.00000000000E+00  0.00000000000E+00  0.98057501292E+02  0.98057501292E+02  0.00000000000E+00 0.  1.
         21   -1    0    0  502  503 -0.00000000000E+00 -0.00000000000E+00 -0.41628678511E+03  0.41628678511E+03  0.00000000000E+00 0. -1.
         -6    2    1    2    0  503  0.61628794913E+02 -0.54710687295E+02 -0.24647156515E+03  0.31041767663E+03  0.16976316995E+03 0.  0.
        -24    2    3    3    0    0 -0.18295778130E+02 -0.30838444903E+02 -0.60392885126E+02  0.10644418205E+03  0.79983236598E+02 0.  0.
          6    2    1    2  501    0 -0.61628794913E+02  0.54710687295E+02 -0.71757718669E+02  0.20392660977E+03  0.17217875687E+03 0.  0.
         24    2    5    5    0    0  0.17800526593E+02  0.65692231145E+02 -0.18010744333E+02  0.10728066485E+03  0.80947057751E+02 0.  0.
          5    1    5    5  501    0 -0.79429321506E+02 -0.10981543850E+02 -0.53746974336E+02  0.96645944925E+02  0.47000000000E+01 0. -1.
        -13    1    6    6    0    0  0.23156623644E+02  0.40624182851E+01 -0.35873677180E+02  0.42891178292E+02  0.00000000000E+00 0.  1.
         14    1    6    6    0    0 -0.53560970508E+01  0.61629812860E+02  0.17862932846E+02  0.64389486553E+02  0.00000000000E+00 0. -1.
         -5    1    3    3    0  503  0.79924573043E+02 -0.23872242392E+02 -0.18607868003E+03  0.20397349458E+03  0.47000000000E+01 0.  1.
         11    1    4    4    0    0  0.19892456645E+02 -0.35834039103E+02 -0.53376551203E+02  0.67296689429E+02  0.00000000000E+00 0. -1.
        -12    1    4    4    0    0 -0.38188234775E+02  0.49955942007E+01 -0.70163339229E+01  0.39147492619E+02  0.00000000000E+00 0.  1.
</event>
<event>
12    1  0.1593360E-001  0.3184701E+03  0.7818608E-02  0.1076369E+00
         21   -1    0    0  501  502  0.00000000000E+00  0.00000000000E+00  0.65501622077E+03  0.65501622077E+03  0.00000000000E+00 0.  1.
         21   -1    0    0  502  503 -0.00000000000E+00 -0.00000000000E+00 -0.25103485902E+03  0.25103485902E+03  0.00000000000E+00 0.  1.
         -6    2    1    2    0  503  0.71386992125E+02 -0.25827298839E+03  0.48248328615E+03  0.57804835381E+03  0.17189746582E+03 0.  0.
        -24    2    3    3    0    0  0.10375416152E+03 -0.12941862404E+03  0.31019497068E+03  0.36043301770E+03  0.78593473813E+02 0.  0.
          6    2    1    2  501    0 -0.71386992125E+02  0.25827298839E+03 -0.78501924396E+02  0.32800272598E+03  0.17211100180E+03 0.  0.
         24    2    5    5    0    0 -0.47439640626E+02  0.16797254185E+03  0.18267240915E+02  0.19341443658E+03  0.81302877362E+02 0.  0.
          5    1    5    5  501    0 -0.23947351499E+02  0.90300446537E+02 -0.96769165310E+02  0.13458828940E+03  0.47000000000E+01 0. -1.
        -11    1    6    6    0    0 -0.22379827052E+02  0.16590196708E+03  0.15870453527E+02  0.16815525753E+03  0.00000000000E+00 0.  1.
         12    1    6    6    0    0 -0.25059813574E+02  0.20705747683E+01  0.23967873873E+01  0.25259179045E+02  0.00000000000E+00 0. -1.
         -5    1    3    3    0  503 -0.32367169398E+02 -0.12885436435E+03  0.17228831546E+03  0.21761533611E+03  0.47000000000E+01 0.  1.
         11    1    4    4    0    0  0.27710443677E+02 -0.13728881593E+02  0.12756269784E+03  0.13125773409E+03  0.00000000000E+00 0. -1.
        -12    1    4    4    0    0  0.76043717846E+02 -0.11568974245E+03  0.18263227285E+03  0.22917528361E+03  0.00000000000E+00 0.  1.
</event>
<event>
12    1  0.1593360E-001  0.2458244E+03  0.7818608E-02  0.1116034E+00
         21   -1    0    0  503  502  0.00000000000E+00  0.00000000000E+00  0.78076050528E+02  0.78076050528E+02  0.00000000000E+00 0.  1.
         21   -1    0    0  501  503 -0.00000000000E+00 -0.00000000000E+00 -0.77579818909E+03  0.77579818909E+03  0.00000000000E+00 0.  1.
          6    2    1    2  501    0 -0.92687840324E+02 -0.14919351673E+03 -0.37517096908E+03  0.44832656738E+03  0.17144595008E+03 0.  0.
         24    2    3    3    0    0  0.81930847688E+01 -0.48928045751E+02 -0.21011697372E+03  0.23039300617E+03  0.80440750535E+02 0.  0.
         -6    2    1    2    0  502  0.92687840324E+02  0.14919351673E+03 -0.32255116949E+03  0.40554767225E+03  0.17198812850E+03 0.  0.
        -24    2    5    5    0    0  0.24966568842E+02  0.82431061760E+02 -0.27536095613E+03  0.29928195698E+03  0.79547621625E+02 0.  0.
          5    1    3    3  501    0 -0.10088092509E+03 -0.10026547098E+03 -0.16505399536E+03  0.21793356121E+03  0.47000000000E+01 0. -1.
        -11    1    4    4    0    0  0.25334442583E+01 -0.38271433584E+02 -0.27062903505E+02  0.46941684189E+02  0.00000000000E+00 0.  1.
         12    1    4    4    0    0  0.56596405105E+01 -0.10656612167E+02 -0.18305407021E+03  0.18345132198E+03  0.00000000000E+00 0. -1.
         -5    1    5    5    0  502  0.67721271483E+02  0.66762454972E+02 -0.47190213357E+02  0.10626571527E+03  0.47000000000E+01 0.  1.
         11    1    6    6    0    0 -0.26744090624E+02  0.17812608454E+02 -0.10629629449E+03  0.11104700637E+03  0.00000000000E+00 0. -1.
        -12    1    6    6    0    0  0.51710659466E+02  0.64618453306E+02 -0.16906466165E+03  0.18823495060E+03  0.00000000000E+00 0.  1.
</event>
<event>
12    1  0.1593360E-001  0.2359337E+03  0.7818608E-02  0.1122602E+00
         21   -1    0    0  501  502  0.00000000000E+00  0.00000000000E+00  0.12078073282E+03  0.12078073282E+03  0.00000000000E+00 0. -1.
         21   -1    0    0  502  503 -0.00000000000E+00 -0.00000000000E+00 -0.66420673330E+03  0.66420673330E+03  0.00000000000E+00 0.  1.
         -6    2    1    2    0  503 -0.13025706556E+03  0.93157999923E+02 -0.48946878935E+03  0.54336399075E+03  0.17326111688E+03 0.  0.
        -24    2    3    3    0    0 -0.12601341120E+03  0.11930675111E+03 -0.47739380961E+03  0.51387397674E+03  0.77769748962E+02 0.  0.
          6    2    1    2  501    0  0.13025706556E+03 -0.93157999923E+02 -0.53957211124E+02  0.24162347537E+03  0.17269976010E+03 0.  0.
         24    2    5    5    0    0  0.12652021719E+03 -0.77864147523E+02 -0.96449462080E+02  0.19606529994E+03  0.84076823663E+02 0.  0.
          5    1    5    5  501    0  0.37368483693E+01 -0.15293852400E+02  0.42492250956E+02  0.45558175427E+02  0.47000000000E+01 0. -1.
        -13    1    6    6    0    0  0.72612143182E+02 -0.35081716759E+02 -0.98390730117E+02  0.12721629597E+03  0.00000000000E+00 0.  1.
         14    1    6    6    0    0  0.53908074011E+02 -0.42782430764E+02  0.19412680376E+01  0.68849003967E+02  0.00000000000E+00 0. -1.
         -5    1    3    3    0  503 -0.42436543662E+01 -0.26148751186E+02 -0.12074979742E+02  0.29490014017E+02  0.47000000000E+01 0.  1.
         11    1    4    4    0    0 -0.27941910588E+02  0.26401454781E+02 -0.37495206497E+02  0.53699885402E+02  0.00000000000E+00 0. -1.
        -12    1    4    4    0    0 -0.98071500608E+02  0.92905296328E+02 -0.43989860311E+03  0.46017409133E+03  0.00000000000E+00 0.  1.
</event>
<event>
12    1  0.1593360E-001  0.2210047E+03  0.7818608E-02  0.1133376E+00
         21   -1    0    0  501  502  0.00000000000E+00  0.00000000000E+00  0.84896997202E+03  0.84896997202E+03  0.00000000000E+00 0.  1.
         21   -1    0    0  502  503 -0.00000000000E+00 -0.00000000000E+00 -0.62437755729E+02  0.62437755729E+02  0.00000000000E+00 0.  1.
         -6    2    1    2    0  503  0.13197772504E+03  0.30089829589E+02  0.26228912752E+03  0.34298493085E+03  0.17469847917E+03 0.  0.
        -24    2    3    3    0    0  0.90183552102E+02  0.85142835284E+02  0.14722599773E+03  0.20867484127E+03  0.80543897971E+02 0.  0.
          6    2    1    2  501    0 -0.13197772504E+03 -0.30089829589E+02  0.52424308877E+03  0.56842279690E+03  0.17306109370E+03 0.  0.
         24    2    5    5    0    0 -0.51790602566E+02  0.15132970479E+02  0.41591767428E+03  0.42618510259E+03  0.75729496104E+02 0.  0.
          5    1    5    5  501    0 -0.80187122476E+02 -0.45222800068E+02  0.10832541449E+03  0.14223769430E+03  0.47000000000E+01 0. -1.
        -11    1    6    6    0    0 -0.51986678649E+02  0.22585004337E+02  0.15299676827E+03  0.16315853726E+03  0.00000000000E+00 0.  1.
         12    1    6    6    0    0  0.19607608270E+00 -0.74520338585E+01  0.26292090601E+03  0.26302656534E+03  0.00000000000E+00 0. -1.
         -5    1    3    3    0  503  0.41794172939E+02 -0.55053005695E+02  0.11506312979E+03  0.13431008958E+03  0.47000000000E+01 0.  1.
         13    1    4    4    0    0  0.12012124040E+01  0.35886258331E+01 -0.98658829196E+01  0.10566777768E+02  0.00000000000E+00 0. -1.
        -14    1    4    4    0    0  0.88982339698E+02  0.81554209451E+02  0.15709188065E+03  0.19810806350E+03  0.00000000000E+00 0.  1.
</event>
<event>
12    1  0.1593360E-001  0.1784027E+03  0.7818608E-02  0.1169446E+00
         21   -1    0    0  501  502  0.00000000000E+00  0.00000000000E+00  0.65416228839E+03  0.65416228839E+03  0.00000000000E+00 0.  1.
         21   -1    0    0  502  503 -0.00000000000E+00 -0.00000000000E+00 -0.54236834395E+02  0.54236834395E+02  0.00000000000E+00 0. -1.
         -6    2    1    2    0  503  0.44983496409E+02  0.34269256405E+01  0.18505967217E+03  0.25680070022E+03  0.17223315187E+03 0.  0.
        -24    2    3    3    0    0  0.42407130580E+02  0.23183656017E+02  0.27834421252E+02  0.98248388406E+02  0.80883522350E+02 0.  0.
          6    2    1    2  501    0 -0.44983496409E+02 -0.34269256405E+01  0.41486578183E+03  0.45159842257E+03  0.17260434399E+03 0.  0.
         24    2    5    5    0    0 -0.93829914348E+02 -0.20860163451E+02  0.26692434302E+03  0.29475885600E+03  0.79968612868E+02 0.  0.
          5    1    5    5  501    0  0.48846417939E+02  0.17433237811E+02  0.14794143881E+03  0.15683956657E+03  0.47000000000E+01 0. -1.
        -13    1    6    6    0    0 -0.12788970550E+02  0.19792197872E+02  0.11860359698E+03  0.12092188421E+03  0.00000000000E+00 0.  1.
         14    1    6    6    0    0 -0.81040943798E+02 -0.40652361323E+02  0.14832074604E+03  0.17383697178E+03  0.00000000000E+00 0. -1.
         -5    1    3    3    0  503  0.25763658295E+01 -0.19756730376E+02  0.15722525092E+03  0.15855231182E+03  0.47000000000E+01 0.  1.
         13    1    4    4    0    0 -0.35376947718E+01 -0.22426814357E+02 -0.82195957233E+01  0.24146201365E+02  0.00000000000E+00 0. -1.
        -14    1    4    4    0    0  0.45944825352E+02  0.45610470373E+02  0.36054016976E+02  0.74102187042E+02  0.00000000000E+00 0.  1.
</event>
<event>
12    1  0.1593360E-001  0.1868487E+03  0.7818608E-02  0.1162283E+00
         21   -1    0    0  503  502  0.00000000000E+00  0.00000000000E+00  0.39864280831E+02  0.39864280831E+02  0.00000000000E+00 0.  1.
         21   -1    0    0  501  503 -0.00000000000E+00 -0.00000000000E+00 -0.16793896020E+04  0.16793896020E+04  0.00000000000E+00 0.  1.
          6    2    1    2  501    0  0.10731937655E+02 -0.78660816589E+02 -0.22276654397E+03  0.29075309103E+03  0.16914410506E+03 0.  0.
         24    2    3    3    0    0  0.35708046811E+02 -0.11648561633E+03 -0.16463703679E+03  0.21689071150E+03  0.71360096932E+02 0.  0.
         -6    2    1    2    0  502 -0.10731937655E+02  0.78660816589E+02 -0.14167587772E+04  0.14285007918E+04  0.16464015569E+03 0.  0.
        -24    2    5    5    0    0 -0.21258801883E+02 -0.21437797983E+02 -0.62039280785E+03  0.62578577722E+03  0.76217367404E+02 0.  0.
          5    1    3    3  501    0 -0.24976109157E+02  0.37824799741E+02 -0.58129507186E+02  0.73862379529E+02  0.47000000000E+01 0. -1.
        -13    1    4    4    0    0 -0.81814220364E+01 -0.73632543886E+02 -0.12000319843E+03  0.14102997845E+03  0.00000000000E+00 0.  1.
         14    1    4    4    0    0  0.43889468848E+02 -0.42853072444E+02 -0.44633838354E+02  0.75860733057E+02  0.00000000000E+00 0. -1.
         -5    1    5    5    0  502  0.10526864229E+02  0.10009861457E+03 -0.79636596937E+03  0.80271501461E+03  0.47000000000E+01 0.  1.
         13    1    6    6    0    0  0.24683868279E+02 -0.11430973474E+02 -0.37122269932E+03  0.37221801810E+03  0.00000000000E+00 0. -1.
        -14    1    6    6    0    0 -0.45942670162E+02 -0.10006824510E+02 -0.24917010854E+03  0.25356775912E+03  0.00000000000E+00 0.  1.
</event>
<event>
12    1  0.1593360E-001  0.2204429E+03  0.7818608E-02  0.1134837E+00
         21   -1    0    0  503  502  0.00000000000E+00  0.00000000000E+00  0.13079563689E+03  0.13079563689E+03  0.00000000000E+00 0. -1.
         21   -1    0    0  501  503 -0.00000000000E+00 -0.00000000000E+00 -0.49326090760E+03  0.49326090760E+03  0.00000000000E+00 0.  1.
          6    2    1    2  501    0  0.70412543891E+02 -0.10689030997E+03 -0.34122471454E+03  0.40259272302E+03  0.17106469568E+03 0.  0.
         24    2    3    3    0    0  0.87574893059E+02 -0.11997005945E+03 -0.34123105078E+03  0.38050842735E+03  0.79283391744E+02 0.  0.
         -6    2    1    2    0  502 -0.70412543891E+02  0.10689030997E+03 -0.21240556167E+02  0.22146382148E+03  0.17947589892E+03 0.  0.
        -24    2    5    5    0    0  0.34341496407E+02  0.56216471383E+02 -0.18102602270E+02  0.10495981455E+03  0.79682045846E+02 0.  0.
          5    1    3    3  501    0 -0.17162349168E+02  0.13079749472E+02  0.63362348985E-02  0.22084295673E+02  0.47000000000E+01 0. -1.
        -11    1    4    4    0    0  0.82578256751E+02 -0.12539003782E+03 -0.27032903118E+03  0.30922421504E+03  0.00000000000E+00 0.  1.
         12    1    4    4    0    0  0.49966363081E+01  0.54199783687E+01 -0.70902019602E+02  0.71284212302E+02  0.00000000000E+00 0. -1.
         -5    1    5    5    0  502 -0.10475404030E+03  0.50673838591E+02 -0.31379538970E+01  0.11650400693E+03  0.47000000000E+01 0.  1.
         13    1    6    6    0    0 -0.50841127300E+00  0.86751724205E+01  0.28513469843E+02  0.29808305235E+02  0.00000000000E+00 0. -1.
        -14    1    6    6    0    0  0.34849907680E+02  0.47541298963E+02 -0.46616072113E+02  0.75151509310E+02  0.00000000000E+00 0.  1.
</event>
<event>
12    1  0.1593360E-001  0.1866400E+03  0.7818608E-02  0.1162609E+00
         21   -1    0    0  501  502  0.00000000000E+00  0.00000000000E+00  0.43455870928E+02  0.43455870928E+02  0.00000000000E+00 0.  1.
         21   -1    0    0  502  503 -0.00000000000E+00 -0.00000000000E+00 -0.23495864549E+04  0.23495864549E+04  0.00000000000E+00 0.  1.
         -6    2    1    2    0  503  0.39428066169E+02 -0.56309421386E+02 -0.21352193870E+04  0.21433609846E+04  0.17351990258E+03 0.  0.
        -24    2    3    3    0    0  0.84167117080E+02 -0.70090993465E+02 -0.17695952550E+04  0.17747221231E+04  0.78577327957E+02 0.  0.
          6    2    1    2  501    0 -0.39428066169E+02  0.56309421386E+02 -0.17091119705E+03  0.24968134125E+03  0.16853727051E+03 0.  0.
         24    2    5    5    0    0  0.16441233487E+02  0.46061223458E+02 -0.30017204383E+02  0.97695778202E+02  0.79066314285E+02 0.  0.
          5    1    5    5  501    0 -0.55869299655E+02  0.10248197928E+02 -0.14089399267E+03  0.15198556305E+03  0.47000000000E+01 0. -1.
        -13    1    6    6    0    0  0.21141580649E+02  0.42504759919E+02 -0.54637310285E+02  0.72379946970E+02  0.00000000000E+00 0.  1.
         14    1    6    6    0    0 -0.47003471622E+01  0.35564635387E+01  0.24620105902E+02  0.25315831232E+02  0.00000000000E+00 0. -1.
         -5    1    3    3    0  503 -0.44739050911E+02  0.13781572079E+02 -0.36562413190E+03  0.36863886154E+03  0.47000000000E+01 0.  1.
         11    1    4    4    0    0  0.18605920872E+02 -0.23132434962E+02 -0.13904062157E+03  0.14217448536E+03  0.00000000000E+00 0. -1.
        -12    1    4    4    0    0  0.65561196208E+02 -0.46958558503E+02 -0.16305546335E+04  0.16325476377E+04  0.00000000000E+00 0.  1.
</event>
<event>
12    1  0.1593360E-001  0.2265608E+03  0.7818608E-02  0.1129250E+00
         21   -1    0    0  503  502  0.00000000000E+00  0.00000000000E+00  0.34853179047E+03  0.34853179047E+03  0.00000000000E+00 0. -1.
         21   -1    0    0  501  503 -0.00000000000E+00 -0.00000000000E+00 -0.72717188336E+03  0.72717188336E+03  0.00000000000E+00 0.  1.
          6    2    1    2  501    0  0.14126402901E+03  0.35433855684E+02 -0.66979820805E+03  0.70678246986E+03  0.17233901525E+03 0.  0.
         24    2    3    3    0    0  0.59132645432E+02  0.61161382070E+02 -0.53124365475E+03  0.54360488555E+03  0.77775744728E+02 0.  0.
         -6    2    1    2    0  502 -0.14126402901E+03 -0.35433855684E+02  0.29115811516E+03  0.36892120398E+03  0.17354746527E+03 0.  0.
        -24    2    5    5    0    0 -0.10247467128E+03 -0.62638487567E+01  0.29224206850E+03  0.32014858326E+03  0.80928330678E+02 0.  0.
          5    1    3    3  501    0  0.82131383573E+02 -0.25727526386E+02 -0.13855455330E+03  0.16317758431E+03  0.47000000000E+01 0. -1.
        -13    1    4    4    0    0  0.14892027422E+02  0.59776779663E+02 -0.19603658807E+03  0.20548814985E+03  0.00000000000E+00 0.  1.
         14    1    4    4    0    0  0.44240618010E+02  0.13846024068E+01 -0.33520706668E+03  0.33811673570E+03  0.00000000000E+00 0. -1.
         -5    1    5    5    0  502 -0.38789357725E+02 -0.29170006928E+02 -0.10839533405E+01  0.48772620718E+02  0.47000000000E+01 0.  1.
         11    1    6    6    0    0 -0.64581674674E+02  0.30410599168E+02  0.11617007329E+03  0.13634912238E+03  0.00000000000E+00 0. -1.
        -12    1    6    6    0    0 -0.37892996606E+02 -0.36674447925E+02  0.17607199521E+03  0.18379946088E+03  0.00000000000E+00 0.  1.
</event>
<event>
12    1  0.1593360E-001  0.1845922E+03  0.7818608E-02  0.1163497E+00
         21   -1    0    0  503  502  0.00000000000E+00  0.00000000000E+00  0.86300501169E+03  0.86300501169E+03  0.00000000000E+00 0.  1.
         21   -1    0    0  501  503 -0.00000000000E+00 -0.00000000000E+00 -0.45008645680E+02  0.45008645680E+02  0.00000000000E+00 0.  1.
          6    2    1    2  501    0 -0.27014706365E+02 -0.61278064192E+02  0.24879039074E+03  0.30962437726E+03  0.17171430039E+03 0.  0.
         24    2    3    3    0    0  0.34511973502E+02 -0.30715203848E+01  0.18255900649E+03  0.20200365278E+03  0.79228620679E+02 0.  0.
         -6    2    1    2    0  502  0.27014706365E+02  0.61278064192E+02  0.56920597528E+03  0.59838928011E+03  0.17201596657E+03 0.  0.
        -24    2    5    5    0    0  0.43022630469E+02 -0.22586684645E+02  0.39097562910E+03  0.40070848684E+03  0.73104335169E+02 0.  0.
          5    1    3    3  501    0 -0.61526679867E+02 -0.58206543808E+02  0.66231384254E+02  0.10762072448E+03  0.47000000000E+01 0. -1.
        -11    1    4    4    0    0 -0.11576069113E+02 -0.17832435116E+02  0.11378093474E+02  0.24113525860E+02  0.00000000000E+00 0.  1.
         12    1    4    4    0    0  0.46088042615E+02  0.14760914732E+02  0.17118091301E+03  0.17789012692E+03  0.00000000000E+00 0. -1.
         -5    1    5    5    0  502 -0.16007924104E+02  0.83864748837E+02  0.17823034618E+03  0.19768079328E+03  0.47000000000E+01 0.  1.
         13    1    6    6    0    0 -0.24628911757E+01 -0.24542877193E+02  0.41478741545E+02  0.48258726195E+02  0.00000000000E+00 0. -1.
        -14    1    6    6    0    0  0.45485521645E+02  0.19561925477E+01  0.34949688755E+03  0.35244976064E+03  0.00000000000E+00 0.  1.
</event>
<event>
12    1  0.1593360E-001  0.1811948E+03  0.7818608E-02  0.1168569E+00
         21   -1    0    0  501  502  0.00000000000E+00  0.00000000000E+00  0.13960681925E+04  0.13960681925E+04  0.00000000000E+00 0. -1.
         21   -1    0    0  502  503 -0.00000000000E+00 -0.00000000000E+00 -0.31520464239E+02  0.31520464239E+02  0.00000000000E+00 0.  1.
         -6    2    1    2    0  503 -0.20689662497E+02  0.52259554798E+02  0.31153326660E+03  0.36039494684E+03  0.17225683819E+03 0.  0.
        -24    2    3    3    0    0 -0.72518038748E+02  0.29938814610E+01  0.16797122744E+03  0.19994110225E+03  0.80587107229E+02 0.  0.
          6    2    1    2  501    0  0.20689662497E+02 -0.52259554798E+02  0.10530144617E+04  0.10671937099E+04  0.16402388481E+03 0.  0.
         24    2    5    5    0    0  0.29166771796E+02  0.13261458431E+02  0.82849374044E+03  0.83310716861E+03  0.81480731396E+02 0.  0.
          5    1    5    5  501    0 -0.84771092991E+01 -0.65521013228E+02  0.22452072124E+03  0.23408654131E+03  0.47000000000E+01 0. -1.
        -13    1    6    6    0    0  0.51786626161E+01  0.42025441404E+00  0.11567662698E+01  0.53229003811E+01  0.00000000000E+00 0.  1.
         14    1    6    6    0    0  0.23988109180E+02  0.12841204016E+02  0.82733697417E+03  0.82778426823E+03  0.00000000000E+00 0. -1.
         -5    1    3    3    0  503  0.51828376251E+02  0.49265673337E+02  0.14356203916E+03  0.16045384459E+03  0.47000000000E+01 0.  1.
         13    1    4    4    0    0 -0.55093042884E+02  0.39459981342E+01  0.34046836114E+02  0.64884522999E+02  0.00000000000E+00 0. -1.
        -14    1    4    4    0    0 -0.17424995863E+02 -0.95211667320E+00  0.13392439132E+03  0.13505657925E+03  0.00000000000E+00 0.  1.
</event>
<event>
12    1  0.1593360E-001  0.1960588E+03  0.7818608E-02  0.1153280E+00
         21   -1    0    0  501  502  0.00000000000E+00  0.00000000000E+00  0.53271292433E+03  0.53271292433E+03  0.00000000000E+00 0. -1.
         21   -1    0    0  502  503 -0.00000000000E+00 -0.00000000000E+00 -0.94969923114E+02  0.94969923114E+02  0.00000000000E+00 0. -1.
         -6    2    1    2    0  503 -0.54080124216E+02  0.75443543482E+02  0.64409655556E+02  0.20636775126E+03  0.17269237662E+03 0.  0.
        -24    2    3    3    0    0 -0.80447471123E+02  0.72052339547E+02  0.95263246206E+02  0.16537054034E+03  0.81295721229E+02 0.  0.
          6    2    1    2  501    0  0.54080124216E+02 -0.75443543482E+02  0.37333334566E+03  0.42131509619E+03  0.17179125474E+03 0.  0.
         24    2    5    5    0    0  0.17756154894E+02 -0.83815587043E+02  0.12753208245E+03  0.17265896243E+03  0.78780401019E+02 0.  0.
          5    1    5    5  501    0  0.36323969321E+02  0.83720435610E+01  0.24580126321E+03  0.24865613376E+03  0.47000000000E+01 0. -1.
        -13    1    6    6    0    0  0.11243601752E+02 -0.81419813081E+01 -0.89138617120E+01  0.16497495889E+02  0.00000000000E+00 0.  1.
         14    1    6    6    0    0  0.65125531425E+01 -0.75673605735E+02  0.13644594417E+03  0.15616146654E+03  0.00000000000E+00 0. -1.
         -5    1    3    3    0  503  0.26367346907E+02  0.33912039343E+01 -0.30853590651E+02  0.40997210918E+02  0.47000000000E+01 0.  1.
         13    1    4    4    0    0 -0.50734568330E+02  0.63323847618E+02  0.19397620763E+02  0.83427656038E+02  0.00000000000E+00 0. -1.
        -14    1    4    4    0    0 -0.29712902792E+02  0.87284919295E+01  0.75865625443E+02  0.81942884301E+02  0.00000000000E+00 0.  1.
</event>
<event>
12    1  0.1593360E-001  0.1892173E+03  0.7818608E-02  0.1159813E+00
         21   -1    0    0  501  502  0.00000000000E+00  0.00000000000E+00  0.42143110502E+03  0.42143110502E+03  0.00000000000E+00 0.  1.
         21   -1    0    0  502  503 -0.00000000000E+00 -0.00000000000E+00 -0.30209638528E+03  0.30209638528E+03  0.00000000000E+00 0.  1.
         -6    2    1    2    0  503 -0.67511261239E+02 -0.41255055713E+02 -0.24780098792E+03  0.31178283010E+03  0.17188209190E+03 0.  0.
        -24    2    3    3    0    0  0.10279664677E+02 -0.63586089237E+02 -0.12002280308E+03  0.16045716230E+03  0.84806635502E+02 0.  0.
          6    2    1    2  501    0  0.67511261239E+02  0.41255055713E+02  0.36713570766E+03  0.41174466020E+03  0.16877584943E+03 0.  0.
         24    2    5    5    0    0 -0.27976790925E+02  0.25451343111E+02  0.17050774636E+03  0.19253615078E+03  0.81035832151E+02 0.  0.
          5    1    5    5  501    0  0.95488052164E+02  0.15803712602E+02  0.19662796130E+03  0.21920850942E+03  0.47000000000E+01 0. -1.
        -13    1    6    6    0    0  0.74896692583E+01 -0.62638238075E+01  0.12908096034E+03  0.12944970049E+03  0.00000000000E+00 0.  1.
         14    1    6    6    0    0 -0.35466460184E+02  0.31715166918E+02  0.41426786019E+02  0.63086450292E+02  0.00000000000E+00 0. -1.
         -5    1    3    3    0  503 -0.77790925915E+02  0.22331033524E+02 -0.12777818484E+03  0.15132566780E+03  0.47000000000E+01 0.  1.
         11    1    4    4    0    0 -0.11130265291E+02 -0.72982294611E+02 -0.57101251101E+02  0.93331939921E+02  0.00000000000E+00 0. -1.
        -12    1    4    4    0    0  0.21409929968E+02  0.93962053736E+01 -0.62921551975E+02  0.67125222381E+02  0.00000000000E+00 0.  1.
</event>
<event>
12    1  0.1593360E-001  0.1936084E+03  0.7818608E-02  0.1155259E+00
         21   -1    0    0  501  502  0.00000000000E+00  0.00000000000E+00  0.10902883135E+03  0.10902883135E+03  0.00000000000E+00 0.  1.
         21   -1    0    0  502  503 -0.00000000000E+00 -0.00000000000E+00 -0.46868874684E+03  0.46868874684E+03  0.00000000000E+00 0. -1.
         -6    2    1    2    0  503  0.55649087236E+02 -0.69258030218E+02 -0.32897939261E+03  0.38169336334E+03  0.17195606183E+03 0.  0.
        -24    2    3    3    0    0  0.86609084014E+02 -0.53107598693E+02 -0.14897309829E+03  0.19827113505E+03  0.82443365449E+02 0.  0.
          6    2    1    2  501    0 -0.55649087236E+02  0.69258030218E+02 -0.30680522885E+02  0.19602421485E+03  0.17201948338E+03 0.  0.
         24    2    5    5    0    0  0.30427173461E+02  0.51526308995E+02 -0.40953013284E+02  0.10741749585E+03  0.79250209548E+02 0.  0.
          5    1    5    5  501    0 -0.86076260697E+02  0.17731721223E+02  0.10272490400E+02  0.88606719001E+02  0.47000000000E+01 0. -1.
        -11    1    6    6    0    0  0.22967092226E+01  0.38488313201E+02  0.16651595706E+02  0.41998818625E+02  0.00000000000E+00 0.  1.
         12    1    6    6    0    0  0.28130464238E+02  0.13037995794E+02 -0.57604608990E+02  0.65418677222E+02  0.00000000000E+00 0. -1.
         -5    1    3    3    0  503 -0.30959996778E+02 -0.16150431524E+02 -0.18000629432E+03  0.18342222829E+03  0.47000000000E+01 0.  1.
         11    1    4    4    0    0 -0.47661287006E+01 -0.37683373812E+02 -0.48200099691E+02  0.61367762342E+02  0.00000000000E+00 0. -1.
        -12    1    4    4    0    0  0.91375212714E+02 -0.15424224881E+02 -0.10077299860E+03  0.13690337271E+03  0.00000000000E+00 0.  1.
</event>
<event>
12    1  0.1593360E-001  0.1749446E+03  0.7818608E-02  0.1173034E+00
         21   -1    0    0  501  502  0.00000000000E+00  0.00000000000E+00  0.22448121890E+03  0.22448121890E+03  0.00000000000E+00 0.  1.
         21   -1    0    0  502  503 -0.00000000000E+00 -0.00000000000E+00 -0.14950175748E+03  0.14950175748E+03  0.00000000000E+00 0.  1.
         -6    2    1    2    0  503 -0.56445953897E+01  0.34007953713E+02 -0.19480402043E+02  0.17602586936E+03  0.17151448407E+03 0.  0.
        -24    2    3    3    0    0  0.32041299155E+02  0.75003999496E+02 -0.11891069631E+02  0.11962914619E+03  0.86703461806E+02 0.  0.
          6    2    1    2  501    0  0.56445953897E+01 -0.34007953713E+02  0.94459863462E+02  0.19795710703E+03  0.17051670899E+03 0.  0.
         24    2    5    5    0    0  0.46059878987E+02 -0.74008587302E+02  0.69329040319E+02  0.13561054251E+03  0.77362264453E+02 0.  0.
          5    1    5    5  501    0 -0.40415283597E+02  0.40000633589E+02  0.25130823142E+02  0.62346564521E+02  0.47000000000E+01 0. -1.
        -11    1    6    6    0    0 -0.15615971790E+01 -0.59275738580E+02  0.13591630240E+02  0.60834070902E+02  0.00000000000E+00 0.  1.
         12    1    6    6    0    0  0.47621476166E+02 -0.14732848722E+02  0.55737410079E+02  0.74776471607E+02  0.00000000000E+00 0. -1.
         -5    1    3    3    0  503 -0.37685894545E+02 -0.40996045782E+02 -0.75893324127E+01  0.56396723167E+02  0.47000000000E+01 0.  1.
         13    1    4    4    0    0  0.50358893265E+02  0.52044957346E+02  0.21126145219E+02  0.75438781326E+02  0.00000000000E+00 0. -1.
        -14    1    4    4    0    0 -0.18317594110E+02  0.22959042149E+02 -0.33017214850E+02  0.44190364864E+02  0.00000000000E+00 0.  1.
</event>
<event>
12    1  0.1593360E-001  0.1889942E+03  0.7818608E-02  0.1161300E+00
         21   -1    0    0  501  502  0.00000000000E+00  0.00000000000E+00  0.13580198154E+03  0.13580198154E+03  0.00000000000E+00 0.  1.
         21   -1    0    0  502  503 -0.00000000000E+00 -0.00000000000E+00 -0.25380605429E+03  0.25380605429E+03  0.00000000000E+00 0.  1.
         -6    2    1    2    0  503 -0.62616838160E+02  0.46229085885E+02 -0.75821409305E+02  0.19596356793E+03  0.16307923548E+03 0.  0.
        -24    2    3    3    0    0 -0.66303631788E+02  0.21323643419E+02  0.94597618684E+01  0.10691952451E+03  0.80569400339E+02 0.  0.
          6    2    1    2  501    0  0.62616838160E+02 -0.46229085885E+02 -0.42182663445E+02  0.19364446789E+03  0.17222312866E+03 0.  0.
         24    2    5    5    0    0  0.45138219138E+02 -0.90162473230E+02 -0.64954042158E+02  0.14095414302E+03  0.74042639309E+02 0.  0.
          5    1    5    5  501    0  0.17478619022E+02  0.43933387345E+02  0.22771378713E+02  0.52690324871E+02  0.47000000000E+01 0. -1.
        -11    1    6    6    0    0  0.37232086397E+02 -0.89849472940E+02 -0.25267888801E+02  0.10048692576E+03  0.00000000000E+00 0.  1.
         12    1    6    6    0    0  0.79061327411E+01 -0.31300028975E+00 -0.39686153357E+02  0.40467217255E+02  0.00000000000E+00 0. -1.
         -5    1    3    3    0  503  0.36867936283E+01  0.24905442465E+02 -0.85281171173E+02  0.89044043419E+02  0.47000000000E+01 0.  1.
         13    1    4    4    0    0  0.12050287373E+01 -0.22440093087E+02  0.13762113152E+02  0.26351577380E+02  0.00000000000E+00 0. -1.
        -14    1    4    4    0    0 -0.67508660525E+02  0.43763736507E+02 -0.43023512832E+01  0.80567947135E+02  0.00000000000E+00 0.  1.
</event>
<event>
12    1  0.1593360E-001  0.2124656E+03  0.7818608E-02  0.1139673E+00
         21   -1    0    0  503  502  0.00000000000E+00  0.00000000000E+00  0.10210155666E+03  0.10210155666E+03  0.00000000000E+00 0. -1.
         21   -1    0    0  501  503 -0.00000000000E+00 -0.00000000000E+00 -0.44174404583E+03  0.44174404583E+03  0.00000000000E+00 0. -1.
          6    2    1    2  501    0 -0.10254620299E+03  0.71600840921E+02 -0.17383098391E+03  0.27451567534E+03  0.17175343045E+03 0.  0.
         24    2    3    3    0    0 -0.11821045804E+03  0.28129744741E+02 -0.71308740462E+02  0.16196344084E+03  0.79888827583E+02 0.  0.
         -6    2    1    2    0  502  0.10254620299E+03 -0.71600840921E+02 -0.16581150526E+03  0.26932992716E+03  0.17147230160E+03 0.  0.
        -24    2    5    5    0    0  0.10647762105E+03 -0.29220547227E+02 -0.49060561185E+02  0.14497391289E+03  0.80119739089E+02 0.  0.
          5    1    3    3  501    0  0.15664255049E+02  0.43471096180E+02 -0.10252224345E+03  0.11255223450E+03  0.47000000000E+01 0. -1.
        -11    1    4    4    0    0  0.59227121882E+01  0.20067521944E+02 -0.81635017982E+01  0.22459446081E+02  0.00000000000E+00 0.  1.
         12    1    4    4    0    0 -0.12413317023E+03  0.80622227967E+01 -0.63145238663E+02  0.13950399476E+03  0.00000000000E+00 0. -1.
         -5    1    5    5    0  502 -0.39314180568E+01 -0.42380293693E+02 -0.11675094407E+03  0.12435601426E+03  0.47000000000E+01 0.  1.
         13    1    6    6    0    0  0.98863724137E+02 -0.43001824001E+02 -0.62199867832E+02  0.12446692884E+03  0.00000000000E+00 0. -1.
        -14    1    6    6    0    0  0.76138969115E+01  0.13781276773E+02  0.13139306646E+02  0.20506984050E+02  0.00000000000E+00 0.  1.
</event>
<event>
12    1  0.1593360E-001  0.2282437E+03  0.7818608E-02  0.1128026E+00
         21   -1    0    0  501  502  0.00000000000E+00  0.00000000000E+00  0.16204469330E+03  0.16204469330E+03  0.00000000000E+00 0.  1.
         21   -1    0    0  502  503 -0.00000000000E+00 -0.00000000000E+00 -0.33530972525E+03  0.33530972525E+03  0.00000000000E+00 0.  1.
         -6    2    1    2    0  503 -0.15052143121E+03  0.14700929855E+02 -0.33960139954E+02  0.22995765695E+03  0.16986587148E+03 0.  0.
        -24    2    3    3    0    0 -0.45827250482E+02 -0.44959351625E+02 -0.38790062511E+02  0.10926946856E+03  0.79458590633E+02 0.  0.
          6    2    1    2  501    0  0.15052143121E+03 -0.14700929855E+02 -0.13930489200E+03  0.26739676161E+03  0.17094547842E+03 0.  0.
         24    2    5    5    0    0  0.13072934599E+03 -0.99067199244E+01 -0.17021472867E+03  0.23008430941E+03  0.82325151526E+02 0.  0.
          5    1    5    5  501    0  0.19792085215E+02 -0.47942099302E+01  0.30909836676E+02  0.37312452202E+02  0.47000000000E+01 0. -1.
        -13    1    6    6    0    0  0.13968252534E+03 -0.22906843172E+01 -0.14051740387E+03  0.19814539084E+03  0.00000000000E+00 0.  1.
         14    1    6    6    0    0 -0.89531793465E+01 -0.76160356072E+01 -0.29697324806E+02  0.31938918570E+02  0.00000000000E+00 0. -1.
         -5    1    3    3    0  503 -0.10469418072E+03  0.59660281479E+02  0.48299225573E+01  0.12068818838E+03  0.47000000000E+01 0.  1.
         11    1    4    4    0    0 -0.34867019085E+02 -0.34499091880E+02 -0.63528284717E+02  0.80260446794E+02  0.00000000000E+00 0. -1.
        -12    1    4    4    0    0 -0.10960231397E+02 -0.10460259745E+02  0.24738222206E+02  0.29009021771E+02  0.00000000000E+00 0.  1.
</event>
<event>
12    1  0.1593360E-001  0.2127226E+03  0.7818608E-02  0.1139471E+00
         21   -1    0    0  501  502  0.00000000000E+00  0.00000000000E+00  0.12626036564E+03  0.12626036564E+03  0.00000000000E+00 0. -1.
         21   -1    0    0  502  503 -0.00000000000E+00 -0.00000000000E+00 -0.41324604017E+03  0.41324604017E+03  0.00000000000E+00 0.  1.
         -6    2    1    2    0  503 -0.62840667361E+02 -0.10839116242E+03 -0.24217348217E+03  0.32233351297E+03  0.17191074588E+03 0.  0.
        -24    2    3    3    0    0 -0.10318096305E+03 -0.11103880308E+03 -0.18140622454E+03  0.24919597775E+03  0.78832037274E+02 0.  0.
          6    2    1    2  501    0  0.62840667361E+02  0.10839116242E+03 -0.44812192359E+02  0.21717289285E+03  0.17163431837E+03 0.  0.
         24    2    5    5    0    0  0.63543318951E+02  0.62888837028E+01  0.58717948551E+01  0.10308378032E+03  0.80712355617E+02 0.  0.
          5    1    5    5  501    0 -0.70265158938E+00  0.10210227872E+03 -0.50683987214E+02  0.11408911253E+03  0.47000000000E+01 0. -1.
        -13    1    6    6    0    0 -0.18841045280E+02  0.18328526416E+01 -0.57044672908E+01  0.19770818979E+02  0.00000000000E+00 0.  1.
         14    1    6    6    0    0  0.82384364230E+02  0.44560310612E+01  0.11576262146E+02  0.83312961343E+02  0.00000000000E+00 0. -1.
         -5    1    3    3    0  503  0.40340295685E+02  0.26476406658E+01 -0.60767257633E+02  0.73137535214E+02  0.47000000000E+01 0.  1.
         13    1    4    4    0    0 -0.17769746190E+02 -0.76806778014E+02 -0.84055213437E+02  0.11524028781E+03  0.00000000000E+00 0. -1.
        -14    1    4    4    0    0 -0.85411216856E+02 -0.34232025070E+02 -0.97351011101E+02  0.13395568994E+03  0.00000000000E+00 0.  1.
</event>
<event>
12    1  0.1593360E-001  0.2341048E+03  0.7818608E-02  0.1124222E+00
         21   -1    0    0  503  502  0.00000000000E+00  0.00000000000E+00  0.69395798008E+03  0.69395798008E+03  0.00000000000E+00 0.  1.
         21   -1    0    0  501  503 -0.00000000000E+00 -0.00000000000E+00 -0.80776220280E+02  0.80776220280E+02  0.00000000000E+00 0.  1.
          6    2    1    2  501    0  0.14925031042E+03 -0.54650474542E+02  0.23798332219E+03  0.33382797891E+03  0.17187998235E+03 0.  0.
         24    2    3    3    0    0  0.68264808236E+02 -0.86904403070E+02  0.93368684104E+02  0.16490654445E+03  0.79145422585E+02 0.  0.
         -6    2    1    2    0  502 -0.14925031042E+03  0.54650474542E+02  0.37519843761E+03  0.44090622145E+03  0.16841050738E+03 0.  0.
        -24    2    5    5    0    0 -0.17322056455E+03  0.69435546214E+02  0.33441796120E+03  0.39112360718E+03  0.79471027808E+02 0.  0.
          5    1    3    3  501    0  0.80985502188E+02  0.32253928529E+02  0.14461463808E+03  0.16892143445E+03  0.47000000000E+01 0. -1.
        -11    1    4    4    0    0  0.31783006986E+02  0.24202815131E+01  0.18641734568E+01  0.31929491671E+02  0.00000000000E+00 0.  1.
         12    1    4    4    0    0  0.36481801251E+02 -0.89324684584E+02  0.91504510647E+02  0.13297705278E+03  0.00000000000E+00 0. -1.
         -5    1    5    5    0  502  0.23970254123E+02 -0.14785071673E+02  0.40780476410E+02  0.49782614267E+02  0.47000000000E+01 0.  1.
         13    1    6    6    0    0 -0.30615629058E+02 -0.15252603479E+02  0.35641630450E+02  0.49399235588E+02  0.00000000000E+00 0. -1.
        -14    1    6    6    0    0 -0.14260493549E+03  0.84688149693E+02  0.29877633075E+03  0.34172437159E+03  0.00000000000E+00 0.  1.
</event>
<event>
12    1  0.1593360E-001  0.2099334E+03  0.7818608E-02  0.1142115E+00
         21   -1    0    0  503  502  0.00000000000E+00  0.00000000000E+00  0.12363425322E+04  0.12363425322E+04  0.00000000000E+00 0.  1.
         21   -1    0    0  501  503 -0.00000000000E+00 -0.00000000000E+00 -0.45142190643E+02  0.45142190643E+02  0.00000000000E+00 0. -1.
          6    2    1    2  501    0  0.44359578703E+02  0.10782693588E+03  0.29806143719E+03  0.36457185867E+03  0.17457834766E+03 0.  0.
         24    2    3    3    0    0 -0.42484243688E+01  0.13165954147E+03  0.19886047348E+03  0.25146283050E+03  0.79597633413E+02 0.  0.
         -6    2    1    2    0  502 -0.44359578703E+02 -0.10782693588E+03  0.89313890433E+03  0.91691286413E+03  0.17157411711E+03 0.  0.
        -24    2    5    5    0    0 -0.82913741021E+02 -0.35605093860E+02  0.62603671388E+03  0.63750619270E+03  0.79685428085E+02 0.  0.
          5    1    3    3  501    0  0.48608003072E+02 -0.23832605584E+02  0.99200963715E+02  0.11310902817E+03  0.47000000000E+01 0. -1.
        -13    1    4    4    0    0 -0.29256914444E+01  0.75245576443E+01  0.77282646866E+02  0.77703192630E+02  0.00000000000E+00 0.  1.
         14    1    4    4    0    0 -0.13227329243E+01  0.12413498382E+03  0.12157782661E+03  0.17375963787E+03  0.00000000000E+00 0. -1.
         -5    1    5    5    0  502  0.38554162318E+02 -0.72221842022E+02  0.26710219045E+03  0.27940667143E+03  0.47000000000E+01 0.  1.
         13    1    6    6    0    0 -0.29460157054E+02  0.63452859412E+00  0.51364433250E+02  0.59216623369E+02  0.00000000000E+00 0. -1.
        -14    1    6    6    0    0 -0.53453583967E+02 -0.36239622454E+02  0.57467228063E+03  0.57828956933E+03  0.00000000000E+00 0.  1.
</event>
<event>
12    1  0.1593360E-001  0.1786938E+03  0.7818608E-02  0.1169167E+00
         21   -1    0    0  503  502  0.00000000000E+00  0.00000000000E+00  0.18983637268E+03  0.18983637268E+03  0.00000000000E+00 0. -1.
         21   -1    0    0  501  503 -0.00000000000E+00 -0.00000000000E+00 -0.20735201247E+03  0.20735201247E+03  0.00000000000E+00 0. -1.
          6    2    1    2  501    0 -0.44775033152E+02 -0.10607784067E+02 -0.95438836201E+02  0.20224349718E+03  0.17226877842E+03 0.  0.
         24    2    3    3    0    0  0.31590657518E+02 -0.37074583147E+02 -0.72351164932E+02  0.11805715191E+03  0.79563218211E+02 0.  0.
         -6    2    1    2    0  502  0.44775033152E+02  0.10607784067E+02  0.77923196412E+02  0.19494488797E+03  0.17266776228E+03 0.  0.
        -24    2    5    5    0    0  0.34061449422E+01  0.66780616268E+02  0.21910904153E+02  0.10535560918E+03  0.78412142766E+02 0.  0.
          5    1    3    3  501    0 -0.76365690669E+02  0.26466799081E+02 -0.23087671270E+02  0.84186345268E+02  0.47000000000E+01 0. -1.
        -13    1    4    4    0    0 -0.18161071871E+02 -0.33366967585E+01  0.58977873961E+01  0.19384064923E+02  0.00000000000E+00 0.  1.
         14    1    4    4    0    0  0.49751729388E+02 -0.33737886389E+02 -0.78248952328E+02  0.98673086987E+02  0.00000000000E+00 0. -1.
         -5    1    5    5    0  502  0.41368888209E+02 -0.56172832202E+02  0.56012292259E+02  0.89589278786E+02  0.47000000000E+01 0.  1.
         13    1    6    6    0    0 -0.35680088028E+02  0.22357626686E+02 -0.42909307009E+00  0.42108387212E+02  0.00000000000E+00 0. -1.
        -14    1    6    6    0    0  0.39086232970E+02  0.44422989582E+02  0.22339997223E+02  0.63247221972E+02  0.00000000000E+00 0.  1.
</event>
<event>
12    1  0.1593360E-001  0.2213990E+03  0.7818608E-02  0.1133089E+00
         21   -1    0    0  503  502  0.00000000000E+00  0.00000000000E+00  0.71443289359E+03  0.71443289359E+03  0.00000000000E+00 0.  1.
         21   -1    0    0  501  503 -0.00000000000E+00 -0.00000000000E+00 -0.90538722303E+02  0.90538722303E+02  0.00000000000E+00 0.  1.
          6    2    1    2  501    0 -0.57519461183E+02  0.12547520170E+03  0.11133424762E+03  0.24663908585E+03  0.17141472900E+03 0.  0.
         24    2    3    3    0    0 -0.63213586224E+02  0.11693871335E+03  0.22970333438E+02  0.15755729185E+03  0.81400514942E+02 0.  0.
         -6    2    1    2    0  502  0.57519461183E+02 -0.12547520170E+03  0.51255992366E+03  0.55833253004E+03  0.17310408459E+03 0.  0.
        -24    2    5    5    0    0 -0.63862649964E+01 -0.12805016491E+03  0.28806940547E+03  0.32486164313E+03  0.78188718486E+02 0.  0.
          5    1    3    3  501    0  0.56941250410E+01  0.85364883492E+01  0.88363914182E+02  0.89081794003E+02  0.47000000000E+01 0. -1.
        -11    1    4    4    0    0 -0.14419517295E+02  0.88371387133E+02  0.40622841101E+02  0.98324156554E+02  0.00000000000E+00 0.  1.
         12    1    4    4    0    0 -0.48794068929E+02  0.28567326214E+02 -0.17652507664E+02  0.59233135291E+02  0.00000000000E+00 0. -1.
         -5    1    5    5    0  502  0.63905726179E+02  0.25749632113E+01  0.22449051820E+03  0.23347088691E+03  0.47000000000E+01 0.  1.
         13    1    6    6    0    0 -0.34333385741E+02 -0.51074298384E+02  0.17305167739E+03  0.18366885523E+03  0.00000000000E+00 0. -1.
        -14    1    6    6    0    0  0.27947120745E+02 -0.76975866523E+02  0.11501772808E+03  0.14119278791E+03  0.00000000000E+00 0.  1.
</event>
<event>
12    1  0.1593360E-001  0.1870148E+03  0.7818608E-02  0.1161796E+00
         21   -1    0    0  503  502  0.00000000000E+00  0.00000000000E+00  0.18629385319E+03  0.18629385319E+03  0.00000000000E+00 0.  1.
         21   -1    0    0  501  503 -0.00000000000E+00 -0.00000000000E+00 -0.21726829349E+03  0.21726829349E+03  0.00000000000E+00 0.  1.
          6    2    1    2  501    0 -0.41937776999E+02 -0.45795345229E+02 -0.93045888470E+02  0.20651547969E+03  0.17359468657E+03 0.  0.
         24    2    3    3    0    0  0.31406117043E+01 -0.83872730489E+02 -0.56819164454E+02  0.13711509115E+03  0.92345180766E+02 0.  0.
         -6    2    1    2    0  502  0.41937776999E+02  0.45795345229E+02  0.62071448168E+02  0.19704666698E+03  0.17640446000E+03 0.  0.
        -24    2    5    5    0    0  0.23134112737E+02  0.30707033732E+02 -0.37549423364E+02  0.94442364061E+02  0.77661392221E+02 0.  0.
          5    1    3    3  501    0 -0.45078388704E+02  0.38077385260E+02 -0.36226724016E+02  0.69400388538E+02  0.47000000000E+01 0. -1.
        -11    1    4    4    0    0  0.44925253374E+02 -0.27744519432E+02 -0.36710021520E+02  0.64309116222E+02  0.00000000000E+00 0.  1.
         12    1    4    4    0    0 -0.41784641670E+02 -0.56128211056E+02 -0.20109142934E+02  0.72805974929E+02  0.00000000000E+00 0. -1.
         -5    1    5    5    0  502  0.18803664262E+02  0.15088311497E+02  0.99620871532E+02  0.10260430292E+03  0.47000000000E+01 0.  1.
         13    1    6    6    0    0  0.18573572867E+02  0.57010830330E+02 -0.26127870243E+02  0.65405488970E+02  0.00000000000E+00 0. -1.
        -14    1    6    6    0    0  0.45605398700E+01 -0.26303796598E+02 -0.11421553121E+02  0.29036875091E+02  0.00000000000E+00 0.  1.
</event>
<event>
12    1  0.1593360E-001  0.2102227E+03  0.7818608E-02  0.1141456E+00
         21   -1    0    0  503  502  0.00000000000E+00  0.00000000000E+00  0.36655766149E+03  0.36655766149E+03  0.00000000000E+00 0. -1.
         21   -1    0    0  501  503 -0.00000000000E+00 -0.00000000000E+00 -0.15723681111E+03  0.15723681111E+03  0.00000000000E+00 0. -1.
          6    2    1    2  501    0  0.10987337945E+03 -0.50779457137E+02 -0.22089637264E+02  0.21138010546E+03  0.17188043557E+03 0.  0.
         24    2    3    3    0    0  0.71583259723E+02 -0.15178766704E+02 -0.79176064141E+02  0.13382694588E+03  0.79285839077E+02 0.  0.
         -6    2    1    2    0  502 -0.10987337945E+03  0.50779457137E+02  0.23141048765E+03  0.31241436713E+03  0.17146781103E+03 0.  0.
        -24    2    5    5    0    0 -0.23820440712E+02  0.60096000552E+02  0.19094644998E+03  0.21675175902E+03  0.79635642777E+02 0.  0.
          5    1    3    3  501    0  0.38290119729E+02 -0.35600690433E+02  0.57086426877E+02  0.77553159586E+02  0.47000000000E+01 0. -1.
        -11    1    4    4    0    0  0.14330669836E+02 -0.41738721203E+02 -0.25451432485E+02  0.50943737212E+02  0.00000000000E+00 0.  1.
         12    1    4    4    0    0  0.57252589887E+02  0.26559954498E+02 -0.53724631656E+02  0.82883208663E+02  0.00000000000E+00 0. -1.
         -5    1    5    5    0  502 -0.86052938740E+02 -0.93165434144E+01  0.40464037669E+02  0.95662608116E+02  0.47000000000E+01 0.  1.
         13    1    6    6    0    0 -0.53269105785E+02  0.33793960570E+02  0.11676486942E+03  0.13271648026E+03  0.00000000000E+00 0. -1.
        -14    1    6    6    0    0  0.29448665073E+02  0.26302039982E+02  0.74181580553E+02  0.84035278754E+02  0.00000000000E+00 0.  1.
</event>
<event>
12    1  0.1593360E-001  0.2712233E+03  0.7818608E-02  0.1100797E+00
         21   -1    0    0  501  502  0.00000000000E+00  0.00000000000E+00  0.26514416257E+03  0.26514416257E+03  0.00000000000E+00 0.  1.
         21   -1    0    0  502  503 -0.00000000000E+00 -0.00000000000E+00 -0.60167856858E+03  0.60167856858E+03  0.00000000000E+00 0. -1.
         -6    2    1    2    0  503 -0.20957748964E+03 -0.93702943806E+01 -0.48696864870E+03  0.55667350619E+03  0.16951814384E+03 0.  0.
        -24    2    3    3    0    0 -0.81855273540E+02  0.53919250486E+02 -0.24113857444E+03  0.27246751331E+03  0.80518087078E+02 0.  0.
          6    2    1    2  501    0  0.20957748964E+03  0.93702943806E+01  0.15043424269E+03  0.31014922496E+03  0.17190565374E+03 0.  0.
         24    2    5    5    0    0  0.11269516791E+03  0.62223204895E+02  0.98569027497E+02  0.18811765133E+03  0.95396380773E+02 0.  0.
          5    1    5    5  501    0  0.96882321736E+02 -0.52852910515E+02  0.51865215197E+02  0.12203157363E+03  0.47000000000E+01 0. -1.
        -11    1    6    6    0    0  0.29045156805E+02 -0.24431854931E+02  0.36350584282E+02  0.52553797644E+02  0.00000000000E+00 0.  1.
         12    1    6    6    0    0  0.83650011102E+02  0.86655059827E+02  0.62218443215E+02  0.13556385369E+03  0.00000000000E+00 0. -1.
         -5    1    3    3    0  503 -0.12772221610E+03 -0.63289544866E+02 -0.24583007426E+03  0.28420599288E+03  0.47000000000E+01 0.  1.
         11    1    4    4    0    0 -0.84573101601E+02  0.30819013198E+02 -0.22937008878E+03  0.24640020031E+03  0.00000000000E+00 0. -1.
        -12    1    4    4    0    0  0.27178280609E+01  0.23100237287E+02 -0.11768485666E+02  0.26067312999E+02  0.00000000000E+00 0.  1.
</event>
<event>
12    1  0.1593360E-001  0.1907545E+03  0.7818608E-02  0.1158110E+00
         21   -1    0    0  503  502  0.00000000000E+00  0.00000000000E+00  0.64506427769E+02  0.64506427769E+02  0.00000000000E+00 0. -1.
         21   -1    0    0  501  503 -0.00000000000E+00 -0.00000000000E+00 -0.82835889398E+03  0.82835889398E+03  0.00000000000E+00 0. -1.
          6    2    1    2  501    0  0.59375729888E+02  0.57272086003E+02 -0.63711194157E+03  0.66505556379E+03  0.17199333620E+03 0.  0.
         24    2    3    3    0    0 -0.55439873931E+01  0.91197166143E+02 -0.42611390810E+03  0.44165515894E+03  0.71683734823E+02 0.  0.
         -6    2    1    2    0  502 -0.59375729888E+02 -0.57272086003E+02 -0.12674052464E+03  0.22780975796E+03  0.17037768663E+03 0.  0.
        -24    2    5    5    0    0 -0.22016672819E+02 -0.27509536305E+02 -0.14978271754E+03  0.17456934884E+03  0.82450510060E+02 0.  0.
          5    1    3    3  501    0  0.64919717281E+02 -0.33925080141E+02 -0.21099803347E+03  0.22340040484E+03  0.47000000000E+01 0. -1.
        -13    1    4    4    0    0 -0.79906564531E+01  0.46660555864E+02 -0.82171008161E+02  0.94832128766E+02  0.00000000000E+00 0.  1.
         14    1    4    4    0    0  0.24466690600E+01  0.44536610280E+02 -0.34394289994E+03  0.34682303018E+03  0.00000000000E+00 0. -1.
         -5    1    5    5    0  502 -0.37359057069E+02 -0.29762549698E+02  0.23042192906E+02  0.53240409123E+02  0.47000000000E+01 0.  1.
         11    1    6    6    0    0 -0.42616247779E+01  0.14415306739E+02  0.28420352078E+01  0.15298355410E+02  0.00000000000E+00 0. -1.
        -12    1    6    6    0    0 -0.17755048041E+02 -0.41924843044E+02 -0.15262475275E+03  0.15927099343E+03  0.00000000000E+00 0.  1.
</event>
<event>
12    1  0.1593360E-001  0.1967791E+03  0.7818608E-02  0.1153379E+00
         21   -1    0    0  501  502  0.00000000000E+00  0.00000000000E+00  0.64798473822E+02  0.64798473822E+02  0.00000000000E+00 0. -1.
         21   -1    0    0  502  503 -0.00000000000E+00 -0.00000000000E+00 -0.11132670281E+04  0.11132670281E+04  0.00000000000E+00 0. -1.
         -6    2    1    2    0  503 -0.67335139315E+02  0.63565315449E+02 -0.92700605577E+03  0.94681851749E+03  0.16896895366E+03 0.  0.
        -24    2    3    3    0    0 -0.18585393817E+02  0.41534105933E+02 -0.83585114652E+03  0.84102050540E+03  0.81227166393E+02 0.  0.
          6    2    1    2  501    0  0.67335139315E+02 -0.63565315449E+02 -0.12146249852E+03  0.23124698446E+03  0.17363023630E+03 0.  0.
         24    2    5    5    0    0 -0.94022241590E+01  0.15527213601E+02 -0.82238507603E+02  0.11417921533E+03  0.77098799594E+02 0.  0.
          5    1    5    5  501    0  0.76737363474E+02 -0.79092529050E+02 -0.39223990921E+02  0.11706776913E+03  0.47000000000E+01 0. -1.
        -13    1    6    6    0    0  0.11547963695E+02  0.10617082784E+01 -0.87430459873E+02  0.88196190414E+02  0.00000000000E+00 0.  1.
         14    1    6    6    0    0 -0.20950187854E+02  0.14465505323E+02  0.51919522692E+01  0.25983024915E+02  0.00000000000E+00 0. -1.
         -5    1    3    3    0  503 -0.48749745498E+02  0.22031209516E+02 -0.91154909256E+02  0.10579801208E+03  0.47000000000E+01 0.  1.
         13    1    4    4    0    0 -0.39358048791E+02  0.44822093416E+01 -0.60489083989E+03  0.60618650132E+03  0.00000000000E+00 0. -1.
        -14    1    4    4    0    0  0.20772654974E+02  0.37051896591E+02 -0.23096030663E+03  0.23483400408E+03  0.00000000000E+00 0.  1.
</event>
<event>
12    1  0.1593360E-001  0.2085662E+03  0.7818608E-02  0.1142878E+00
         21   -1    0    0  503  502  0.00000000000E+00  0.00000000000E+00  0.16208379082E+03  0.16208379082E+03  0.00000000000E+00 0. -1.
         21   -1    0    0  501  503 -0.00000000000E+00 -0.00000000000E+00 -0.27124006178E+03  0.27124006178E+03  0.00000000000E+00 0. -1.
          6    2    1    2  501    0 -0.11052317494E+03  0.41036319745E+02 -0.28285525438E+02  0.20962773446E+03  0.17100983705E+03 0.  0.
         24    2    3    3    0    0 -0.80203234230E+02  0.82598556113E+02  0.18216079773E+02  0.14012084571E+03  0.77762108941E+02 0.  0.
         -6    2    1    2    0  502  0.11052317494E+03 -0.41036319745E+02 -0.80870745526E+02  0.22369611814E+03  0.17204802833E+03 0.  0.
        -24    2    5    5    0    0  0.85815418832E+02 -0.24881020387E+02 -0.12331314661E+03  0.17178355396E+03  0.79499094333E+02 0.  0.
          5    1    3    3  501    0 -0.30319940714E+02 -0.41562236367E+02 -0.46501605212E+02  0.69506888752E+02  0.47000000000E+01 0. -1.
        -11    1    4    4    0    0 -0.14567487935E+02  0.11497295008E+02  0.37144122673E+02  0.41522106720E+02  0.00000000000E+00 0.  1.
         12    1    4    4    0    0 -0.65635746294E+02  0.71101261104E+02 -0.18928042900E+02  0.98598738989E+02  0.00000000000E+00 0. -1.
         -5    1    5    5    0  502  0.24707756112E+02 -0.16155299358E+02  0.42442401089E+02  0.51912564179E+02  0.47000000000E+01 0.  1.
         13    1    6    6    0    0  0.82141774648E+02 -0.22212725454E+02 -0.50746788092E+02  0.99075288625E+02  0.00000000000E+00 0. -1.
        -14    1    6    6    0    0  0.36736441839E+01 -0.26682949335E+01 -0.72566358523E+02  0.72708265339E+02  0.00000000000E+00 0.  1.
</event>
<event>
12    1  0.1593360E-001  0.3040264E+03  0.7818608E-02  0.1083372E+00
         21   -1    0    0  503  502  0.00000000000E+00  0.00000000000E+00  0.11979905689E+03  0.11979905689E+03  0.00000000000E+00 0. -1.
         21   -1    0    0  501  503 -0.00000000000E+00 -0.00000000000E+00 -0.80014835709E+03  0.80014835709E+03  0.00000000000E+00 0.  1.
          6    2    1    2  501    0  0.23796848475E+03 -0.74005626957E+02 -0.43045048005E+03  0.52639755343E+03  0.17233959476E+03 0.  0.
         24    2    3    3    0    0  0.22233061368E+03 -0.28110889976E+02 -0.41195892079E+03  0.47429287362E+03  0.70869271420E+02 0.  0.
         -6    2    1    2    0  502 -0.23796848475E+03  0.74005626957E+02 -0.24989882014E+03  0.39354986055E+03  0.17414430762E+03 0.  0.
        -24    2    5    5    0    0 -0.84835063706E+02 -0.17367921965E+02 -0.14109418469E+03  0.18460128128E+03  0.81678830486E+02 0.  0.
          5    1    3    3  501    0  0.15637871064E+02 -0.45894736981E+02 -0.18491559262E+02  0.52104679809E+02  0.47000000000E+01 0. -1.
        -11    1    4    4    0    0  0.10138913296E+02 -0.18695263619E+02 -0.24567587874E+02  0.32494258239E+02  0.00000000000E+00 0.  1.
         12    1    4    4    0    0  0.21219170039E+03 -0.94156263569E+01 -0.38739133292E+03  0.44179861538E+03  0.00000000000E+00 0. -1.
         -5    1    5    5    0  502 -0.15313342104E+03  0.91373548922E+02 -0.10880463545E+03  0.20894857927E+03  0.47000000000E+01 0.  1.
         13    1    6    6    0    0 -0.63093456942E+02 -0.66394248779E+01 -0.28717061203E+02  0.69638609088E+02  0.00000000000E+00 0. -1.
        -14    1    6    6    0    0 -0.21741606764E+02 -0.10728497087E+02 -0.11237712348E+03  0.11496267219E+03  0.00000000000E+00 0.  1.
</event>
<event>
12    1  0.1593360E-001  0.1856234E+03  0.7818608E-02  0.1165031E+00
         21   -1    0    0  503  502  0.00000000000E+00  0.00000000000E+00  0.13528710793E+03  0.13528710793E+03  0.00000000000E+00 0.  1.
         21   -1    0    0  501  503 -0.00000000000E+00 -0.00000000000E+00 -0.34635602239E+03  0.34635602239E+03  0.00000000000E+00 0.  1.
          6    2    1    2  501    0  0.43939386681E+02  0.54420388175E+02 -0.23661884630E+03  0.29426960284E+03  0.16035545634E+03 0.  0.
         24    2    3    3    0    0  0.87966506409E+01 -0.24912966428E+02 -0.14647624676E+03  0.16906348757E+03  0.80181887014E+02 0.  0.
         -6    2    1    2    0  502 -0.43939386681E+02 -0.54420388175E+02  0.25549931837E+02  0.18737352748E+03  0.17194124413E+03 0.  0.
        -24    2    5    5    0    0  0.31221682940E+02 -0.18361823727E+02 -0.21164605259E+02  0.91698324668E+02  0.81539512967E+02 0.  0.
          5    1    3    3  501    0  0.35142736040E+02  0.79333354603E+02 -0.90142599536E+02  0.12520611527E+03  0.47000000000E+01 0. -1.
        -13    1    4    4    0    0 -0.52550865774E+01  0.24689424652E+02 -0.85833678679E+02  0.89468452654E+02  0.00000000000E+00 0.  1.
         14    1    4    4    0    0  0.14051737218E+02 -0.49602391080E+02 -0.60642568082E+02  0.79595034916E+02  0.00000000000E+00 0. -1.
         -5    1    5    5    0  502 -0.75161069621E+02 -0.36058564449E+02  0.46714537096E+02  0.95675202810E+02  0.47000000000E+01 0.  1.
         13    1    6    6    0    0  0.14820797650E+01 -0.15124121169E+02  0.29315273941E+02  0.33020007386E+02  0.00000000000E+00 0. -1.
        -14    1    6    6    0    0  0.29739603175E+02 -0.32377025576E+01 -0.50479879200E+02  0.58678317281E+02  0.00000000000E+00 0.  1.
</event>
<event>
12    1  0.1593360E-001  0.1922793E+03  0.7818608E-02  0.1157070E+00
         21   -1    0    0  501  502  0.00000000000E+00  0.00000000000E+00  0.10283984926E+04  0.10283984926E+04  0.00000000000E+00 0.  1.
         21   -1    0    0  502  503 -0.00000000000E+00 -0.00000000000E+00 -0.36746025333E+02  0.36746025333E+02  0.00000000000E+00 0. -1.
         -6    2    1    2    0  503 -0.81833218706E+02  0.69901907286E+00  0.59372089800E+03  0.62319332116E+03  0.17078713800E+03 0.  0.
        -24    2    3    3    0    0 -0.83580386429E+02  0.21838383632E+02  0.22280946380E+03  0.25164614064E+03  0.78861441446E+02 0.  0.
          6    2    1    2  501    0  0.81833218706E+02 -0.69901907286E+00  0.39793156928E+03  0.44195119678E+03  0.17399471888E+03 0.  0.
         24    2    5    5    0    0  0.35375864437E+02 -0.49858879576E+02  0.33400978188E+03  0.34876824472E+03  0.79620314483E+02 0.  0.
          5    1    5    5  501    0  0.46457354269E+02  0.49159860503E+02  0.63921787397E+02  0.93182952059E+02  0.47000000000E+01 0. -1.
        -11    1    6    6    0    0  0.91115072102E+01 -0.26350594376E+01  0.24110666417E+03  0.24129315491E+03  0.00000000000E+00 0.  1.
         12    1    6    6    0    0  0.26264357227E+02 -0.47223820139E+02  0.92903117714E+02  0.10747508981E+03  0.00000000000E+00 0. -1.
         -5    1    3    3    0  503  0.17471677235E+01 -0.21139364559E+02  0.37091143421E+03  0.37154718052E+03  0.47000000000E+01 0.  1.
         11    1    4    4    0    0 -0.67003144976E+02  0.50422242874E+02  0.15585435352E+03  0.17698136491E+03  0.00000000000E+00 0. -1.
        -12    1    4    4    0    0 -0.16577241454E+02 -0.28583859242E+02  0.66955110274E+02  0.74664775732E+02  0.00000000000E+00 0.  1.
</event>
<event>
12    1  0.1593360E-001  0.2120195E+03  0.7818608E-02  0.1140418E+00
         21   -1    0    0  503  502  0.00000000000E+00  0.00000000000E+00  0.49285472370E+03  0.49285472370E+03  0.00000000000E+00 0. -1.
         21   -1    0    0  501  503 -0.00000000000E+00 -0.00000000000E+00 -0.91139038884E+02  0.91139038884E+02  0.00000000000E+00 0.  1.
          6    2    1    2  501    0 -0.96681501537E+02 -0.76996014682E+02  0.17086298388E+03  0.27055277424E+03  0.16949615149E+03 0.  0.
         24    2    3    3    0    0 -0.90880519172E+02 -0.66901339406E+02  0.19751034817E+03  0.24109558685E+03  0.79885457897E+02 0.  0.
         -6    2    1    2    0  502  0.96681501537E+02  0.76996014682E+02  0.23085270093E+03  0.31344098835E+03  0.17226893113E+03 0.  0.
        -24    2    5    5    0    0  0.82140385199E+02  0.23505147150E+02  0.22915747605E+03  0.25778417600E+03  0.81486181286E+02 0.  0.
          5    1    3    3  501    0 -0.58009823650E+01 -0.10094675276E+02 -0.26647364289E+02  0.29457187389E+02  0.47000000000E+01 0. -1.
        -13    1    4    4    0    0 -0.54064412375E+01 -0.38338507243E+02  0.23933224100E+02  0.45517798280E+02  0.00000000000E+00 0.  1.
         14    1    4    4    0    0 -0.85474077934E+02 -0.28562832163E+02  0.17357712407E+03  0.19557778857E+03  0.00000000000E+00 0. -1.
         -5    1    5    5    0  502  0.14541116338E+02  0.53490867532E+02  0.16952248829E+01  0.55656812351E+02  0.47000000000E+01 0.  1.
         11    1    6    6    0    0 -0.79757089844E+01  0.23645544844E+02  0.77002281429E+02  0.80944889092E+02  0.00000000000E+00 0. -1.
        -12    1    6    6    0    0  0.90116094183E+02 -0.14039769430E+00  0.15215519462E+03  0.17683928690E+03  0.00000000000E+00 0.  1.
</event>
<event>
12    1  0.1593360E-001  0.2391006E+03  0.7818608E-02  0.1120710E+00
         21   -1    0    0  503  502  0.00000000000E+00  0.00000000000E+00  0.22505250262E+03  0.22505250262E+03  0.00000000000E+00 0.  1.
         21   -1    0    0  501  503 -0.00000000000E+00 -0.00000000000E+00 -0.25496687769E+03  0.25496687769E+03  0.00000000000E+00 0. -1.
          6    2    1    2  501    0  0.15067553208E+03  0.61682925031E+02  0.10879581661E+02  0.23746371231E+03  0.17251884000E+03 0.  0.
         24    2    3    3    0    0  0.37898091768E+02  0.11198952881E+02  0.56916463192E+02  0.10552104692E+03  0.79583450888E+02 0.  0.
         -6    2    1    2    0  502 -0.15067553208E+03 -0.61682925031E+02 -0.40793956734E+02  0.24255566800E+03  0.17510341505E+03 0.  0.
        -24    2    5    5    0    0 -0.93305912255E+02  0.70184924733E+01  0.34577285280E+02  0.12544857099E+03  0.76069066041E+02 0.  0.
          5    1    3    3  501    0  0.11277744032E+03  0.50483972151E+02 -0.46036881531E+02  0.13194266539E+03  0.47000000000E+01 0. -1.
        -13    1    4    4    0    0  0.24629694863E+02  0.27785629191E+02  0.70939268993E+02  0.80068988653E+02  0.00000000000E+00 0.  1.
         14    1    4    4    0    0  0.13268396905E+02 -0.16586676311E+02 -0.14022805801E+02  0.25452058266E+02  0.00000000000E+00 0. -1.
         -5    1    5    5    0  502 -0.57369619829E+02 -0.68701417504E+02 -0.75371242014E+02  0.11710709701E+03  0.47000000000E+01 0.  1.
         13    1    6    6    0    0 -0.74035602743E+01 -0.14905043763E+01 -0.21313424043E+02  0.22611863092E+02  0.00000000000E+00 0. -1.
        -14    1    6    6    0    0 -0.85902351981E+02  0.85089968496E+01  0.55890709323E+02  0.10283670790E+03  0.00000000000E+00 0.  1.
</event>
<event>
12    1  0.1593360E-001  0.2170454E+03  0.7818608E-02  0.1136205E+00
         21   -1    0    0  503  502  0.00000000000E+00  0.00000000000E+00  0.13976987252E+04  0.13976987252E+04  0.00000000000E+00 0.  1.
         21   -1    0    0  501  503 -0.00000000000E+00 -0.00000000000E+00 -0.41349893080E+02  0.41349893080E+02  0.00000000000E+00 0.  1.
          6    2    1    2  501    0 -0.12826630532E+03  0.24836796529E+02  0.36780323552E+03  0.42706900185E+03  0.17331936055E+03 0.  0.
         24    2    3    3    0    0 -0.11129247375E+02 -0.32350347462E+02  0.15104262586E+03  0.17408933531E+03  0.79516141224E+02 0.  0.
         -6    2    1    2    0  502  0.12826630532E+03 -0.24836796529E+02  0.98854559661E+03  0.10119796164E+04  0.17265930605E+03 0.  0.
        -24    2    5    5    0    0  0.11040374776E+03 -0.79494946409E+02  0.71717009592E+03  0.73453892604E+03  0.81890496199E+02 0.  0.
          5    1    3    3  501    0 -0.11713705795E+03  0.57187143991E+02  0.21676060966E+03  0.25297966654E+03  0.47000000000E+01 0. -1.
        -11    1    4    4    0    0 -0.65464437637E+01  0.54391748223E+01 -0.73137559029E+01  0.11221923815E+02  0.00000000000E+00 0.  1.
         12    1    4    4    0    0 -0.45828036117E+01 -0.37789522284E+02  0.15835638176E+03  0.16286741150E+03  0.00000000000E+00 0. -1.
         -5    1    5    5    0  502  0.17862557559E+02  0.54658149880E+02  0.27137550069E+03  0.27744069040E+03  0.47000000000E+01 0.  1.
         13    1    6    6    0    0  0.56174450587E+02 -0.84430319760E+02  0.39561688593E+03  0.40840760060E+03  0.00000000000E+00 0. -1.
        -14    1    6    6    0    0  0.54229297175E+02  0.49353733513E+01  0.32155320999E+03  0.32613132544E+03  0.00000000000E+00 0.  1.
</event>
<event>
12    1  0.1593360E-001  0.3591732E+03  0.7818608E-02  0.1058930E+00
         21   -1    0    0  503  502  0.00000000000E+00  0.00000000000E+00  0.49685406215E+03  0.49685406215E+03  0.00000000000E+00 0. -1.
         21   -1    0    0  501  503 -0.00000000000E+00 -0.00000000000E+00 -0.39901006088E+03  0.39901006088E+03  0.00000000000E+00 0. -1.
          6    2    1    2  501    0  0.30601307841E+03  0.76430490333E+02 -0.21592431719E+03  0.41908079347E+03  0.17181320291E+03 0.  0.
         24    2    3    3    0    0  0.21035345628E+03  0.11748544067E+03 -0.13778486844E+03  0.28883435127E+03  0.79932516328E+02 0.  0.
         -6    2    1    2    0  502 -0.30601307841E+03 -0.76430490333E+02  0.31376831847E+03  0.47678332955E+03  0.17142392381E+03 0.  0.
        -24    2    5    5    0    0 -0.25327918442E+03 -0.19070706136E+01  0.21735907214E+03  0.34392462099E+03  0.82977084229E+02 0.  0.
          5    1    3    3  501    0  0.95659622139E+02 -0.41054950342E+02 -0.78139448753E+02  0.13024644220E+03  0.47000000000E+01 0. -1.
        -11    1    4    4    0    0  0.32514669557E+02  0.48191042425E+02 -0.95987758134E+01  0.58921276322E+02  0.00000000000E+00 0.  1.
         12    1    4    4    0    0  0.17783878672E+03  0.69294398250E+02 -0.12818609262E+03  0.22991307495E+03  0.00000000000E+00 0. -1.
         -5    1    5    5    0  502 -0.52733893999E+02 -0.74523419719E+02  0.96409246327E+02  0.13285870856E+03  0.47000000000E+01 0.  1.
         11    1    6    6    0    0 -0.16332036628E+03  0.57064252971E+01  0.86377267651E+02  0.18484354925E+03  0.00000000000E+00 0. -1.
        -12    1    6    6    0    0 -0.89958818133E+02 -0.76134959107E+01  0.13098180449E+03  0.15908107174E+03  0.00000000000E+00 0.  1.
</event>
<event>
12    1  0.1593360E-001  0.2165807E+03  0.7818608E-02  0.1136526E+00
         21   -1    0    0  501  502  0.00000000000E+00  0.00000000000E+00  0.17123734036E+03  0.17123734036E+03  0.00000000000E+00 0.  1.
         21   -1    0    0  502  503 -0.00000000000E+00 -0.00000000000E+00 -0.30861650152E+03  0.30861650152E+03  0.00000000000E+00 0.  1.
         -6    2    1    2    0  503 -0.10111569932E+03  0.85020301387E+02 -0.14959337080E+03  0.26292902711E+03  0.17117435677E+03 0.  0.
        -24    2    3    3    0    0 -0.26419663599E+02  0.12776838178E+02 -0.13200975639E+03  0.15743073697E+03  0.80601581504E+02 0.  0.
          6    2    1    2  501    0  0.10111569932E+03 -0.85020301387E+02  0.12214209637E+02  0.21692481476E+03  0.17162270259E+03 0.  0.
         24    2    5    5    0    0  0.12207965438E+03 -0.73933883468E+02  0.50584696273E+02  0.17157307478E+03  0.80677427797E+02 0.  0.
          5    1    5    5  501    0 -0.20963955060E+02 -0.11086417919E+02 -0.38370486636E+02  0.45351739975E+02  0.47000000000E+01 0. -1.
        -13    1    6    6    0    0  0.47511207225E+02 -0.75104404801E+02  0.20831928367E+02  0.91279546844E+02  0.00000000000E+00 0.  1.
         14    1    6    6    0    0  0.74568447153E+02  0.11705213334E+01  0.29752767906E+02  0.80293527940E+02  0.00000000000E+00 0. -1.
         -5    1    3    3    0  503 -0.74696035719E+02  0.72243463209E+02 -0.17583614407E+02  0.10549829015E+03  0.47000000000E+01 0.  1.
         11    1    4    4    0    0  0.22839031447E+02 -0.89893683226E+01 -0.15372317089E+02  0.28960977763E+02  0.00000000000E+00 0. -1.
        -12    1    4    4    0    0 -0.49258695046E+02  0.21766206500E+02 -0.11663743930E+03  0.12846975920E+03  0.00000000000E+00 0.  1.
</event>
<event>
12    1  0.1593360E-001  0.1930097E+03  0.7818608E-02  0.1156077E+00
         21   -1    0    0  501  502  0.00000000000E+00  0.00000000000E+00  0.10135395969E+03  0.10135395969E+03  0.00000000000E+00 0. -1.
         21   -1    0    0  502  503 -0.00000000000E+00 -0.00000000000E+00 -0.36597071053E+03  0.36597071053E+03  0.00000000000E+00 0. -1.
         -6    2    1    2    0  503  0.86927184688E+02  0.15263492812E+02 -0.14414944903E+03  0.23980515295E+03  0.17011213384E+03 0.  0.
        -24    2    3    3    0    0  0.36228552663E+02 -0.13748924182E+02 -0.15414568310E+03  0.18035697111E+03  0.85242034615E+02 0.  0.
          6    2    1    2  501    0 -0.86927184688E+02 -0.15263492812E+02 -0.12046730182E+03  0.22751951726E+03  0.17164920704E+03 0.  0.
         24    2    5    5    0    0 -0.10818705947E+03 -0.50288115862E+02 -0.11834483827E+03  0.18622422278E+03  0.80253510641E+02 0.  0.
          5    1    5    5  501    0  0.21259874780E+02  0.35024623050E+02 -0.21224635459E+01  0.41295294489E+02  0.47000000000E+01 0. -1.
        -11    1    6    6    0    0 -0.49952965434E+02 -0.39468903749E+02 -0.12420322739E+02  0.64864146766E+02  0.00000000000E+00 0.  1.
         12    1    6    6    0    0 -0.58234094033E+02 -0.10819212114E+02 -0.10592451553E+03  0.12136007601E+03  0.00000000000E+00 0. -1.
         -5    1    3    3    0  503  0.50698632025E+02  0.29012416995E+02  0.99962340728E+01  0.59448181845E+02  0.47000000000E+01 0.  1.
         11    1    4    4    0    0 -0.17706204734E+02  0.11420492225E+02 -0.79668763397E+01  0.22525728564E+02  0.00000000000E+00 0. -1.
        -12    1    4    4    0    0  0.53934757396E+02 -0.25169416408E+02 -0.14617880676E+03  0.15783124254E+03  0.00000000000E+00 0.  1.
</event>
<event>
12    1  0.1593360E-001  0.1949283E+03  0.7818608E-02  0.1158592E+00
         21   -1    0    0  501  502  0.00000000000E+00  0.00000000000E+00  0.13325075611E+03  0.13325075611E+03  0.00000000000E+00 0. -1.
         21   -1    0    0  502  503 -0.00000000000E+00 -0.00000000000E+00 -0.28594778555E+03  0.28594778555E+03  0.00000000000E+00 0. -1.
         -6    2    1    2    0  503 -0.28637192104E+01  0.35809663025E+02 -0.13895955575E+03  0.22378677697E+03  0.17169807966E+03 0.  0.
        -24    2    3    3    0    0  0.19919681756E+02  0.49951442244E+02 -0.16155598368E+03  0.18840653058E+03  0.80651996887E+02 0.  0.
          6    2    1    2  501    0  0.28637192104E+01 -0.35809663025E+02 -0.13737473698E+02  0.19541176469E+03  0.19158942231E+03 0.  0.
         24    2    5    5    0    0 -0.43383897025E+02  0.13475505666E+02  0.47313526641E+02  0.10421316546E+03  0.80981863877E+02 0.  0.
          5    1    5    5  501    0  0.46247616235E+02 -0.49285168691E+02 -0.61051000339E+02  0.91198599237E+02  0.47000000000E+01 0. -1.
        -13    1    6    6    0    0 -0.31387064986E+02 -0.11470069420E+02 -0.14543800246E+02  0.36444923741E+02  0.00000000000E+00 0.  1.
         14    1    6    6    0    0 -0.11996832039E+02  0.24945575086E+02  0.61857326887E+02  0.67768241714E+02  0.00000000000E+00 0. -1.
         -5    1    3    3    0  503 -0.22783400967E+02 -0.14141779219E+02  0.22596427926E+02  0.35380246383E+02  0.47000000000E+01 0.  1.
         13    1    4    4    0    0  0.39546293515E+02  0.10811674057E+02 -0.12439821783E+03  0.13097983901E+03  0.00000000000E+00 0. -1.
        -14    1    4    4    0    0 -0.19626611759E+02  0.39139768188E+02 -0.37157765843E+02  0.57426691576E+02  0.00000000000E+00 0.  1.
</event>
<event>
12    1  0.1593360E-001  0.2135843E+03  0.7818608E-02  0.1138867E+00
         21   -1    0    0  503  502  0.00000000000E+00  0.00000000000E+00  0.10855084534E+03  0.10855084534E+03  0.00000000000E+00 0. -1.
         21   -1    0    0  501  503 -0.00000000000E+00 -0.00000000000E+00 -0.46778287752E+03  0.46778287752E+03  0.00000000000E+00 0.  1.
          6    2    1    2  501    0 -0.10290281781E+03  0.70371241612E+02 -0.27232075009E+03  0.34574352955E+03  0.17273938676E+03 0.  0.
         24    2    3    3    0    0 -0.51616049235E+02 -0.22758861788E+02 -0.18278004421E+03  0.20666377977E+03  0.78225257935E+02 0.  0.
         -6    2    1    2    0  502  0.10290281781E+03 -0.70371241612E+02 -0.86911282097E+02  0.23059019331E+03  0.17342769311E+03 0.  0.
        -24    2    5    5    0    0  0.40685457823E+02  0.17667163243E+02  0.55038145118E+00  0.91689533833E+02  0.80244828864E+02 0.  0.
          5    1    3    3  501    0 -0.51286768572E+02  0.93130103400E+02 -0.89540705873E+02  0.13907974978E+03  0.47000000000E+01 0. -1.
        -11    1    4    4    0    0 -0.51589874832E+02 -0.44997255966E+00 -0.17591224767E+03  0.18332167505E+03  0.00000000000E+00 0.  1.
         12    1    4    4    0    0 -0.26174402841E-01 -0.22308889228E+02 -0.68677965386E+01  0.23342104725E+02  0.00000000000E+00 0. -1.
         -5    1    5    5    0  502  0.62217359984E+02 -0.88038404855E+02 -0.87461663548E+02  0.13890065948E+03  0.47000000000E+01 0.  1.
         11    1    6    6    0    0  0.37037677803E+02 -0.23476094271E+02  0.17269942775E+02  0.47129263761E+02  0.00000000000E+00 0. -1.
        -12    1    6    6    0    0  0.36477800205E+01  0.41143257514E+02 -0.16719561324E+02  0.44560270071E+02  0.00000000000E+00 0.  1.
</event>
<event>
12    1  0.1593360E-001  0.2162021E+03  0.7818608E-02  0.1136798E+00
         21   -1    0    0  503  502  0.00000000000E+00  0.00000000000E+00  0.82007215698E+02  0.82007215698E+02  0.00000000000E+00 0. -1.
         21   -1    0    0  501  503 -0.00000000000E+00 -0.00000000000E+00 -0.63133722406E+03  0.63133722406E+03  0.00000000000E+00 0.  1.
          6    2    1    2  501    0 -0.12577690045E+03 -0.37319106505E+02 -0.38633861957E+03  0.44258706693E+03  0.17150288173E+03 0.  0.
         24    2    3    3    0    0 -0.56921139653E+02  0.40619212618E+02 -0.15901870766E+03  0.19256320859E+03  0.83088527166E+02 0.  0.
         -6    2    1    2    0  502  0.12577690045E+03  0.37319106505E+02 -0.16299138879E+03  0.27075737282E+03  0.17184533081E+03 0.  0.
        -24    2    5    5    0    0  0.58068626467E+02  0.10620180798E+02 -0.64827164458E+01  0.98089201125E+02  0.78068637396E+02 0.  0.
          5    1    3    3  501    0 -0.68855760801E+02 -0.77938319123E+02 -0.22731991192E+03  0.25002385833E+03  0.47000000000E+01 0. -1.
        -13    1    4    4    0    0 -0.55105653153E+02  0.52444851824E+01 -0.14365972389E+03  0.15395536335E+03  0.00000000000E+00 0.  1.
         14    1    4    4    0    0 -0.18154865001E+01  0.35374727436E+02 -0.15358983761E+02  0.38607845246E+02  0.00000000000E+00 0. -1.
         -5    1    5    5    0  502  0.67708273987E+02  0.26698925707E+02 -0.15650867234E+03  0.17266817170E+03  0.47000000000E+01 0.  1.
         13    1    6    6    0    0  0.20880585726E+02  0.16617434852E+02  0.33716512222E+02  0.42999316248E+02  0.00000000000E+00 0. -1.
        -14    1    6    6    0    0  0.37188040741E+02 -0.59972540546E+01 -0.40199228668E+02  0.55089884877E+02  0.00000000000E+00 0.  1.
</event>
<event>
12    1  0.1593360E-001  0.1809545E+03  0.7818608E-02  0.1166897E+00
         21   -1    0    0  503  502  0.00000000000E+00  0.00000000000E+00  0.27392060386E+03  0.27392060386E+03  0.00000000000E+00 0.  1.
         21   -1    0    0  501  503 -0.00000000000E+00 -0.00000000000E+00 -0.13163368414E+03  0.13163368414E+03  0.00000000000E+00 0. -1.
          6    2    1    2  501    0  0.55370418655E+02 -0.97926596790E+01  0.95685100735E+01  0.18114684758E+03  0.17193267449E+03 0.  0.
         24    2    3    3    0    0  0.85774853065E+02 -0.52481732753E+02  0.28313459409E+01  0.12809719186E+03  0.79304579632E+02 0.  0.
         -6    2    1    2    0  502 -0.55370418655E+02  0.97926596790E+01  0.13271840965E+03  0.22440744043E+03  0.17199634768E+03 0.  0.
        -24    2    5    5    0    0 -0.78107954661E+02 -0.31905638315E+02  0.46101392913E+02  0.12551183291E+03  0.80678742141E+02 0.  0.
          5    1    3    3  501    0 -0.30404434410E+02  0.42689073074E+02  0.67371641326E+01  0.53049655722E+02  0.47000000000E+01 0. -1.
        -11    1    4    4    0    0  0.83924474338E+02 -0.34191883667E+02  0.29855103204E+02  0.95413465973E+02  0.00000000000E+00 0.  1.
         12    1    4    4    0    0  0.18503787266E+01 -0.18289849086E+02 -0.27023757263E+02  0.32683725884E+02  0.00000000000E+00 0. -1.
         -5    1    5    5    0  502  0.22737536006E+02  0.41698297994E+02  0.86617016733E+02  0.98895607521E+02  0.47000000000E+01 0.  1.
         11    1    6    6    0    0 -0.24537780986E+02 -0.51227204918E+02  0.37133830570E+02  0.67861996671E+02  0.00000000000E+00 0. -1.
        -12    1    6    6    0    0 -0.53570173675E+02  0.19321566603E+02  0.89675623431E+01  0.57649836235E+02  0.00000000000E+00 0.  1.
</event>
<event>
12    1  0.1593360E-001  0.1750713E+03  0.7818608E-02  0.1172928E+00
         21   -1    0    0  503  502  0.00000000000E+00  0.00000000000E+00  0.32482003747E+03  0.32482003747E+03  0.00000000000E+00 0. -1.
         21   -1    0    0  501  503 -0.00000000000E+00 -0.00000000000E+00 -0.11027559212E+03  0.11027559212E+03  0.00000000000E+00 0. -1.
          6    2    1    2  501    0 -0.70072021371E+01  0.26437551103E+02  0.22872036550E+02  0.17550312415E+03  0.17184345068E+03 0.  0.
         24    2    3    3    0    0 -0.49574662965E+02  0.59227552501E+02  0.42663054116E+02  0.11804925318E+03  0.78421551932E+02 0.  0.
         -6    2    1    2    0  502  0.70072021371E+01 -0.26437551103E+02  0.19167240880E+03  0.25959250544E+03  0.17292169209E+03 0.  0.
        -24    2    5    5    0    0 -0.30361668905E+02  0.42516001596E+02  0.12968228716E+03  0.15951308631E+03  0.76795102513E+02 0.  0.
          5    1    3    3  501    0  0.42567460828E+02 -0.32790001398E+02 -0.19791017566E+02  0.57453870969E+02  0.47000000000E+01 0. -1.
        -13    1    4    4    0    0 -0.11305982462E+00  0.57454052848E+02  0.36753974933E+02  0.68204366755E+02  0.00000000000E+00 0.  1.
         14    1    4    4    0    0 -0.49461603141E+02  0.17734996531E+01  0.59090791831E+01  0.49844886428E+02  0.00000000000E+00 0. -1.
         -5    1    5    5    0  502  0.37368871042E+02 -0.68953552699E+02  0.61990121644E+02  0.10007941913E+03  0.47000000000E+01 0.  1.
         11    1    6    6    0    0 -0.54204174076E+01 -0.18218795076E+02  0.63517387807E+02  0.66300557861E+02  0.00000000000E+00 0. -1.
        -12    1    6    6    0    0 -0.24941251497E+02  0.60734796672E+02  0.66164899350E+02  0.93212528445E+02  0.00000000000E+00 0.  1.
</event>
<event>
12    1  0.1593360E-001  0.1849237E+03  0.7818608E-02  0.1166723E+00
         21   -1    0    0  503  502  0.00000000000E+00  0.00000000000E+00  0.24771392469E+03  0.24771392469E+03  0.00000000000E+00 0. -1.
         21   -1    0    0  501  503 -0.00000000000E+00 -0.00000000000E+00 -0.13080067640E+03  0.13080067640E+03  0.00000000000E+00 0. -1.
          6    2    1    2  501    0  0.66205580652E+02 -0.16897448191E+02  0.87219055932E+02  0.19122201057E+03  0.15585246532E+03 0.  0.
         24    2    3    3    0    0  0.85520147494E+02  0.55143825965E+00  0.19304938043E+02  0.11833899788E+03  0.79482312972E+02 0.  0.
         -6    2    1    2    0  502 -0.66205580652E+02  0.16897448191E+02  0.29694192364E+02  0.18729259051E+03  0.17183732638E+03 0.  0.
        -24    2    5    5    0    0 -0.92319201815E+02  0.55806092246E+02  0.37898660431E+02  0.13948875083E+03  0.79897735824E+02 0.  0.
          5    1    3    3  501    0 -0.19314566842E+02 -0.17448886451E+02  0.67914117888E+02  0.72883012693E+02  0.47000000000E+01 0. -1.
        -13    1    4    4    0    0 -0.13591706628E+02  0.10446595202E+02  0.23884860236E+01  0.17308110985E+02  0.00000000000E+00 0.  1.
         14    1    4    4    0    0  0.99111854121E+02 -0.98951569423E+01  0.16916452019E+02  0.10103088690E+03  0.00000000000E+00 0. -1.
         -5    1    5    5    0  502  0.26113621163E+02 -0.38908644055E+02 -0.82044680670E+01  0.47803839686E+02  0.47000000000E+01 0.  1.
         13    1    6    6    0    0 -0.47186964631E+02 -0.15568282982E+02  0.11367897912E+02  0.50972641378E+02  0.00000000000E+00 0. -1.
        -14    1    6    6    0    0 -0.45132237184E+02  0.71374375228E+02  0.26530762519E+02  0.88516109450E+02  0.00000000000E+00 0.  1.
</event>
<event>
12    1  0.1593360E-001  0.1839782E+03  0.7818608E-02  0.1164174E+00
         21   -1    0    0  503  502  0.00000000000E+00  0.00000000000E+00  0.38155872644E+03  0.38155872644E+03  0.00000000000E+00 0. -1.
         21   -1    0    0  501  503 -0.00000000000E+00 -0.00000000000E+00 -0.16385103007E+03  0.16385103007E+03  0.00000000000E+00 0. -1.
          6    2    1    2  501    0 -0.66186972244E+02 -0.10080832395E+02 -0.76351178552E+02  0.19854004275E+03  0.17060570809E+03 0.  0.
         24    2    3    3    0    0  0.17789173006E+02  0.15554631125E+02 -0.56177571926E+00  0.82456910716E+02  0.78996362619E+02 0.  0.
         -6    2    1    2    0  502  0.66186972244E+02  0.10080832395E+02  0.29405887492E+03  0.34686971376E+03  0.17136405086E+03 0.  0.
        -24    2    5    5    0    0  0.37120442072E+02  0.43427558185E+02  0.28507161376E+03  0.30148548566E+03  0.79773385679E+02 0.  0.
          5    1    3    3  501    0 -0.83976145250E+02 -0.25635463520E+02 -0.75789402832E+02  0.11608313203E+03  0.47000000000E+01 0. -1.
        -11    1    4    4    0    0  0.41283096360E+02  0.32742838338E+02 -0.53244061208E+01  0.52959765937E+02  0.00000000000E+00 0.  1.
         12    1    4    4    0    0 -0.23493923354E+02 -0.17188207213E+02  0.47626304015E+01  0.29497144779E+02  0.00000000000E+00 0. -1.
         -5    1    5    5    0  502  0.29066530172E+02 -0.33346725790E+02  0.89872611655E+01  0.45384228102E+02  0.47000000000E+01 0.  1.
         13    1    6    6    0    0  0.28793989474E+02  0.58925405616E+02  0.13188628051E+03  0.14729320502E+03  0.00000000000E+00 0. -1.
        -14    1    6    6    0    0  0.83264525979E+01 -0.15497847430E+02  0.15318533325E+03  0.15419228064E+03  0.00000000000E+00 0.  1.
</event>
<event>
12    1  0.1593360E-001  0.1989086E+03  0.7818608E-02  0.1150823E+00
         21   -1    0    0  503  502  0.00000000000E+00  0.00000000000E+00  0.71983068623E+02  0.71983068623E+02  0.00000000000E+00 0. -1.
         21   -1    0    0  501  503 -0.00000000000E+00 -0.00000000000E+00 -0.65444915151E+03  0.65444915151E+03  0.00000000000E+00 0. -1.
          6    2    1    2  501    0 -0.84769058261E+02 -0.50467363630E+02 -0.43848342778E+03  0.48148970244E+03  0.17271904667E+03 0.  0.
         24    2    3    3    0    0 -0.77661471076E+02 -0.32827471109E+02 -0.14668992873E+03  0.18903933111E+03  0.84314806318E+02 0.  0.
         -6    2    1    2    0  502  0.84769058261E+02  0.50467363630E+02 -0.14398265510E+03  0.24494251769E+03  0.17185192455E+03 0.  0.
        -24    2    5    5    0    0  0.55508346486E+02  0.83104115385E+02 -0.43130831164E+02  0.13487650473E+03  0.79648806687E+02 0.  0.
          5    1    3    3  501    0 -0.71075871850E+01 -0.17639892521E+02 -0.29179349905E+03  0.29245037133E+03  0.47000000000E+01 0. -1.
        -13    1    4    4    0    0 -0.92489408816E+02 -0.39713752893E+02 -0.13711101981E+03  0.17009087179E+03  0.00000000000E+00 0.  1.
         14    1    4    4    0    0  0.14827937739E+02  0.68862817840E+01 -0.95789089200E+01  0.18948459317E+02  0.00000000000E+00 0. -1.
         -5    1    5    5    0  502  0.29260711776E+02 -0.32636751756E+02 -0.10085182394E+03  0.11006601296E+03  0.47000000000E+01 0.  1.
         13    1    6    6    0    0  0.63736896300E+02  0.54609803328E+02 -0.57680395643E+02  0.10184130111E+03  0.00000000000E+00 0. -1.
        -14    1    6    6    0    0 -0.82285498150E+01  0.28494312057E+02  0.14549564479E+02  0.33035203619E+02  0.00000000000E+00 0.  1.
</event>
<event>
12    1  0.1593360E-001  0.2434872E+03  0.7818608E-02  0.1117633E+00
         21   -1    0    0  503  502  0.00000000000E+00  0.00000000000E+00  0.10446638437E+04  0.10446638437E+04  0.00000000000E+00 0.  1.
         21   -1    0    0  501  503 -0.00000000000E+00 -0.00000000000E+00 -0.68266391353E+02  0.68266391353E+02  0.00000000000E+00 0.  1.
          6    2    1    2  501    0 -0.15935431615E+03  0.63270782059E+02  0.25838469263E+03  0.35503331177E+03  0.17288439241E+03 0.  0.
         24    2    3    3    0    0 -0.14052734996E+03 -0.14696220191E+02  0.15822621679E+03  0.22663113741E+03  0.79763536720E+02 0.  0.
         -6    2    1    2    0  502  0.15935431615E+03 -0.63270782059E+02  0.71801275975E+03  0.75789692332E+03  0.17166372149E+03 0.  0.
        -24    2    5    5    0    0  0.50596598069E+02 -0.79442565108E+02  0.44884675084E+03  0.46710112184E+03  0.88594104727E+02 0.  0.
          5    1    3    3  501    0 -0.18826966193E+02  0.77967002250E+02  0.10015847584E+03  0.12840217436E+03  0.47000000000E+01 0. -1.
        -11    1    4    4    0    0 -0.38980838446E+02  0.15793997906E+02  0.80871967377E+01  0.42829416140E+02  0.00000000000E+00 0.  1.
         12    1    4    4    0    0 -0.10154651151E+03 -0.30490218097E+02  0.15013902005E+03  0.18380172127E+03  0.00000000000E+00 0. -1.
         -5    1    5    5    0  502  0.10875771808E+03  0.16171783049E+02  0.26916600891E+03  0.29079580149E+03  0.47000000000E+01 0.  1.
         11    1    6    6    0    0  0.11230734025E+02  0.41279151022E+01  0.21982497258E+03  0.22015037506E+03  0.00000000000E+00 0. -1.
        -12    1    6    6    0    0  0.39365864045E+02 -0.83570480211E+02  0.22902177826E+03  0.24695074678E+03  0.00000000000E+00 0.  1.
</event>
<event>
12    1  0.1593360E-001  0.2574648E+03  0.7818608E-02  0.1108944E+00
         21   -1    0    0  503  502  0.00000000000E+00  0.00000000000E+00  0.19108299985E+03  0.19108299985E+03  0.00000000000E+00 0. -1.
         21   -1    0    0  501  503 -0.00000000000E+00 -0.00000000000E+00 -0.42928198093E+03  0.42928198093E+03  0.00000000000E+00 0. -1.
          6    2    1    2  501    0 -0.21725218518E+02  0.18973216337E+03  0.18379230532E+02  0.25812001992E+03  0.17267851525E+03 0.  0.
         24    2    3    3    0    0  0.32362784728E+01  0.20204575757E+03 -0.11129175114E+02  0.21728453366E+03  0.79093289083E+02 0.  0.
         -6    2    1    2    0  502  0.21725218518E+02 -0.18973216337E+03 -0.25657821161E+03  0.36224496086E+03  0.17005515003E+03 0.  0.
        -24    2    5    5    0    0 -0.15140858339E+02 -0.78290197264E+02 -0.20558861413E+03  0.23418072508E+03  0.78837384291E+02 0.  0.
          5    1    3    3  501    0 -0.24961496991E+02 -0.12313594200E+02  0.29508405647E+02  0.40835486258E+02  0.47000000000E+01 0. -1.
        -13    1    4    4    0    0  0.39530039041E+01  0.84232513247E+01  0.19165757934E+02  0.21305015370E+02  0.00000000000E+00 0.  1.
         14    1    4    4    0    0 -0.71672543138E+00  0.19362250625E+03 -0.30294933048E+02  0.19597951829E+03  0.00000000000E+00 0. -1.
         -5    1    5    5    0  502  0.36866076857E+02 -0.11144196611E+03 -0.50989597486E+02  0.12806423578E+03  0.47000000000E+01 0.  1.
         13    1    6    6    0    0  0.21784685635E+02 -0.58180566866E+01 -0.15332143337E+02  0.27267140135E+02  0.00000000000E+00 0. -1.
        -14    1    6    6    0    0 -0.36925543974E+02 -0.72472140577E+02 -0.19025647079E+03  0.20691358495E+03  0.00000000000E+00 0.  1.
</event>
<event>
12    1  0.1593360E-001  0.2495650E+03  0.7818608E-02  0.1113608E+00
         21   -1    0    0  501  502  0.00000000000E+00  0.00000000000E+00  0.15919590552E+04  0.15919590552E+04  0.00000000000E+00 0.  1.
         21   -1    0    0  502  503 -0.00000000000E+00 -0.00000000000E+00 -0.42055627353E+02  0.42055627353E+02  0.00000000000E+00 0. -1.
         -6    2    1    2    0  503  0.27665323788E+02 -0.17833100872E+03  0.55795604283E+03  0.61115481834E+03  0.17212770677E+03 0.  0.
        -24    2    3    3    0    0 -0.16370153414E+02 -0.18018745426E+03  0.38854423575E+03  0.43604051275E+03  0.80182323691E+02 0.  0.
          6    2    1    2  501    0 -0.27665323788E+02  0.17833100872E+03  0.99194738502E+03  0.10228598642E+04  0.17238146179E+03 0.  0.
         24    2    5    5    0    0  0.17274593473E+01  0.18449700247E+03  0.67353410504E+03  0.70299885995E+03  0.80728423822E+02 0.  0.
          5    1    5    5  501    0 -0.29392783136E+02 -0.61659937474E+01  0.31841327998E+03  0.31986100426E+03  0.47000000000E+01 0. -1.
        -13    1    6    6    0    0 -0.28509709625E+02  0.22630916796E+02  0.10719281120E+03  0.11320450835E+03  0.00000000000E+00 0.  1.
         14    1    6    6    0    0  0.30237168972E+02  0.16186608567E+03  0.56634129384E+03  0.58979435160E+03  0.00000000000E+00 0. -1.
         -5    1    3    3    0  503  0.44035477202E+02  0.18564455385E+01  0.16941180709E+03  0.17511430559E+03  0.47000000000E+01 0.  1.
         11    1    4    4    0    0 -0.41968731930E+02 -0.51071555221E+02  0.13848198117E+03  0.15345011346E+03  0.00000000000E+00 0. -1.
        -12    1    4    4    0    0  0.25598578516E+02 -0.12911589904E+03  0.25006225458E+03  0.28259039929E+03  0.00000000000E+00 0.  1.
</event>
<event>
12    1  0.1593360E-001  0.1861321E+03  0.7818608E-02  0.1162207E+00
         21   -1    0    0  503  502  0.00000000000E+00  0.00000000000E+00  0.46328304736E+03  0.46328304736E+03  0.00000000000E+00 0.  1.
         21   -1    0    0  501  503 -0.00000000000E+00 -0.00000000000E+00 -0.77602180667E+02  0.77602180667E+02  0.00000000000E+00 0.  1.
          6    2    1    2  501    0  0.34021394560E+02  0.61556454481E+02  0.13851701473E+03  0.23201751443E+03  0.17233256006E+03 0.  0.
         24    2    3    3    0    0  0.78666064803E+02  0.48528161151E+02  0.13874033885E+03  0.18527328610E+03  0.80833017654E+02 0.  0.
         -6    2    1    2    0  502 -0.34021394560E+02 -0.61556454481E+02  0.24716385197E+03  0.30886771360E+03  0.17135531042E+03 0.  0.
        -24    2    5    5    0    0 -0.64721755379E+02 -0.34421592599E+02  0.74136175813E+02  0.13099281487E+03  0.79304434469E+02 0.  0.
          5    1    3    3  501    0 -0.44644670243E+02  0.13028293330E+02 -0.22332412095E+00  0.46744228326E+02  0.47000000000E+01 0. -1.
        -13    1    4    4    0    0  0.41650944668E+02  0.30789909605E+02  0.13568829541E+02  0.53543747164E+02  0.00000000000E+00 0.  1.
         14    1    4    4    0    0  0.37015120134E+02  0.17738251545E+02  0.12517150931E+03  0.13172953894E+03  0.00000000000E+00 0. -1.
         -5    1    5    5    0  502  0.30700360818E+02 -0.27134861882E+02  0.17302767615E+03  0.17787489873E+03  0.47000000000E+01 0.  1.
         13    1    6    6    0    0 -0.10771179784E+02  0.10130847058E+02  0.57095391782E+02  0.58979116124E+02  0.00000000000E+00 0. -1.
        -14    1    6    6    0    0 -0.53950575594E+02 -0.44552439657E+02  0.17040784031E+02  0.72013698744E+02  0.00000000000E+00 0.  1.
</event>
<event>
12    1  0.1593360E-001  0.1946071E+03  0.7818608E-02  0.1154448E+00
         21   -1    0    0  503  502  0.00000000000E+00  0.00000000000E+00  0.77531810079E+02  0.77531810079E+02  0.00000000000E+00 0. -1.
         21   -1    0    0  501  503 -0.00000000000E+00 -0.00000000000E+00 -0.64662685836E+03  0.64662685836E+03  0.00000000000E+00 0.  1.
          6    2    1    2  501    0  0.17236442302E+02 -0.88637642081E+02 -0.46431918734E+03  0.50345230757E+03  0.17238965088E+03 0.  0.
         24    2    3    3    0    0 -0.55636261987E+02 -0.73411891924E+02 -0.32363118519E+03  0.34421205372E+03  0.72526508074E+02 0.  0.
         -6    2    1    2    0  502 -0.17236442302E+02  0.88637642081E+02 -0.10477586094E+03  0.22070636087E+03  0.17198718021E+03 0.  0.
        -24    2    5    5    0    0 -0.42088227078E+02  0.46443444858E+02 -0.12027426601E+02  0.11571910660E+03  0.96528960491E+02 0.  0.
          5    1    3    3  501    0  0.72872704289E+02 -0.15225750157E+02 -0.14068800215E+03  0.15924025385E+03  0.47000000000E+01 0. -1.
        -13    1    4    4    0    0  0.36781312049E+01 -0.51680900389E+02 -0.17988797712E+03  0.18720077037E+03  0.00000000000E+00 0.  1.
         14    1    4    4    0    0 -0.59314393192E+02 -0.21730991535E+02 -0.14374320808E+03  0.15701128335E+03  0.00000000000E+00 0. -1.
         -5    1    5    5    0  502  0.24851784776E+02  0.42194197222E+02 -0.92748434343E+02  0.10498725427E+03  0.47000000000E+01 0.  1.
         11    1    6    6    0    0 -0.18077390390E+02  0.45969273311E+02  0.36604585293E+02  0.61480580646E+02  0.00000000000E+00 0. -1.
        -12    1    6    6    0    0 -0.24010836688E+02  0.47417154759E+00 -0.48632011895E+02  0.54238525957E+02  0.00000000000E+00 0.  1.
</event>
<event>
12    1  0.1593360E-001  0.2440257E+03  0.7818608E-02  0.1118237E+00
         21   -1    0    0  501  502  0.00000000000E+00  0.00000000000E+00  0.61445001816E+03  0.61445001816E+03  0.00000000000E+00 0.  1.
         21   -1    0    0  502  503 -0.00000000000E+00 -0.00000000000E+00 -0.12087785665E+03  0.12087785665E+03  0.00000000000E+00 0.  1.
         -6    2    1    2    0  503 -0.12838259100E+03 -0.10627865346E+03  0.42183228373E+03  0.48733047760E+03  0.17824499138E+03 0.  0.
        -24    2    3    3    0    0 -0.47085247822E+02 -0.58239117525E+02  0.56336457548E+02  0.10980386400E+03  0.57221296104E+02 0.  0.
          6    2    1    2  501    0  0.12838259100E+03  0.10627865346E+03  0.71739877781E+02  0.24799739720E+03  0.16905282342E+03 0.  0.
         24    2    5    5    0    0  0.33323939985E+02  0.11046954371E+03  0.28245434258E+02  0.14327124330E+03  0.80092693410E+02 0.  0.
          5    1    5    5  501    0  0.95058651013E+02 -0.41908902542E+01  0.43494443523E+02  0.10472615390E+03  0.47000000000E+01 0. -1.
        -11    1    6    6    0    0  0.30857895748E+02  0.80157021616E+02 -0.18157720776E+02  0.87789866546E+02  0.00000000000E+00 0.  1.
         12    1    6    6    0    0  0.24660442369E+01  0.30312522095E+02  0.46403155034E+02  0.55481376759E+02  0.00000000000E+00 0. -1.
         -5    1    3    3    0  503 -0.81297343176E+02 -0.48039535931E+02  0.36549582618E+03  0.37752661360E+03  0.47000000000E+01 0.  1.
         13    1    4    4    0    0 -0.24957333349E+02 -0.29352023089E+02 -0.46284651046E+01  0.38805056842E+02  0.00000000000E+00 0. -1.
        -14    1    4    4    0    0 -0.22127914473E+02 -0.28887094436E+02  0.60964922652E+02  0.70998807158E+02  0.00000000000E+00 0.  1.
</event>
<event>
12    1  0.1593360E-001  0.1851029E+03  0.7818608E-02  0.1163465E+00
         21   -1    0    0  503  502  0.00000000000E+00  0.00000000000E+00  0.34711118885E+02  0.34711118885E+02  0.00000000000E+00 0.  1.
         21   -1    0    0  501  503 -0.00000000000E+00 -0.00000000000E+00 -0.11537191550E+04  0.11537191550E+04  0.00000000000E+00 0. -1.
          6    2    1    2  501    0  0.62452886138E+02  0.28018676384E+02 -0.79023786845E+03  0.81113343304E+03  0.16963533903E+03 0.  0.
         24    2    3    3    0    0  0.16740748386E+02  0.39498052157E+02 -0.72235509689E+03  0.72835942576E+03  0.82886780077E+02 0.  0.
         -6    2    1    2    0  502 -0.62452886138E+02 -0.28018676384E+02 -0.32877016771E+03  0.37729684090E+03  0.17198160878E+03 0.  0.
        -24    2    5    5    0    0 -0.46199316949E+02 -0.38835433665E+02 -0.83095755115E+02  0.13080305242E+03  0.81005964043E+02 0.  0.
          5    1    3    3  501    0  0.45712137752E+02 -0.11479375773E+02 -0.67882771556E+02  0.82774007273E+02  0.47000000000E+01 0. -1.
        -13    1    4    4    0    0  0.46191876649E+02  0.13813096251E+02 -0.26598262446E+03  0.27031693919E+03  0.00000000000E+00 0.  1.
         14    1    4    4    0    0 -0.29451128263E+02  0.25684955906E+02 -0.45637247243E+03  0.45804248658E+03  0.00000000000E+00 0. -1.
         -5    1    5    5    0  502 -0.16253569189E+02  0.10816757281E+02 -0.24567441260E+03  0.24649378847E+03  0.47000000000E+01 0.  1.
         11    1    6    6    0    0 -0.44606734887E+02 -0.20368117788E+02 -0.96285547571E+02  0.10805335576E+03  0.00000000000E+00 0. -1.
        -12    1    6    6    0    0 -0.15925820626E+01 -0.18467315877E+02  0.13189792456E+02  0.22749696666E+02  0.00000000000E+00 0.  1.
</event>
<event>
12    1  0.1593360E-001  0.1903154E+03  0.7818608E-02  0.1158658E+00
         21   -1    0    0  501  502  0.00000000000E+00  0.00000000000E+00  0.44981648865E+02  0.44981648865E+02  0.00000000000E+00 0. -1.
         21   -1    0    0  502  503 -0.00000000000E+00 -0.00000000000E+00 -0.12895565391E+04  0.12895565391E+04  0.00000000000E+00 0. -1.
         -6    2    1    2    0  503 -0.72546793976E+02  0.88303230735E+01 -0.10371407025E+04  0.10544575721E+04  0.17572399589E+03 0.  0.
        -24    2    3    3    0    0 -0.38776743736E+01 -0.52245754330E+02 -0.64647713225E+03  0.65310255431E+03  0.76587262084E+02 0.  0.
          6    2    1    2  501    0  0.72546793976E+02 -0.88303230735E+01 -0.20743418770E+03  0.28008061579E+03  0.17342202050E+03 0.  0.
         24    2    5    5    0    0  0.73341170474E+02 -0.61407777829E+02 -0.14785128416E+03  0.20047388130E+03  0.95811963717E+02 0.  0.
          5    1    5    5  501    0 -0.79437649870E+00  0.52577454755E+02 -0.59582903544E+02  0.79606734497E+02  0.47000000000E+01 0. -1.
        -11    1    6    6    0    0  0.24372763094E+02 -0.78078675498E+02 -0.10628190229E+03  0.13411246736E+03  0.00000000000E+00 0.  1.
         12    1    6    6    0    0  0.48968407380E+02  0.16670897669E+02 -0.41569381871E+02  0.66361413936E+02  0.00000000000E+00 0. -1.
         -5    1    3    3    0  503 -0.68669119602E+02  0.61076077403E+02 -0.39066357025E+03  0.40135501783E+03  0.47000000000E+01 0.  1.
         11    1    4    4    0    0 -0.35610398119E+02 -0.73283753573E+01 -0.31543655707E+03  0.31752484481E+03  0.00000000000E+00 0. -1.
        -12    1    4    4    0    0  0.31732723746E+02 -0.44917378973E+02 -0.33104057519E+03  0.33557770949E+03  0.00000000000E+00 0.  1.
</event>
<event>
12    1  0.1593360E-001  0.2482408E+03  0.7818608E-02  0.1115431E+00
         21   -1    0    0  503  502  0.00000000000E+00  0.00000000000E+00  0.94333099113E+03  0.94333099113E+03  0.00000000000E+00 0. -1.
         21   -1    0    0  501  503 -0.00000000000E+00 -0.00000000000E+00 -0.66015759767E+02  0.66015759767E+02  0.00000000000E+00 0.  1.
          6    2    1    2  501    0  0.47059850537E+02 -0.17252984230E+03  0.53873124376E+03  0.59317354101E+03  0.17216945354E+03 0.  0.
         24    2    3    3    0    0  0.43832353934E+01 -0.44139777109E+02  0.10591382187E+03  0.13967788170E+03  0.79527607138E+02 0.  0.
         -6    2    1    2    0  502 -0.47059850537E+02  0.17252984230E+03  0.33858398761E+03  0.41617320989E+03  0.16303327252E+03 0.  0.
        -24    2    5    5    0    0 -0.52651663747E+02  0.31325123172E+02  0.13323833407E+03  0.16685620585E+03  0.79593207789E+02 0.  0.
          5    1    3    3  501    0  0.42676615144E+02 -0.12839006520E+03  0.43281742189E+03  0.45349565931E+03  0.47000000000E+01 0. -1.
        -13    1    4    4    0    0 -0.29586949510E+02  0.57931072920E+01  0.42498892587E+02  0.52106655472E+02  0.00000000000E+00 0.  1.
         14    1    4    4    0    0  0.33970184903E+02 -0.49932884401E+02  0.63414929287E+02  0.87571226230E+02  0.00000000000E+00 0. -1.
         -5    1    5    5    0  502  0.55918132098E+01  0.14120471913E+03  0.20534565353E+03  0.24931700404E+03  0.47000000000E+01 0.  1.
         11    1    6    6    0    0 -0.47798180975E+02  0.45874120929E+02  0.13599454505E+03  0.15127332005E+03  0.00000000000E+00 0. -1.
        -12    1    6    6    0    0 -0.48534827722E+01 -0.14548997757E+02 -0.27562109792E+01  0.15582885796E+02  0.00000000000E+00 0.  1.
</event>
<event>
12    1  0.1593360E-001  0.2905213E+03  0.7818608E-02  0.1090231E+00
         21   -1    0    0  501  502  0.00000000000E+00  0.00000000000E+00  0.75567982245E+03  0.75567982245E+03  0.00000000000E+00 0. -1.
         21   -1    0    0  502  503 -0.00000000000E+00 -0.00000000000E+00 -0.18421605128E+03  0.18421605128E+03  0.00000000000E+00 0.  1.
         -6    2    1    2    0  503  0.23279134510E+03  0.15532371308E+02 -0.10406040098E+02  0.28953052672E+03  0.17113320929E+03 0.  0.
        -24    2    3    3    0    0  0.24834692818E+03  0.52118230768E+01 -0.28720896789E+02  0.26295960546E+03  0.81360336475E+02 0.  0.
          6    2    1    2  501    0 -0.23279134510E+03 -0.15532371308E+02  0.58186981127E+03  0.65036534702E+03  0.17311713499E+03 0.  0.
         24    2    5    5    0    0 -0.23737823481E+03  0.22179721693E+02  0.51357631447E+03  0.57207528877E+03  0.81664795464E+02 0.  0.
          5    1    5    5  501    0  0.45868897176E+01 -0.37712093002E+02  0.68293496796E+02  0.78290058248E+02  0.47000000000E+01 0. -1.
        -13    1    6    6    0    0 -0.16753844195E+02  0.20476852733E+02  0.26936349032E+02  0.37756584754E+02  0.00000000000E+00 0.  1.
         14    1    6    6    0    0 -0.22062439062E+03  0.17028689607E+01  0.48663996544E+03  0.53431870402E+03  0.00000000000E+00 0. -1.
         -5    1    3    3    0  503 -0.15555583090E+02  0.10320548232E+02  0.18314856691E+02  0.26570921261E+02  0.47000000000E+01 0.  1.
         13    1    4    4    0    0  0.10459879000E+03 -0.23612207981E+01  0.27892221596E+02  0.10827953758E+03  0.00000000000E+00 0. -1.
        -14    1    4    4    0    0  0.14374813819E+03  0.75730438748E+01 -0.56613118384E+02  0.15468006788E+03  0.00000000000E+00 0.  1.
</event>
<event>
12    1  0.1593360E-001  0.2865459E+03  0.7818608E-02  0.1092226E+00
         21   -1    0    0  501  502  0.00000000000E+00  0.00000000000E+00  0.79526155588E+03  0.79526155588E+03  0.00000000000E+00 0. -1.
         21   -1    0    0  502  503 -0.00000000000E+00 -0.00000000000E+00 -0.22089446622E+03  0.22089446622E+03  0.00000000000E+00 0. -1.
         -6    2    1    2    0  503  0.12111593193E+03 -0.19404388166E+03 -0.83966612940E+02  0.29816452206E+03  0.17184176777E+03 0.  0.
        -24    2    3    3    0    0  0.12816496107E+03 -0.18472381365E+03 -0.11527064932E+03  0.26442159431E+03  0.77989181098E+02 0.  0.
          6    2    1    2  501    0 -0.12111593193E+03  0.19404388166E+03  0.65833370261E+03  0.71799150004E+03  0.17258746526E+03 0.  0.
         24    2    5    5    0    0 -0.55736024416E+02  0.42885168576E+02  0.13288816959E+03  0.16732046665E+03  0.73425001477E+02 0.  0.
          5    1    5    5  501    0 -0.65379907513E+02  0.15115871308E+03  0.52544553302E+03  0.55067103339E+03  0.47000000000E+01 0. -1.
        -13    1    6    6    0    0 -0.19726703683E+01 -0.17985704745E+02  0.40208081796E+02  0.44091573405E+02  0.00000000000E+00 0.  1.
         14    1    6    6    0    0 -0.53763354047E+02  0.60870873321E+02  0.92680087795E+02  0.12322889325E+03  0.00000000000E+00 0. -1.
         -5    1    3    3    0  503 -0.70490291379E+01 -0.93200680118E+01  0.31304036381E+02  0.33742927752E+02  0.47000000000E+01 0.  1.
         13    1    4    4    0    0  0.63772105740E+02 -0.12781271455E+03 -0.10622774728E+03  0.17800928561E+03  0.00000000000E+00 0. -1.
        -14    1    4    4    0    0  0.64392855327E+02 -0.56911099098E+02 -0.90429020433E+01  0.86412308701E+02  0.00000000000E+00 0.  1.
</event>
<event>
12    1  0.1593360E-001  0.1865787E+03  0.7818608E-02  0.1162204E+00
         21   -1    0    0  503  502  0.00000000000E+00  0.00000000000E+00  0.98965882032E+02  0.98965882032E+02  0.00000000000E+00 0. -1.
         21   -1    0    0  501  503 -0.00000000000E+00 -0.00000000000E+00 -0.53068598542E+03  0.53068598542E+03  0.00000000000E+00 0. -1.
          6    2    1    2  501    0 -0.33246962004E+02  0.62880011134E+02 -0.40019084909E+03  0.44042795952E+03  0.16960193260E+03 0.  0.
         24    2    3    3    0    0 -0.83804795542E+02  0.65912307479E+02 -0.27913253847E+03  0.30911728240E+03  0.79188662155E+02 0.  0.
         -6    2    1    2    0  502  0.33246962004E+02 -0.62880011134E+02 -0.31529254295E+02  0.18922390794E+03  0.17248865811E+03 0.  0.
        -24    2    5    5    0    0  0.79516288165E+02 -0.37903357456E+02  0.21060784995E+02  0.11470890270E+03  0.70392265946E+02 0.  0.
          5    1    3    3  501    0  0.50557833538E+02 -0.30322963451E+01 -0.12105831063E+03  0.13131067712E+03  0.47000000000E+01 0. -1.
        -11    1    4    4    0    0 -0.37800611365E+02 -0.44682336866E+01 -0.38167376314E+02  0.53903617193E+02  0.00000000000E+00 0.  1.
         12    1    4    4    0    0 -0.46004184177E+02  0.70380541166E+02 -0.24096516215E+03  0.25521366520E+03  0.00000000000E+00 0. -1.
         -5    1    5    5    0  502 -0.46269326161E+02 -0.24976653678E+02 -0.52590039290E+02  0.74515005233E+02  0.47000000000E+01 0.  1.
         13    1    6    6    0    0 -0.30922690463E+01 -0.28119604571E+02  0.13000582335E+02  0.31133413403E+02  0.00000000000E+00 0. -1.
        -14    1    6    6    0    0  0.82608557211E+02 -0.97837528854E+01  0.80602026604E+01  0.83575489301E+02  0.00000000000E+00 0.  1.
</event>
<event>
12    1  0.1593360E-001  0.1996522E+03  0.7818608E-02  0.1150299E+00
         21   -1    0    0  503  502  0.00000000000E+00  0.00000000000E+00  0.66634757706E+03  0.66634757706E+03  0.00000000000E+00 0. -1.
         21   -1    0    0  501  503 -0.00000000000E+00 -0.00000000000E+00 -0.59465535330E+02  0.59465535330E+02  0.00000000000E+00 0. -1.
          6    2    1    2  501    0 -0.40184903960E+02 -0.93677759579E+02  0.30918034189E+03  0.36736188161E+03  0.17021139534E+03 0.  0.
         24    2    3    3    0    0 -0.83746933441E+02 -0.48830047444E+02  0.12861276896E+03  0.17621872560E+03  0.71511345375E+02 0.  0.
         -6    2    1    2    0  502  0.40184903960E+02  0.93677759579E+02  0.29770169984E+03  0.35845123078E+03  0.17167013023E+03 0.  0.
        -24    2    5    5    0    0  0.48034621147E+02  0.11530655020E+03  0.30013533173E+03  0.33484116497E+03  0.80215104915E+02 0.  0.
          5    1    3    3  501    0  0.43562029481E+02 -0.44847712136E+02  0.18056757293E+03  0.19114315602E+03  0.47000000000E+01 0. -1.
        -13    1    4    4    0    0 -0.11973018852E+02  0.16546900204E+02  0.39347922945E+02  0.44332968848E+02  0.00000000000E+00 0.  1.
         14    1    4    4    0    0 -0.71773914589E+02 -0.65376947648E+02  0.89264846014E+02  0.13188575675E+03  0.00000000000E+00 0. -1.
         -5    1    5    5    0  502 -0.78497171872E+01 -0.21628790620E+02 -0.24336318887E+01  0.23610065814E+02  0.47000000000E+01 0.  1.
         11    1    6    6    0    0 -0.21947839483E+02  0.39821783638E+02  0.95835512170E+02  0.10607510312E+03  0.00000000000E+00 0. -1.
        -12    1    6    6    0    0  0.69982460631E+02  0.75484766561E+02  0.20429981956E+03  0.22876606184E+03  0.00000000000E+00 0.  1.
</event>
<event>
12    1  0.1593360E-001  0.2186632E+03  0.7818608E-02  0.1135075E+00
         21   -1    0    0  503  502  0.00000000000E+00  0.00000000000E+00  0.14314060739E+03  0.14314060739E+03  0.00000000000E+00 0.  1.
         21   -1    0    0  501  503 -0.00000000000E+00 -0.00000000000E+00 -0.55323466290E+03  0.55323466290E+03  0.00000000000E+00 0.  1.
          6    2    1    2  501    0 -0.27758402241E+02  0.13253262246E+03 -0.42527541997E+03  0.47819743584E+03  0.17169210785E+03 0.  0.
         24    2    3    3    0    0  0.48308490994E+02  0.51656488514E+02 -0.19668106295E+03  0.22402310324E+03  0.80627583090E+02 0.  0.
         -6    2    1    2    0  502  0.27758402241E+02 -0.13253262246E+03  0.15181364457E+02  0.21817783445E+03  0.17039855841E+03 0.  0.
        -24    2    5    5    0    0  0.52392534614E+01 -0.11353892946E+01  0.26488966319E+02  0.84303651711E+02  0.79854251418E+02 0.  0.
          5    1    3    3  501    0 -0.76066893235E+02  0.80876133945E+02 -0.22859435702E+03  0.25417433260E+03  0.47000000000E+01 0. -1.
        -13    1    4    4    0    0 -0.11253565905E+02  0.21030587934E+02 -0.11939936765E+03  0.12175852073E+03  0.00000000000E+00 0.  1.
         14    1    4    4    0    0  0.59562056899E+02  0.30625900580E+02 -0.77281695301E+02  0.10226458251E+03  0.00000000000E+00 0. -1.
         -5    1    5    5    0  502  0.22519148779E+02 -0.13139723316E+03 -0.11307601862E+02  0.13387418274E+03  0.47000000000E+01 0.  1.
         13    1    6    6    0    0 -0.33576878128E+01 -0.37946119939E+02  0.26669230853E+02  0.46501935015E+02  0.00000000000E+00 0. -1.
        -14    1    6    6    0    0  0.85969412742E+01  0.36810730645E+02 -0.18026453409E+00  0.37801716696E+02  0.00000000000E+00 0.  1.
</event>
<event>
12    1  0.1593360E-001  0.1788068E+03  0.7818608E-02  0.1169318E+00
         21   -1    0    0  501  502  0.00000000000E+00  0.00000000000E+00  0.99093744138E+02  0.99093744138E+02  0.00000000000E+00 0.  1.
         21   -1    0    0  502  503 -0.00000000000E+00 -0.00000000000E+00 -0.62357092408E+03  0.62357092408E+03  0.00000000000E+00 0.  1.
         -6    2    1    2    0  503 -0.46046782748E+02 -0.11249899158E+02 -0.51488364067E+03  0.54504772337E+03  0.17240937009E+03 0.  0.
        -24    2    3    3    0    0  0.18955917428E+02 -0.54434164043E+02 -0.34389164891E+03  0.35703021619E+03  0.76724859462E+02 0.  0.
          6    2    1    2  501    0  0.46046782748E+02  0.11249899158E+02 -0.95935392783E+01  0.17761694485E+03  0.17090604632E+03 0.  0.
         24    2    5    5    0    0 -0.27974040817E+02  0.27776687067E+02 -0.34781946445E+02  0.97562195485E+02  0.82185807080E+02 0.  0.
          5    1    5    5  501    0  0.74020823566E+02 -0.16526787908E+02  0.25188407167E+02  0.80054749363E+02  0.47000000000E+01 0. -1.
        -13    1    6    6    0    0  0.16279837352E+02 -0.17056243761E+02  0.35153854673E+01  0.23839179735E+02  0.00000000000E+00 0.  1.
         14    1    6    6    0    0 -0.44253878170E+02  0.44832930828E+02 -0.38297331913E+02  0.73723015750E+02  0.00000000000E+00 0. -1.
         -5    1    3    3    0  503 -0.65002700176E+02  0.43184264885E+02 -0.17099199176E+03  0.18801750719E+03  0.47000000000E+01 0.  1.
         11    1    4    4    0    0  0.46005112460E+02 -0.17979410520E+02 -0.15118057815E+03  0.15904495209E+03  0.00000000000E+00 0. -1.
        -12    1    4    4    0    0 -0.27049195032E+02 -0.36454753524E+02 -0.19271107076E+03  0.19798526410E+03  0.00000000000E+00 0.  1.
</event>
<event>
12    1  0.1593360E-001  0.2175643E+03  0.7818608E-02  0.1135811E+00
         21   -1    0    0  503  502  0.00000000000E+00  0.00000000000E+00  0.79210075799E+03  0.79210075799E+03  0.00000000000E+00 0. -1.
         21   -1    0    0  501  503 -0.00000000000E+00 -0.00000000000E+00 -0.14493122570E+03  0.14493122570E+03  0.00000000000E+00 0. -1.
          6    2    1    2  501    0 -0.32186767411E+02  0.12832458510E+03 -0.36044879992E+02  0.22001303835E+03  0.17205614355E+03 0.  0.
         24    2    3    3    0    0  0.27009013076E+01  0.13151716061E+02 -0.32022669287E+01  0.95182487504E+02  0.94176371297E+02 0.  0.
         -6    2    1    2    0  502  0.32186767411E+02 -0.12832458510E+03  0.68321441228E+03  0.71701894534E+03  0.17271666883E+03 0.  0.
        -24    2    5    5    0    0  0.44562343631E+01 -0.10534718723E+03  0.66042685966E+03  0.67414347648E+03  0.84781495825E+02 0.  0.
          5    1    3    3  501    0 -0.34887668718E+02  0.11517286904E+03 -0.32842613064E+02  0.12483055084E+03  0.47000000000E+01 0. -1.
        -13    1    4    4    0    0  0.76587449036E+01 -0.32589249728E+02 -0.27343385276E+02  0.43224718503E+02  0.00000000000E+00 0.  1.
         14    1    4    4    0    0 -0.49578435960E+01  0.45740965789E+02  0.24141118348E+02  0.51957769000E+02  0.00000000000E+00 0. -1.
         -5    1    5    5    0  502  0.27730533047E+02 -0.22977397866E+02  0.22787552623E+02  0.42875468864E+02  0.47000000000E+01 0.  1.
         13    1    6    6    0    0  0.39889713351E+02 -0.24311775973E+02  0.21385450459E+03  0.21889723803E+03  0.00000000000E+00 0. -1.
        -14    1    6    6    0    0 -0.35433478988E+02 -0.81035411260E+02  0.44657235507E+03  0.45524623845E+03  0.00000000000E+00 0.  1.
</event>
<event>
12    1  0.1593360E-001  0.1772707E+03  0.7818608E-02  0.1171421E+00
         21   -1    0    0  501  502  0.00000000000E+00  0.00000000000E+00  0.38170000576E+03  0.38170000576E+03  0.00000000000E+00 0. -1.
         21   -1    0    0  502  503 -0.00000000000E+00 -0.00000000000E+00 -0.14306144167E+03  0.14306144167E+03  0.00000000000E+00 0. -1.
         -6    2    1    2    0  503 -0.42443463661E+02 -0.59582375148E+01 -0.54813707687E+02  0.18192165938E+03  0.16808926021E+03 0.  0.
        -24    2    3    3    0    0 -0.82227272753E+02  0.21500012004E+02 -0.62472872030E+02  0.13275398981E+03  0.80605131167E+02 0.  0.
          6    2    1    2  501    0  0.42443463661E+02  0.59582375148E+01  0.29345227178E+03  0.34283978805E+03  0.17201144222E+03 0.  0.
         24    2    5    5    0    0  0.63774681279E+00  0.64156841868E+02  0.20238111045E+03  0.22686202322E+03  0.79948462346E+02 0.  0.
          5    1    5    5  501    0  0.41805716848E+02 -0.58198604354E+02  0.91071161329E+02  0.11597776483E+03  0.47000000000E+01 0. -1.
        -13    1    6    6    0    0 -0.22298413387E+02  0.59987574313E+01  0.11094124940E+02  0.25618039318E+02  0.00000000000E+00 0.  1.
         14    1    6    6    0    0  0.22936160200E+02  0.58158084437E+02  0.19128698551E+03  0.20124398390E+03  0.00000000000E+00 0. -1.
         -5    1    3    3    0  503  0.39783809092E+02 -0.27458249518E+02  0.76591643424E+01  0.49167669569E+02  0.47000000000E+01 0.  1.
         11    1    4    4    0    0 -0.19086474364E+02  0.44058131329E+02 -0.38513035820E+02  0.61552143487E+02  0.00000000000E+00 0. -1.
        -12    1    4    4    0    0 -0.63140798389E+02 -0.22558119325E+02 -0.23959836210E+02  0.71201846324E+02  0.00000000000E+00 0.  1.
</event>
<event>
12    1  0.1593360E-001  0.2184179E+03  0.7818608E-02  0.1135516E+00
         21   -1    0    0  501  502  0.00000000000E+00  0.00000000000E+00  0.11215338102E+04  0.11215338102E+04  0.00000000000E+00 0. -1.
         21   -1    0    0  502  503 -0.00000000000E+00 -0.00000000000E+00 -0.12110831039E+03  0.12110831039E+03  0.00000000000E+00 0. -1.
         -6    2    1    2    0  503 -0.30997237917E+02 -0.12680633759E+03 -0.75066711127E+00  0.21841922216E+03  0.17511629592E+03 0.  0.
        -24    2    3    3    0    0 -0.93181334667E+01 -0.47561432454E+02  0.63587774712E+02  0.11396222787E+03  0.81210016747E+02 0.  0.
          6    2    1    2  501    0  0.30997237917E+02  0.12680633759E+03  0.10011761670E+04  0.10242228985E+04  0.17215734796E+03 0.  0.
         24    2    5    5    0    0  0.23221972524E+01  0.25028488249E+02  0.23398597656E+03  0.24976575517E+03  0.83676026451E+02 0.  0.
          5    1    5    5  501    0  0.28675040664E+02  0.10177784934E+03  0.76719019040E+03  0.77445714331E+03  0.47000000000E+01 0. -1.
        -11    1    6    6    0    0 -0.32233177262E+02  0.75376992824E+00  0.40715623791E+02  0.51935613082E+02  0.00000000000E+00 0.  1.
         12    1    6    6    0    0  0.34555374514E+02  0.24274718321E+02  0.19327035277E+03  0.19783014209E+03  0.00000000000E+00 0. -1.
         -5    1    3    3    0  503 -0.21679104450E+02 -0.79244905140E+02 -0.64338441823E+02  0.10445699429E+03  0.47000000000E+01 0.  1.
         13    1    4    4    0    0 -0.17972373540E+02 -0.52872235523E+02  0.67791767526E+01  0.56253326456E+02  0.00000000000E+00 0. -1.
        -14    1    4    4    0    0  0.86542400733E+01  0.53108030691E+01  0.56808597959E+02  0.57708901415E+02  0.00000000000E+00 0.  1.
</event>
<event>
12    1  0.1593360E-001  0.2300616E+03  0.7818608E-02  0.1128539E+00
         21   -1    0    0  501  502  0.00000000000E+00  0.00000000000E+00  0.94933799007E+02  0.94933799007E+02  0.00000000000E+00 0.  1.
         21   -1    0    0  502  503 -0.00000000000E+00 -0.00000000000E+00 -0.53275822413E+03  0.53275822413E+03  0.00000000000E+00 0.  1.
         -6    2    1    2    0  503 -0.14196677338E+03  0.55092361063E+02 -0.23777385537E+03  0.33085456012E+03  0.17244883491E+03 0.  0.
        -24    2    3    3    0    0 -0.31876052988E+02 -0.10018637445E+02 -0.54744687731E+02  0.10751362108E+03  0.86288713239E+02 0.  0.
          6    2    1    2  501    0  0.14196677338E+03 -0.55092361063E+02 -0.20005056975E+03  0.29683746302E+03  0.15780531044E+03 0.  0.
         24    2    5    5    0    0  0.85679363958E+02 -0.81437589588E+02 -0.18427176602E+03  0.23254590702E+03  0.78412248504E+02 0.  0.
          5    1    5    5  501    0  0.56287409423E+02  0.26345228525E+02 -0.15778803738E+02  0.64291556001E+02  0.47000000000E+01 0. -1.
        -11    1    6    6    0    0  0.90787871561E+02 -0.88934628211E+02 -0.18380241521E+03  0.22346170490E+03  0.00000000000E+00 0.  1.
         12    1    6    6    0    0 -0.51085076030E+01  0.74970386228E+01 -0.46935080261E+00  0.90842021233E+01  0.00000000000E+00 0. -1.
         -5    1    3    3    0  503 -0.11009072039E+03  0.65110998508E+02 -0.18302916764E+03  0.22334093904E+03  0.47000000000E+01 0.  1.
         11    1    4    4    0    0 -0.24932468854E+00  0.36143697049E+02 -0.16480212020E+02  0.39724380264E+02  0.00000000000E+00 0. -1.
        -12    1    4    4    0    0 -0.31626728299E+02 -0.46162334494E+02 -0.38264475711E+02  0.67789240815E+02  0.00000000000E+00 0.  1.
</event>
<event>
12    1  0.1593360E-001  0.2340129E+03  0.7818608E-02  0.1125832E+00
         21   -1    0    0  503  502  0.00000000000E+00  0.00000000000E+00  0.61326874946E+03  0.61326874946E+03  0.00000000000E+00 0. -1.
         21   -1    0    0  501  503 -0.00000000000E+00 -0.00000000000E+00 -0.13434901380E+03  0.13434901380E+03  0.00000000000E+00 0.  1.
          6    2    1    2  501    0 -0.12958995211E+03 -0.60333099848E+02  0.16814875847E+02  0.23461618505E+03  0.18527918289E+03 0.  0.
         24    2    3    3    0    0 -0.13474037033E+03  0.15779950268E+00 -0.23051602721E+02  0.16183499362E+03  0.86626765346E+02 0.  0.
         -6    2    1    2    0  502  0.12958995211E+03  0.60333099848E+02  0.46210485981E+03  0.51300157821E+03  0.17086860204E+03 0.  0.
        -24    2    5    5    0    0  0.89988467731E+02 -0.25266910095E+02  0.20525453262E+03  0.23934153391E+03  0.80116200761E+02 0.  0.
          5    1    3    3  501    0  0.51504182248E+01 -0.60490899351E+02  0.39866478569E+02  0.72781191428E+02  0.47000000000E+01 0. -1.
        -11    1    4    4    0    0 -0.44773987733E+02  0.38331832209E+02 -0.25149351806E+02  0.64082206846E+02  0.00000000000E+00 0.  1.
         12    1    4    4    0    0 -0.89966382600E+02 -0.38174032706E+02  0.20977490845E+01  0.97752786776E+02  0.00000000000E+00 0. -1.
         -5    1    5    5    0  502  0.39601484377E+02  0.85600009943E+02  0.25685032719E+03  0.27366004430E+03  0.47000000000E+01 0.  1.
         13    1    6    6    0    0  0.20989409325E+02  0.22868373064E+02  0.99357663477E+02  0.10409353045E+03  0.00000000000E+00 0. -1.
        -14    1    6    6    0    0  0.68999058406E+02 -0.48135283159E+02  0.10589686914E+03  0.13524800346E+03  0.00000000000E+00 0.  1.
</event>
<event>
12    1  0.1593360E-001  0.1897942E+03  0.7818608E-02  0.1159711E+00
         21   -1    0    0  501  502  0.00000000000E+00  0.00000000000E+00  0.36455235773E+03  0.36455235773E+03  0.00000000000E+00 0.  1.
         21   -1    0    0  502  503 -0.00000000000E+00 -0.00000000000E+00 -0.14308223825E+03  0.14308223825E+03  0.00000000000E+00 0. -1.
         -6    2    1    2    0  503 -0.21271975573E+02 -0.64248399857E+02 -0.33302968812E+02  0.19269383856E+03  0.17731743811E+03 0.  0.
        -24    2    3    3    0    0 -0.47007983394E+02 -0.10432382484E+03 -0.26010046565E+02  0.14428249174E+03  0.83950604330E+02 0.  0.
          6    2    1    2  501    0  0.21271975573E+02  0.64248399857E+02  0.25477308829E+03  0.31494075741E+03  0.17233107768E+03 0.  0.
         24    2    5    5    0    0 -0.55962717378E+02  0.43060203424E+02  0.13531018204E+03  0.17103935563E+03  0.77198503597E+02 0.  0.
          5    1    5    5  501    0  0.77234692951E+02  0.21188196433E+02  0.11946290625E+03  0.14390140178E+03  0.47000000000E+01 0. -1.
        -13    1    6    6    0    0 -0.21203864090E+02  0.61076713488E+02  0.94368663637E+02  0.11439149208E+03  0.00000000000E+00 0.  1.
         14    1    6    6    0    0 -0.34758853288E+02 -0.18016510063E+02  0.40941518400E+02  0.56647863558E+02  0.00000000000E+00 0. -1.
         -5    1    3    3    0  503  0.25736007821E+02  0.40075424987E+02 -0.72929222471E+01  0.48411346824E+02  0.47000000000E+01 0.  1.
         11    1    4    4    0    0 -0.27353890714E+02 -0.58900752238E+02  0.28267453539E+02  0.70827839732E+02  0.00000000000E+00 0. -1.
        -12    1    4    4    0    0 -0.19654092679E+02 -0.45423072606E+02 -0.54277500104E+02  0.73454652007E+02  0.00000000000E+00 0.  1.
</event>
<event>
12    1  0.1593360E-001  0.1763580E+03  0.7818608E-02  0.1171533E+00
         21   -1    0    0  501  502  0.00000000000E+00  0.00000000000E+00  0.33127501282E+03  0.33127501282E+03  0.00000000000E+00 0. -1.
         21   -1    0    0  502  503 -0.00000000000E+00 -0.00000000000E+00 -0.25231960263E+03  0.25231960263E+03  0.00000000000E+00 0. -1.
         -6    2    1    2    0  503 -0.28972422904E-01 -0.31894397390E+02 -0.19196419783E+03  0.26067681284E+03  0.17344997574E+03 0.  0.
        -24    2    3    3    0    0  0.64237775130E+02 -0.21617175224E+02 -0.14848475120E+03  0.18226515290E+03  0.81111470234E+02 0.  0.
          6    2    1    2  501    0  0.28972422904E-01  0.31894397390E+02  0.27091960801E+03  0.32291780260E+03  0.17280399245E+03 0.  0.
         24    2    5    5    0    0 -0.97377139799E+01 -0.41732470295E+02  0.20196889535E+03  0.22146537738E+03  0.80119014818E+02 0.  0.
          5    1    5    5  501    0  0.97666864028E+01  0.73626867685E+02  0.68950712658E+02  0.10145242523E+03  0.47000000000E+01 0. -1.
        -13    1    6    6    0    0 -0.33318301290E+02 -0.19668742659E+01  0.35628011140E+02  0.48819391362E+02  0.00000000000E+00 0.  1.
         14    1    6    6    0    0  0.23580587310E+02 -0.39765596029E+02  0.16634088421E+03  0.17264598601E+03  0.00000000000E+00 0. -1.
         -5    1    3    3    0  503 -0.64266747553E+02 -0.10277222165E+02 -0.43479446627E+02  0.78411659946E+02  0.47000000000E+01 0.  1.
         13    1    4    4    0    0  0.33547480315E+01 -0.29763416042E+02 -0.98862667086E+02  0.10330025272E+03  0.00000000000E+00 0. -1.
        -14    1    4    4    0    0  0.60883027099E+02  0.81462408172E+01 -0.49622084115E+02  0.78964900178E+02  0.00000000000E+00 0.  1.
</event>
<event>
12    1  0.1593360E-001  0.1892204E+03  0.7818608E-02  0.1159219E+00
         21   -1    0    0  501  502  0.00000000000E+00  0.00000000000E+00  0.12089377853E+03  0.12089377853E+03  0.00000000000E+00 0. -1.
         21   -1    0    0  502  503 -0.00000000000E+00 -0.00000000000E+00 -0.39614963113E+03  0.39614963113E+03  0.00000000000E+00 0. -1.
         -6    2    1    2    0  503 -0.61815928630E+02 -0.47491957459E+02 -0.26780648478E+03  0.32790955116E+03  0.17241712618E+03 0.  0.
        -24    2    3    3    0    0 -0.27372434778E+02 -0.33848403743E+02 -0.27470375208E+03  0.28993372829E+03  0.81880710623E+02 0.  0.
          6    2    1    2  501    0  0.61815928630E+02  0.47491957459E+02 -0.74493678240E+01  0.18913385850E+03  0.17216105336E+03 0.  0.
         24    2    5    5    0    0 -0.27721218487E+02  0.21585200358E+02 -0.32714162740E+02  0.92446420642E+02  0.79004667057E+02 0.  0.
          5    1    5    5  501    0  0.89537147118E+02  0.25906757101E+02  0.25264794916E+02  0.96687437858E+02  0.47000000000E+01 0. -1.
        -11    1    6    6    0    0 -0.31483468725E+01  0.30428132722E+02  0.17935208675E+02  0.35460612787E+02  0.00000000000E+00 0.  1.
         12    1    6    6    0    0 -0.24572871615E+02 -0.88429323643E+01 -0.50649371414E+02  0.56985807855E+02  0.00000000000E+00 0. -1.
         -5    1    3    3    0  503 -0.34443493852E+02 -0.13643553717E+02  0.68972672997E+01  0.37975822874E+02  0.47000000000E+01 0.  1.
         13    1    4    4    0    0  0.67033543731E+01 -0.31923580436E+02 -0.35122731409E+02  0.47933873298E+02  0.00000000000E+00 0. -1.
        -14    1    4    4    0    0 -0.34075789152E+02 -0.19248233073E+01 -0.23958102067E+03  0.24199985499E+03  0.00000000000E+00 0.  1.
</event>
<event>
12    1  0.1593360E-001  0.1820145E+03  0.7818608E-02  0.1166131E+00
         21   -1    0    0  503  502  0.00000000000E+00  0.00000000000E+00  0.11520330174E+04  0.11520330174E+04  0.00000000000E+00 0.  1.
         21   -1    0    0  501  503 -0.00000000000E+00 -0.00000000000E+00 -0.45367867133E+02  0.45367867133E+02  0.00000000000E+00 0. -1.
          6    2    1    2  501    0 -0.22340755016E+01 -0.57335182342E+02  0.19023572343E+03  0.26328485620E+03  0.17273381488E+03 0.  0.
         24    2    3    3    0    0 -0.44549305838E+02 -0.40522672506E+02  0.19311140113E+03  0.21741985072E+03  0.79703516866E+02 0.  0.
         -6    2    1    2    0  502  0.22340755016E+01  0.57335182342E+02  0.91642942680E+03  0.93411602830E+03  0.17157373284E+03 0.  0.
        -24    2    5    5    0    0 -0.23996062008E+02  0.94039053580E+02  0.50655434582E+03  0.52173893596E+03  0.78708687211E+02 0.  0.
          5    1    3    3  501    0  0.42315230336E+02 -0.16812509836E+02 -0.28756776986E+01  0.45865005479E+02  0.47000000000E+01 0. -1.
        -13    1    4    4    0    0 -0.57419194420E+02 -0.27570314056E+02  0.77225365050E+02  0.10010416131E+03  0.00000000000E+00 0.  1.
         14    1    4    4    0    0  0.12869888582E+02 -0.12952358451E+02  0.11588603608E+03  0.11731568941E+03  0.00000000000E+00 0. -1.
         -5    1    5    5    0  502  0.26230137509E+02 -0.36703871238E+02  0.40987508098E+03  0.41237709234E+03  0.47000000000E+01 0.  1.
         11    1    6    6    0    0 -0.41644480130E+02  0.25189845572E+02  0.13641406675E+03  0.14483642032E+03  0.00000000000E+00 0. -1.
        -12    1    6    6    0    0  0.17648418123E+02  0.68849208008E+02  0.37014027907E+03  0.37690251564E+03  0.00000000000E+00 0.  1.
</event>
<event>
12    1  0.1593360E-001  0.2015275E+03  0.7818608E-02  0.1148731E+00
         21   -1    0    0  503  502  0.00000000000E+00  0.00000000000E+00  0.70384327589E+02  0.70384327589E+02  0.00000000000E+00 0.  1.
         21   -1    0    0  501  503 -0.00000000000E+00 -0.00000000000E+00 -0.58669400896E+03  0.58669400896E+03  0.00000000000E+00 0. -1.
          6    2    1    2  501    0  0.41408008986E+02  0.96102012373E+02 -0.20930804534E+03  0.29055672040E+03  0.17222987527E+03 0.  0.
         24    2    3    3    0    0  0.34056384668E+02  0.43841071171E+01 -0.17082272324E+03  0.19070968468E+03  0.77528854780E+02 0.  0.
         -6    2    1    2    0  502 -0.41408008986E+02 -0.96102012373E+02 -0.30700163603E+03  0.36652161615E+03  0.17069818566E+03 0.  0.
        -24    2    5    5    0    0  0.37980914853E+00 -0.46534393295E+00 -0.20944496688E+03  0.22358111177E+03  0.78236555339E+02 0.  0.
          5    1    3    3  501    0  0.73516243181E+01  0.91717905256E+02 -0.38485322098E+02  0.99847035718E+02  0.47000000000E+01 0. -1.
        -11    1    4    4    0    0  0.46387318996E+02  0.61213824286E+01 -0.47199555125E+02  0.66460910997E+02  0.00000000000E+00 0.  1.
         12    1    4    4    0    0 -0.12330934328E+02 -0.17372753114E+01 -0.12362316812E+03  0.12424877368E+03  0.00000000000E+00 0. -1.
         -5    1    5    5    0  502 -0.41787818135E+02 -0.95636668440E+02 -0.97556669151E+02  0.14294050437E+03  0.47000000000E+01 0.  1.
         13    1    6    6    0    0 -0.33838395158E+02 -0.92460270494E+01 -0.15317927053E+03  0.15714456696E+03  0.00000000000E+00 0. -1.
        -14    1    6    6    0    0  0.34218204306E+02  0.87806831165E+01 -0.56265696344E+02  0.66436544815E+02  0.00000000000E+00 0.  1.
</event>
<event>
12    1  0.1593360E-001  0.2020419E+03  0.7818608E-02  0.1148174E+00
         21   -1    0    0  501  502  0.00000000000E+00  0.00000000000E+00  0.24937496682E+03  0.24937496682E+03  0.00000000000E+00 0.  1.
         21   -1    0    0  502  503 -0.00000000000E+00 -0.00000000000E+00 -0.30982013391E+03  0.30982013391E+03  0.00000000000E+00 0.  1.
         -6    2    1    2    0  503  0.77443401290E+02  0.69046783592E+02 -0.22258701176E+03  0.30013734262E+03  0.17254711791E+03 0.  0.
        -24    2    3    3    0    0  0.30495619979E+02  0.84279673906E+02 -0.68342935766E+02  0.13812049134E+03  0.79833996440E+02 0.  0.
          6    2    1    2  501    0 -0.77443401290E+02 -0.69046783592E+02  0.16214184468E+03  0.25905775811E+03  0.17336667936E+03 0.  0.
         24    2    5    5    0    0  0.22120809731E+02 -0.53640767126E+01  0.47995248314E+02  0.94679977576E+02  0.78375064599E+02 0.  0.
          5    1    5    5  501    0 -0.99564211021E+02 -0.63682706879E+02  0.11414659636E+03  0.16437778053E+03  0.47000000000E+01 0. -1.
        -11    1    6    6    0    0  0.16030810454E+02  0.28053392866E+02  0.51219752167E+02  0.60559415017E+02  0.00000000000E+00 0.  1.
         12    1    6    6    0    0  0.60899992773E+01 -0.33417469579E+02 -0.32245038527E+01  0.34120562559E+02  0.00000000000E+00 0. -1.
         -5    1    3    3    0  503  0.46947781312E+02 -0.15232890315E+02 -0.15424407600E+03  0.16201685128E+03  0.47000000000E+01 0.  1.
         11    1    4    4    0    0  0.31462172134E+02  0.38232792412E+02 -0.76717570162E+02  0.91308270504E+02  0.00000000000E+00 0. -1.
        -12    1    4    4    0    0 -0.96655215544E+00  0.46046881494E+02  0.83746343955E+01  0.46812220837E+02  0.00000000000E+00 0.  1.
</event>
<event>
12    1  0.1593360E-001  0.2035880E+03  0.7818608E-02  0.1146807E+00
         21   -1    0    0  501  502  0.00000000000E+00  0.00000000000E+00  0.11322627356E+04  0.11322627356E+04  0.00000000000E+00 0. -1.
         21   -1    0    0  502  503 -0.00000000000E+00 -0.00000000000E+00 -0.39243086693E+02  0.39243086693E+02  0.00000000000E+00 0. -1.
         -6    2    1    2    0  503 -0.36558798921E+02  0.10070667987E+03  0.39354238462E+03  0.44308426984E+03  0.17311753390E+03 0.  0.
        -24    2    3    3    0    0 -0.19697848912E+02  0.83677371728E+02  0.10534602073E+03  0.15385508195E+03  0.71997877520E+02 0.  0.
          6    2    1    2  501    0  0.36558798921E+02 -0.10070667987E+03  0.69947726424E+03  0.72842155241E+03  0.17277480622E+03 0.  0.
         24    2    5    5    0    0 -0.13134037508E+02 -0.12311431294E+03  0.50696423932E+03  0.52828451241E+03  0.82110590744E+02 0.  0.
          5    1    5    5  501    0  0.49692836429E+02  0.22407633069E+02  0.19251302492E+03  0.20013703999E+03  0.47000000000E+01 0. -1.
        -13    1    6    6    0    0  0.15679959929E+02  0.50754300920E+01  0.42152135743E+02  0.45259514819E+02  0.00000000000E+00 0.  1.
         14    1    6    6    0    0 -0.28813997437E+02 -0.12818974303E+03  0.46481210358E+03  0.48302499759E+03  0.00000000000E+00 0. -1.
         -5    1    3    3    0  503 -0.16860950009E+02  0.17029308142E+02  0.28819636389E+03  0.28922918789E+03  0.47000000000E+01 0.  1.
         13    1    4    4    0    0 -0.45411389452E+02  0.50649588490E+02  0.79624587559E+02  0.10472654893E+03  0.00000000000E+00 0. -1.
        -14    1    4    4    0    0  0.25713540540E+02  0.33027783237E+02  0.25721433171E+02  0.49128533024E+02  0.00000000000E+00 0.  1.
</event>
<event>
12    1  0.1593360E-001  0.1881566E+03  0.7818608E-02  0.1160479E+00
         21   -1    0    0  501  502  0.00000000000E+00  0.00000000000E+00  0.68604265143E+02  0.68604265143E+02  0.00000000000E+00 0.  1.
         21   -1    0    0  502  503 -0.00000000000E+00 -0.00000000000E+00 -0.52233464248E+03  0.52233464248E+03  0.00000000000E+00 0. -1.
         -6    2    1    2    0  503 -0.35928222834E+02  0.67222430379E+02 -0.18427207201E+03  0.26228909374E+03  0.17038098436E+03 0.  0.
        -24    2    3    3    0    0  0.36715475681E+02  0.25875511691E+01 -0.10621883382E+03  0.13751260342E+03  0.79199456226E+02 0.  0.
          6    2    1    2  501    0  0.35928222834E+02 -0.67222430379E+02 -0.26945830533E+03  0.32864981389E+03  0.17202682789E+03 0.  0.
         24    2    5    5    0    0  0.89030807830E+02 -0.52599357510E+02 -0.21364344021E+03  0.25009341401E+03  0.78803673970E+02 0.  0.
          5    1    5    5  501    0 -0.53102584996E+02 -0.14623072870E+02 -0.55814865121E+02  0.78556399879E+02  0.47000000000E+01 0. -1.
        -11    1    6    6    0    0 -0.99161636466E+01 -0.25579227460E+02 -0.46245787666E+02  0.53770810444E+02  0.00000000000E+00 0.  1.
         12    1    6    6    0    0  0.98946971477E+02 -0.27020130050E+02 -0.16739765254E+03  0.19632260356E+03  0.00000000000E+00 0. -1.
         -5    1    3    3    0  503 -0.72643698516E+02  0.64634879210E+02 -0.78053238190E+02  0.12477649032E+03  0.47000000000E+01 0.  1.
         13    1    4    4    0    0  0.57455526266E+02  0.19167986026E+02 -0.69326935736E+02  0.92058531410E+02  0.00000000000E+00 0. -1.
        -14    1    4    4    0    0 -0.20740050585E+02 -0.16580434857E+02 -0.36891898081E+02  0.45454072011E+02  0.00000000000E+00 0.  1.
</event>
<event>
12    1  0.1593360E-001  0.2018325E+03  0.7818608E-02  0.1149838E+00
         21   -1    0    0  503  502  0.00000000000E+00  0.00000000000E+00  0.52103613177E+03  0.52103613177E+03  0.00000000000E+00 0. -1.
         21   -1    0    0  501  503 -0.00000000000E+00 -0.00000000000E+00 -0.96771540110E+02  0.96771540110E+02  0.00000000000E+00 0. -1.
          6    2    1    2  501    0 -0.37066518667E+02  0.82001786598E+02  0.63220664230E+02  0.20417850817E+03  0.17202845986E+03 0.  0.
         24    2    3    3    0    0 -0.87315170991E+02  0.81923092172E+02  0.40001944732E+02  0.14862554076E+03  0.78447840422E+02 0.  0.
         -6    2    1    2    0  502  0.37066518667E+02 -0.82001786598E+02  0.36104392743E+03  0.41362916371E+03  0.18066031032E+03 0.  0.
        -24    2    5    5    0    0  0.68637323478E+02 -0.36876091752E+02  0.33444282500E+03  0.35228788314E+03  0.78637275471E+02 0.  0.
          5    1    3    3  501    0  0.50248652324E+02  0.78694426172E-01  0.23218719499E+02  0.55552967413E+02  0.47000000000E+01 0. -1.
        -11    1    4    4    0    0  0.16828764476E+00  0.17092939061E+02  0.35784049697E+02  0.39657220013E+02  0.00000000000E+00 0.  1.
         12    1    4    4    0    0 -0.87483458636E+02  0.64830153111E+02  0.42178950354E+01  0.10896832074E+03  0.00000000000E+00 0. -1.
         -5    1    5    5    0  502 -0.31570804811E+02 -0.45125694847E+02  0.26601102428E+02  0.61341280572E+02  0.47000000000E+01 0.  1.
         11    1    6    6    0    0  0.11062850812E+02  0.14941269028E+02  0.16423282095E+03  0.16528172212E+03  0.00000000000E+00 0. -1.
        -12    1    6    6    0    0  0.57574472666E+02 -0.51817360780E+02  0.17021000405E+03  0.18700616102E+03  0.00000000000E+00 0.  1.
</event>
<event>
12    1  0.1593360E-001  0.1787901E+03  0.7818608E-02  0.1169689E+00
         21   -1    0    0  503  502  0.00000000000E+00  0.00000000000E+00  0.55476731527E+02  0.55476731527E+02  0.00000000000E+00 0. -1.
         21   -1    0    0  501  503 -0.00000000000E+00 -0.00000000000E+00 -0.85983968024E+03  0.85983968024E+03  0.00000000000E+00 0. -1.
          6    2    1    2  501    0  0.95427963965E+01  0.33440960889E+02 -0.67143745576E+03  0.69483389607E+03  0.17537537824E+03 0.  0.
         24    2    3    3    0    0  0.14602314687E+02  0.43950841452E+02 -0.67529402058E+03  0.68168021191E+03  0.80752665716E+02 0.  0.
         -6    2    1    2    0  502 -0.95427963965E+01 -0.33440960889E+02 -0.13292549295E+03  0.22048251570E+03  0.17243546684E+03 0.  0.
        -24    2    5    5    0    0 -0.69253884334E+02 -0.36305655065E+02 -0.10861783353E+03  0.15577878473E+03  0.79718222040E+02 0.  0.
          5    1    3    3  501    0 -0.50595182906E+01 -0.10509880563E+02  0.38565648142E+01  0.13153684158E+02  0.47000000000E+01 0. -1.
        -11    1    4    4    0    0 -0.10245818336E+02  0.66555508072E+01 -0.12883613299E+02  0.17755580575E+02  0.00000000000E+00 0.  1.
         12    1    4    4    0    0  0.24848133023E+02  0.37295290645E+02 -0.66241040728E+03  0.66392463133E+03  0.00000000000E+00 0. -1.
         -5    1    5    5    0  502  0.59711087937E+02  0.28646941758E+01 -0.24307659417E+02  0.64703730972E+02  0.47000000000E+01 0.  1.
         11    1    6    6    0    0 -0.35418043407E+02  0.23805824391E+02 -0.42552688361E+02  0.60265133871E+02  0.00000000000E+00 0. -1.
        -12    1    6    6    0    0 -0.33835840926E+02 -0.60111479456E+02 -0.66065145173E+02  0.95513650858E+02  0.00000000000E+00 0.  1.
</event>
<event>
12    1  0.1593360E-001  0.1800827E+03  0.7818608E-02  0.1169912E+00
         21   -1    0    0  501  502  0.00000000000E+00  0.00000000000E+00  0.11414436488E+03  0.11414436488E+03  0.00000000000E+00 0. -1.
         21   -1    0    0  502  503 -0.00000000000E+00 -0.00000000000E+00 -0.54178910428E+03  0.54178910428E+03  0.00000000000E+00 0. -1.
         -6    2    1    2    0  503  0.45302641843E+02  0.20742788286E+02 -0.44323700694E+03  0.47517697653E+03  0.16386434049E+03 0.  0.
        -24    2    3    3    0    0  0.73877232447E+02 -0.28758133385E+02 -0.27309736234E+03  0.29563189267E+03  0.80815660230E+02 0.  0.
          6    2    1    2  501    0 -0.45302641843E+02 -0.20742788286E+02  0.15592267533E+02  0.18075649264E+03  0.17305258796E+03 0.  0.
         24    2    5    5    0    0 -0.50211806532E+02 -0.54408441858E+02 -0.38348634906E+02  0.11680974069E+03  0.81807051411E+02 0.  0.
          5    1    5    5  501    0  0.49091646887E+01  0.33665653572E+02  0.53940902439E+02  0.63946751945E+02  0.47000000000E+01 0. -1.
        -11    1    6    6    0    0  0.18654983947E+02  0.28407508083E+01 -0.15412104531E+02  0.24364138755E+02  0.00000000000E+00 0.  1.
         12    1    6    6    0    0 -0.68866790478E+02 -0.57249192666E+02 -0.22936530375E+02  0.92445601936E+02  0.00000000000E+00 0. -1.
         -5    1    3    3    0  503 -0.28574590604E+02  0.49500921671E+02 -0.17013964459E+03  0.17954508386E+03  0.47000000000E+01 0.  1.
         13    1    4    4    0    0  0.57429926395E+02  0.19309750919E+02 -0.12189994848E+03  0.13612736817E+03  0.00000000000E+00 0. -1.
        -14    1    4    4    0    0  0.16447306052E+02 -0.48067884304E+02 -0.15119741387E+03  0.15950452451E+03  0.00000000000E+00 0.  1.
</event>
<event>
12    1  0.1593360E-001  0.2010654E+03  0.7818608E-02  0.1149369E+00
         21   -1    0    0  503  502  0.00000000000E+00  0.00000000000E+00  0.78109421693E+03  0.78109421693E+03  0.00000000000E+00 0.  1.
         21   -1    0    0  501  503 -0.00000000000E+00 -0.00000000000E+00 -0.88914151426E+02  0.88914151426E+02  0.00000000000E+00 0. -1.
          6    2    1    2  501    0 -0.89585882210E+02  0.46989325824E+02  0.63716655718E+02  0.21091967868E+03  0.17376326311E+03 0.  0.
         24    2    3    3    0    0 -0.39199217268E+02  0.75710473367E+02  0.90809828235E+02  0.14673361854E+03  0.77560785792E+02 0.  0.
         -6    2    1    2    0  502  0.89585882210E+02 -0.46989325824E+02  0.62846340979E+03  0.65908868968E+03  0.17087427069E+03 0.  0.
        -24    2    5    5    0    0  0.70723027274E+02  0.31577535235E+02  0.28227903057E+03  0.30356896678E+03  0.80459798500E+02 0.  0.
          5    1    3    3  501    0 -0.50386664942E+02 -0.28721147543E+02 -0.27093172517E+02  0.64186060147E+02  0.47000000000E+01 0. -1.
        -11    1    4    4    0    0 -0.41182201936E+02  0.17115566566E+01  0.31369173992E+02  0.51796990834E+02  0.00000000000E+00 0.  1.
         12    1    4    4    0    0  0.19829846685E+01  0.73998916710E+02  0.59440654242E+02  0.94936627701E+02  0.00000000000E+00 0. -1.
         -5    1    5    5    0  502  0.18862854937E+02 -0.78566861058E+02  0.34618437922E+03  0.35551972290E+03  0.47000000000E+01 0.  1.
         11    1    6    6    0    0  0.57269015379E+02 -0.85316275112E+01  0.22518157506E+03  0.23250649568E+03  0.00000000000E+00 0. -1.
        -12    1    6    6    0    0  0.13454011894E+02  0.40109162746E+02  0.57097455514E+02  0.71062471097E+02  0.00000000000E+00 0.  1.
</event>
<event>
12    1  0.1593360E-001  0.2272718E+03  0.7818608E-02  0.1128650E+00
         21   -1    0    0  501  502  0.00000000000E+00  0.00000000000E+00  0.18982857547E+04  0.18982857547E+04  0.00000000000E+00 0.  1.
         21   -1    0    0  502  503 -0.00000000000E+00 -0.00000000000E+00 -0.55990598380E+02  0.55990598380E+02  0.00000000000E+00 0.  1.
         -6    2    1    2    0  503  0.37390009683E+02  0.14380931656E+03  0.21956423729E+03  0.31570743520E+03  0.17141644608E+03 0.  0.
        -24    2    3    3    0    0  0.83666273674E+01  0.13674950053E+03  0.88322089774E+02  0.18102711366E+03  0.78737525934E+02 0.  0.
          6    2    1    2  501    0 -0.37390009683E+02 -0.14380931656E+03  0.16227309190E+04  0.16385689179E+04  0.17196898192E+03 0.  0.
         24    2    5    5    0    0  0.67112958814E+01 -0.16124950767E+03  0.12974087104E+04  0.13097745827E+04  0.78699748860E+02 0.  0.
          5    1    5    5  501    0 -0.44101305564E+02  0.17440191115E+02  0.32532220860E+03  0.32879433515E+03  0.47000000000E+01 0. -1.
        -11    1    6    6    0    0 -0.10239930943E+02 -0.10835098861E+03  0.10765593858E+04  0.10820466275E+04  0.00000000000E+00 0.  1.
         12    1    6    6    0    0  0.16951226824E+02 -0.52898519064E+02  0.22084932463E+03  0.22772795524E+03  0.00000000000E+00 0. -1.
         -5    1    3    3    0  503  0.29023382315E+02  0.70598160309E+01  0.13124214752E+03  0.13468032154E+03  0.47000000000E+01 0.  1.
         11    1    4    4    0    0 -0.46128472640E+01  0.50684017875E+02  0.78337033855E+02  0.93417551354E+02  0.00000000000E+00 0. -1.
        -12    1    4    4    0    0  0.12979474631E+02  0.86065482651E+02  0.99850559196E+01  0.87609562306E+02  0.00000000000E+00 0.  1.
</event>
<event>
12    1  0.1593360E-001  0.2244276E+03  0.7818608E-02  0.1130728E+00
         21   -1    0    0  503  502  0.00000000000E+00  0.00000000000E+00  0.88353701526E+03  0.88353701526E+03  0.00000000000E+00 0.  1.
         21   -1    0    0  501  503 -0.00000000000E+00 -0.00000000000E+00 -0.66793156598E+02  0.66793156598E+02  0.00000000000E+00 0.  1.
          6    2    1    2  501    0 -0.12235055445E+03 -0.73737630281E+02  0.59202750079E+03  0.63313846809E+03  0.17309206161E+03 0.  0.
         24    2    3    3    0    0 -0.75048265676E+02  0.16507190937E+02  0.40422032475E+03  0.41942075790E+03  0.81332476159E+02 0.  0.
         -6    2    1    2    0  502  0.12235055445E+03  0.73737630281E+02  0.22471635787E+03  0.31719170377E+03  0.17235498005E+03 0.  0.
        -24    2    5    5    0    0  0.12306010662E+02  0.17935753210E+01  0.40762238436E+02  0.91034774359E+02  0.80443242410E+02 0.  0.
          5    1    3    3  501    0 -0.47302288773E+02 -0.90244821218E+02  0.18780717604E+03  0.21371771019E+03  0.47000000000E+01 0. -1.
        -13    1    4    4    0    0 -0.17653584443E+02 -0.12649720233E+02  0.18992526886E+02  0.28851005930E+02  0.00000000000E+00 0.  1.
         14    1    4    4    0    0 -0.57394681234E+02  0.29156911170E+02  0.38522779787E+03  0.39056975197E+03  0.00000000000E+00 0. -1.
         -5    1    5    5    0  502  0.11004454379E+03  0.71944054960E+02  0.18395411944E+03  0.22615692941E+03  0.47000000000E+01 0.  1.
         11    1    6    6    0    0 -0.21782876628E+02  0.26093092748E+02  0.21086775750E+01  0.34055685641E+02  0.00000000000E+00 0. -1.
        -12    1    6    6    0    0  0.34088887290E+02 -0.24299517427E+02  0.38653560861E+02  0.56979088718E+02  0.00000000000E+00 0.  1.
</event>
<event>
12    1  0.1593360E-001  0.1827494E+03  0.7818608E-02  0.1165491E+00
         21   -1    0    0  501  502  0.00000000000E+00  0.00000000000E+00  0.61963880020E+03  0.61963880020E+03  0.00000000000E+00 0.  1.
         21   -1    0    0  502  503 -0.00000000000E+00 -0.00000000000E+00 -0.53515159965E+02  0.53515159965E+02  0.00000000000E+00 0.  1.
         -6    2    1    2    0  503 -0.59269926418E+02  0.10581048969E+02  0.28770545938E+03  0.34011638407E+03  0.17111353126E+03 0.  0.
        -24    2    3    3    0    0 -0.83599620458E+02  0.55631830998E+02  0.22325822304E+03  0.25767220146E+03  0.80417237523E+02 0.  0.
          6    2    1    2  501    0  0.59269926418E+02 -0.10581048969E+02  0.27841818086E+03  0.33303757610E+03  0.17254698168E+03 0.  0.
         24    2    5    5    0    0  0.10360654108E+03 -0.16629823942E+02  0.21756276541E+03  0.25735538092E+03  0.88810859663E+02 0.  0.
          5    1    5    5  501    0 -0.44336614664E+02  0.60487749738E+01  0.60855415441E+02  0.75682195178E+02  0.47000000000E+01 0. -1.
        -13    1    6    6    0    0  0.80091179538E+02 -0.48360094209E+02  0.12043703508E+03  0.15250696761E+03  0.00000000000E+00 0.  1.
         14    1    6    6    0    0  0.23515361543E+02  0.31730270267E+02  0.97125730337E+02  0.10484841331E+03  0.00000000000E+00 0. -1.
         -5    1    3    3    0  503  0.24329694041E+02 -0.45050782029E+02  0.64447236335E+02  0.82444182601E+02  0.47000000000E+01 0.  1.
         13    1    4    4    0    0  0.12836973861E+02  0.23744241451E+02  0.50789596552E+02  0.57516606454E+02  0.00000000000E+00 0. -1.
        -14    1    4    4    0    0 -0.96436594319E+02  0.31887589547E+02  0.17246862649E+03  0.20015559501E+03  0.00000000000E+00 0.  1.
</event>
<event>
12    1  0.1593360E-001  0.1790702E+03  0.7818608E-02  0.1169256E+00
         21   -1    0    0  503  502  0.00000000000E+00  0.00000000000E+00  0.35011619981E+03  0.35011619981E+03  0.00000000000E+00 0.  1.
         21   -1    0    0  501  503 -0.00000000000E+00 -0.00000000000E+00 -0.94806409022E+02  0.94806409022E+02  0.00000000000E+00 0.  1.
          6    2    1    2  501    0 -0.43754214589E+02  0.57197548618E+01  0.79168625294E+02  0.19374169328E+03  0.17123383308E+03 0.  0.
         24    2    3    3    0    0 -0.52054763069E+02 -0.41157355400E+02  0.97989477589E+02  0.14233471853E+03  0.79079757961E+02 0.  0.
         -6    2    1    2    0  502  0.43754214589E+02 -0.57197548618E+01  0.17614116549E+03  0.25118091556E+03  0.17354825055E+03 0.  0.
        -24    2    5    5    0    0  0.51904132726E+02 -0.62513632692E+02  0.79187833675E+02  0.13842452205E+03  0.79300958615E+02 0.  0.
          5    1    3    3  501    0  0.83005484800E+01  0.46877110262E+02 -0.18820852295E+02  0.51406974747E+02  0.47000000000E+01 0. -1.
        -11    1    4    4    0    0 -0.68473613100E+02 -0.39158045691E+02  0.54691735048E+02  0.95985280725E+02  0.00000000000E+00 0.  1.
         12    1    4    4    0    0  0.16418850031E+02 -0.19993097087E+01  0.43297742541E+02  0.46349437804E+02  0.00000000000E+00 0. -1.
         -5    1    5    5    0  502 -0.81499181364E+01  0.56793877830E+02  0.96953331819E+02  0.11275639350E+03  0.47000000000E+01 0.  1.
         13    1    6    6    0    0  0.49653591700E+02 -0.53930164160E+02  0.95178380716E+02  0.12013686333E+03  0.00000000000E+00 0. -1.
        -14    1    6    6    0    0  0.22505410260E+01 -0.85834685318E+01 -0.15990547041E+02  0.18287658724E+02  0.00000000000E+00 0.  1.
</event>
<event>
12    1  0.1593360E-001  0.2155486E+03  0.7818608E-02  0.1137372E+00
         21   -1    0    0  503  502  0.00000000000E+00  0.00000000000E+00  0.10509502833E+04  0.10509502833E+04  0.00000000000E+00 0.  1.
         21   -1    0    0  501  503 -0.00000000000E+00 -0.00000000000E+00 -0.26271683242E+03  0.26271683242E+03  0.00000000000E+00 0.  1.
          6    2    1    2  501    0 -0.47796174279E+02  0.11990901713E+03 -0.20519446448E+03  0.29712384950E+03  0.17179978761E+03 0.  0.
         24    2    3    3    0    0 -0.20069702888E+02  0.14447319400E+03 -0.19959607299E+03  0.25936689002E+03  0.78468430138E+02 0.  0.
         -6    2    1    2    0  502  0.47796174279E+02 -0.11990901713E+03  0.99342791536E+03  0.10165432662E+04  0.17262254320E+03 0.  0.
        -24    2    5    5    0    0  0.72550131214E+02 -0.16678718880E+02  0.49761540542E+03  0.50947188281E+03  0.79992540046E+02 0.  0.
          5    1    3    3  501    0 -0.27726471392E+02 -0.24564176877E+02 -0.55983914949E+01  0.37756959475E+02  0.47000000000E+01 0. -1.
        -13    1    4    4    0    0 -0.39603008167E+02  0.68408227404E+02 -0.60153272137E+02  0.99330257128E+02  0.00000000000E+00 0.  1.
         14    1    4    4    0    0  0.19533305280E+02  0.76064966600E+02 -0.13944280085E+03  0.16003663289E+03  0.00000000000E+00 0. -1.
         -5    1    5    5    0  502 -0.24753956934E+02 -0.10323029825E+03  0.49581250994E+03  0.50707138341E+03  0.47000000000E+01 0.  1.
         11    1    6    6    0    0 -0.47665412914E+01 -0.31922281844E+01  0.24224991740E+03  0.24231783409E+03  0.00000000000E+00 0. -1.
        -12    1    6    6    0    0  0.77316672505E+02 -0.13486490696E+02  0.25536548802E+03  0.26715404872E+03  0.00000000000E+00 0.  1.
</event>
<event>
12    1  0.1593360E-001  0.1930083E+03  0.7818608E-02  0.1155899E+00
         21   -1    0    0  503  502  0.00000000000E+00  0.00000000000E+00  0.54426663848E+03  0.54426663848E+03  0.00000000000E+00 0.  1.
         21   -1    0    0  501  503 -0.00000000000E+00 -0.00000000000E+00 -0.10137088955E+03  0.10137088955E+03  0.00000000000E+00 0.  1.
          6    2    1    2  501    0 -0.75019283425E+02 -0.42575761237E+02  0.37132442346E+02  0.19654772885E+03  0.17266036926E+03 0.  0.
         24    2    3    3    0    0 -0.83933977404E+02  0.29842661600E+02  0.19958933772E+02  0.12144167629E+03  0.80088854957E+02 0.  0.
         -6    2    1    2    0  502  0.75019283425E+02  0.42575761237E+02  0.40576330659E+03  0.44908979917E+03  0.17203836322E+03 0.  0.
        -24    2    5    5    0    0  0.34169601512E+02  0.69454922629E+02  0.37488227821E+03  0.39106468614E+03  0.80020736557E+02 0.  0.
          5    1    3    3  501    0  0.89146939793E+01 -0.72418422837E+02  0.17173508574E+02  0.75106052564E+02  0.47000000000E+01 0. -1.
        -13    1    4    4    0    0 -0.87124976306E+01  0.11150038902E+02 -0.27237420017E+02  0.30693778387E+02  0.00000000000E+00 0.  1.
         14    1    4    4    0    0 -0.75221479774E+02  0.18692622697E+02  0.47196353789E+02  0.90747897902E+02  0.00000000000E+00 0. -1.
         -5    1    5    5    0  502  0.40849681913E+02 -0.26879161392E+02  0.30881028375E+02  0.58025113038E+02  0.47000000000E+01 0.  1.
         11    1    6    6    0    0 -0.17542172292E+02 -0.70919112025E+01  0.67419840693E+02  0.70024695161E+02  0.00000000000E+00 0. -1.
        -12    1    6    6    0    0  0.51711773804E+02  0.76546833831E+02  0.30746243752E+03  0.32103999098E+03  0.00000000000E+00 0.  1.
</event>
<event>
12    1  0.1593360E-001  0.2038600E+03  0.7818608E-02  0.1150257E+00
         21   -1    0    0  501  502  0.00000000000E+00  0.00000000000E+00  0.13955747493E+03  0.13955747493E+03  0.00000000000E+00 0.  1.
         21   -1    0    0  502  503 -0.00000000000E+00 -0.00000000000E+00 -0.76323053382E+03  0.76323053382E+03  0.00000000000E+00 0.  1.
         -6    2    1    2    0  503 -0.10552809079E+03 -0.17688139742E+02 -0.66851382584E+03  0.69405469052E+03  0.15281403683E+03 0.  0.
        -24    2    3    3    0    0 -0.71907956516E+02 -0.66808546236E+02 -0.48824086883E+03  0.50415061791E+03  0.78451026019E+02 0.  0.
          6    2    1    2  501    0  0.10552809079E+03  0.17688139742E+02  0.44840766955E+02  0.20873331824E+03  0.17352191656E+03 0.  0.
         24    2    5    5    0    0  0.51954698441E+02 -0.51117295454E+02  0.69474022106E-01  0.11059639883E+03  0.83182269881E+02 0.  0.
          5    1    5    5  501    0  0.53573392347E+02  0.68805435196E+02  0.44771292933E+02  0.98136919408E+02  0.47000000000E+01 0. -1.
        -11    1    6    6    0    0  0.50971236621E+02 -0.29925082297E+02  0.35755934656E+02  0.69080130112E+02  0.00000000000E+00 0.  1.
         12    1    6    6    0    0  0.98346182004E+00 -0.21192213157E+02 -0.35686460633E+02  0.41516268717E+02  0.00000000000E+00 0. -1.
         -5    1    3    3    0  503 -0.33620134273E+02  0.49120406494E+02 -0.18027295702E+03  0.18990407261E+03  0.47000000000E+01 0.  1.
         11    1    4    4    0    0  0.22472028363E+01 -0.37800459522E+02 -0.25253085517E+03  0.25535418045E+03  0.00000000000E+00 0. -1.
        -12    1    4    4    0    0 -0.74155159352E+02 -0.29008086714E+02 -0.23571001366E+03  0.24879643746E+03  0.00000000000E+00 0.  1.
</event>
<event>
12    1  0.1593360E-001  0.2018024E+03  0.7818608E-02  0.1148280E+00
         21   -1    0    0  503  502  0.00000000000E+00  0.00000000000E+00  0.37138991287E+03  0.37138991287E+03  0.00000000000E+00 0. -1.
         21   -1    0    0  501  503 -0.00000000000E+00 -0.00000000000E+00 -0.12761078667E+03  0.12761078667E+03  0.00000000000E+00 0.  1.
          6    2    1    2  501    0 -0.65690446157E+02  0.80238146394E+02  0.27870968980E+02  0.20346638930E+03  0.17282472569E+03 0.  0.
         24    2    3    3    0    0 -0.19247659388E+02  0.11484808324E+03  0.66598053715E+01  0.14160538678E+03  0.80294320728E+02 0.  0.
         -6    2    1    2    0  502  0.65690446157E+02 -0.80238146394E+02  0.21590815722E+03  0.29553431024E+03  0.17312077090E+03 0.  0.
        -24    2    5    5    0    0 -0.10536506751E+02 -0.35724320881E+02  0.17906858967E+03  0.19976754800E+03  0.80338461221E+02 0.  0.
          5    1    3    3  501    0 -0.46442786770E+02 -0.34609936845E+02  0.21211163608E+02  0.61861002522E+02  0.47000000000E+01 0. -1.
        -11    1    4    4    0    0 -0.49970537488E+02  0.60701041121E+02 -0.25890483808E+01  0.78666220079E+02  0.00000000000E+00 0.  1.
         12    1    4    4    0    0  0.30722878101E+02  0.54147042119E+02  0.92488537523E+01  0.62939166699E+02  0.00000000000E+00 0. -1.
         -5    1    5    5    0  502  0.76226952908E+02 -0.44513825513E+02  0.36839567553E+02  0.95766762235E+02  0.47000000000E+01 0.  1.
         11    1    6    6    0    0  0.10533107746E+02  0.13017762433E+02  0.11652611572E+03  0.11772316740E+03  0.00000000000E+00 0. -1.
        -12    1    6    6    0    0 -0.21069614497E+02 -0.48742083314E+02  0.62542473950E+02  0.82044380604E+02  0.00000000000E+00 0.  1.
</event>
<event>
12    1  0.1593360E-001  0.2623472E+03  0.7818608E-02  0.1105902E+00
         21   -1    0    0  503  502  0.00000000000E+00  0.00000000000E+00  0.13663312000E+03  0.13663312000E+03  0.00000000000E+00 0. -1.
         21   -1    0    0  501  503 -0.00000000000E+00 -0.00000000000E+00 -0.84325956800E+03  0.84325956800E+03  0.00000000000E+00 0. -1.
          6    2    1    2  501    0  0.19589845069E+03  0.17874284191E+01 -0.66471576326E+03  0.71421895348E+03  0.17286488858E+03 0.  0.
         24    2    3    3    0    0  0.17156826569E+03 -0.52879276354E+02 -0.44304426834E+03  0.48456541406E+03  0.79268714689E+02 0.  0.
         -6    2    1    2    0  502 -0.19589845069E+03 -0.17874284191E+01 -0.41910684749E+02  0.26567373452E+03  0.17448962672E+03 0.  0.
        -24    2    5    5    0    0 -0.16685543885E+03 -0.46459477923E+02  0.10350994297E+02  0.19089097153E+03  0.79580144284E+02 0.  0.
          5    1    3    3  501    0  0.24330185007E+02  0.54666704773E+02 -0.22167149491E+03  0.22965353942E+03  0.47000000000E+01 0. -1.
        -11    1    4    4    0    0  0.83217223336E+02 -0.39035467909E+02 -0.13150401328E+03  0.16044369580E+03  0.00000000000E+00 0.  1.
         12    1    4    4    0    0  0.88351042350E+02 -0.13843808445E+02 -0.31154025507E+03  0.32412171826E+03  0.00000000000E+00 0. -1.
         -5    1    5    5    0  502 -0.29043011839E+02  0.44672049504E+02 -0.52261679046E+02  0.74782762989E+02  0.47000000000E+01 0.  1.
         11    1    6    6    0    0 -0.74321101098E+02 -0.25821899092E+02 -0.34619000738E+02  0.85958546715E+02  0.00000000000E+00 0. -1.
        -12    1    6    6    0    0 -0.92534337756E+02 -0.20637578831E+02  0.44969995035E+02  0.10493242481E+03  0.00000000000E+00 0.  1.
</event>
<event>
12    1  0.1593360E-001  0.1850428E+03  0.7818608E-02  0.1166068E+00
         21   -1    0    0  501  502  0.00000000000E+00  0.00000000000E+00  0.49199088388E+03  0.49199088388E+03  0.00000000000E+00 0. -1.
         21   -1    0    0  502  503 -0.00000000000E+00 -0.00000000000E+00 -0.71343701063E+02  0.71343701063E+02  0.00000000000E+00 0. -1.
         -6    2    1    2    0  503  0.53773104726E+01  0.67859399336E+02  0.13268848454E+03  0.22769952430E+03  0.17206692271E+03 0.  0.
        -24    2    3    3    0    0 -0.30670567707E+02  0.10092897550E+03  0.11330253099E+03  0.17487006676E+03  0.81331020532E+02 0.  0.
          6    2    1    2  501    0 -0.53773104726E+01 -0.67859399336E+02  0.28795869828E+03  0.33563506064E+03  0.15841991185E+03 0.  0.
         24    2    5    5    0    0  0.30886122377E+02 -0.49874363255E+02  0.27586451369E+03  0.29312791553E+03  0.79883291627E+02 0.  0.
          5    1    5    5  501    0 -0.36263432850E+02 -0.17985036081E+02  0.12094184583E+02  0.42507145112E+02  0.47000000000E+01 0. -1.
        -13    1    6    6    0    0  0.15098724907E+02  0.15574490367E+02  0.13808801074E+03  0.13978138272E+03  0.00000000000E+00 0.  1.
         14    1    6    6    0    0  0.15787397470E+02 -0.65448853622E+02  0.13777650295E+03  0.15334653281E+03  0.00000000000E+00 0. -1.
         -5    1    3    3    0  503  0.36047878179E+02 -0.33069576166E+02  0.19385953551E+02  0.52829457541E+02  0.47000000000E+01 0.  1.
         13    1    4    4    0    0  0.19519930922E+02  0.23279828944E+02  0.23898125928E+01  0.30474404721E+02  0.00000000000E+00 0. -1.
        -14    1    4    4    0    0 -0.50190498629E+02  0.77649146558E+02  0.11091271839E+03  0.14439566204E+03  0.00000000000E+00 0.  1.
</event>
<event>
12    1  0.1593360E-001  0.1862444E+03  0.7818608E-02  0.1162235E+00
         21   -1    0    0  501  502  0.00000000000E+00  0.00000000000E+00  0.31868760909E+02  0.31868760909E+02  0.00000000000E+00 0. -1.
         21   -1    0    0  502  503 -0.00000000000E+00 -0.00000000000E+00 -0.16218027446E+04  0.16218027446E+04  0.00000000000E+00 0. -1.
         -6    2    1    2    0  503 -0.59455533183E+02 -0.45479712215E+02 -0.12708355846E+04  0.12841978646E+04  0.16893107373E+03 0.  0.
        -24    2    3    3    0    0 -0.59882694890E+02 -0.22025096060E+02 -0.12436634727E+04  0.12479940643E+04  0.81971393397E+02 0.  0.
          6    2    1    2  501    0  0.59455533183E+02  0.45479712215E+02 -0.31909839910E+03  0.36947364093E+03  0.17053919897E+03 0.  0.
         24    2    5    5    0    0  0.47265130942E+02  0.44634504068E+02 -0.33412016770E+03  0.34954718074E+03  0.79502915299E+02 0.  0.
          5    1    5    5  501    0  0.12190402240E+02  0.84520814746E+00  0.15021768606E+02  0.19926460188E+02  0.47000000000E+01 0. -1.
        -13    1    6    6    0    0 -0.31991167544E+01  0.49977293941E+02 -0.13277399677E+03  0.14190454002E+03  0.00000000000E+00 0.  1.
         14    1    6    6    0    0  0.50464247697E+02 -0.53427898733E+01 -0.20134617093E+03  0.20764264072E+03  0.00000000000E+00 0. -1.
         -5    1    3    3    0  503  0.42716170749E+00 -0.23454616155E+02 -0.27172111905E+02  0.36203800235E+02  0.47000000000E+01 0.  1.
         11    1    4    4    0    0 -0.31357993799E+02 -0.51021753540E+02 -0.57951884139E+03  0.58260503828E+03  0.00000000000E+00 0. -1.
        -12    1    4    4    0    0 -0.28524701092E+02  0.28996657480E+02 -0.66414463127E+03  0.66538902604E+03  0.00000000000E+00 0.  1.
</event>
<event>
12    1  0.1593360E-001  0.1823953E+03  0.7818608E-02  0.1165662E+00
         21   -1    0    0  503  502  0.00000000000E+00  0.00000000000E+00  0.17253620931E+03  0.17253620931E+03  0.00000000000E+00 0. -1.
         21   -1    0    0  501  503 -0.00000000000E+00 -0.00000000000E+00 -0.19676567210E+03  0.19676567210E+03  0.00000000000E+00 0.  1.
          6    2    1    2  501    0  0.56090692810E+02 -0.18044589405E+02  0.16271559076E+02  0.18246405545E+03  0.17192031546E+03 0.  0.
         24    2    3    3    0    0  0.48654550820E+02 -0.79211648135E+02  0.19664630716E+02  0.12057457156E+03  0.74227886194E+02 0.  0.
         -6    2    1    2    0  502 -0.56090692810E+02  0.18044589405E+02 -0.40501021869E+02  0.18683782597E+03  0.17261595353E+03 0.  0.
        -24    2    5    5    0    0 -0.35900720320E+02  0.29124906532E+02  0.44509068502E+02  0.98637974028E+02  0.74908416359E+02 0.  0.
          5    1    3    3  501    0  0.74361419896E+01  0.61167058730E+02 -0.33930716404E+01  0.61889483892E+02  0.47000000000E+01 0. -1.
        -13    1    4    4    0    0  0.63197133565E+02 -0.53261459932E+02 -0.37271537083E+01  0.82731810567E+02  0.00000000000E+00 0.  1.
         14    1    4    4    0    0 -0.14542582745E+02 -0.25950188203E+02  0.23391784424E+02  0.37842760989E+02  0.00000000000E+00 0. -1.
         -5    1    5    5    0  502 -0.20189972489E+02 -0.11080317127E+02 -0.85010090372E+02  0.88199851937E+02  0.47000000000E+01 0.  1.
         13    1    6    6    0    0 -0.10581489940E+02 -0.23628043969E+02  0.27348960704E+02  0.37659235822E+02  0.00000000000E+00 0. -1.
        -14    1    6    6    0    0 -0.25319230380E+02  0.52752950500E+02  0.17160107799E+02  0.60978738206E+02  0.00000000000E+00 0.  1.
</event>
<event>
12    1  0.1593360E-001  0.1837635E+03  0.7818608E-02  0.1165859E+00
         21   -1    0    0  501  502  0.00000000000E+00  0.00000000000E+00  0.22036934118E+03  0.22036934118E+03  0.00000000000E+00 0. -1.
         21   -1    0    0  502  503 -0.00000000000E+00 -0.00000000000E+00 -0.28540050279E+03  0.28540050279E+03  0.00000000000E+00 0. -1.
         -6    2    1    2    0  503  0.19526329731E+02  0.34577084114E+02 -0.20855797244E+03  0.27796662011E+03  0.17942174263E+03 0.  0.
        -24    2    3    3    0    0 -0.13741310828E+02  0.88384543163E+02 -0.11482434466E+03  0.16478507773E+03  0.77258272208E+02 0.  0.
          6    2    1    2  501    0 -0.19526329731E+02 -0.34577084114E+02  0.14352681083E+03  0.22780322386E+03  0.17238767669E+03 0.  0.
         24    2    5    5    0    0  0.20862109099E+02 -0.76527847393E+02  0.66238185630E+02  0.13091816765E+03  0.80376180321E+02 0.  0.
          5    1    5    5  501    0 -0.40388438830E+02  0.41950763280E+02  0.77288625200E+02  0.96885056207E+02  0.47000000000E+01 0. -1.
        -13    1    6    6    0    0  0.22045874598E+02  0.11248626134E+02  0.10181381850E+02  0.26762150756E+02  0.00000000000E+00 0.  1.
         14    1    6    6    0    0 -0.11837654989E+01 -0.87776473527E+02  0.56056803779E+02  0.10415601690E+03  0.00000000000E+00 0. -1.
         -5    1    3    3    0  503  0.33267640559E+02 -0.53807459049E+02 -0.93733627782E+02  0.11318154238E+03  0.47000000000E+01 0.  1.
         13    1    4    4    0    0  0.70300793093E+01  0.95082019752E+02 -0.84328463115E+02  0.12728433598E+03  0.00000000000E+00 0. -1.
        -14    1    4    4    0    0 -0.20771390137E+02 -0.66974765891E+01 -0.30495881542E+02  0.37500741752E+02  0.00000000000E+00 0.  1.
</event>
<event>
12    1  0.1593360E-001  0.2204925E+03  0.7818608E-02  0.1135733E+00
         21   -1    0    0  503  502  0.00000000000E+00  0.00000000000E+00  0.57325520354E+03  0.57325520354E+03  0.00000000000E+00 0. -1.
         21   -1    0    0  501  503 -0.00000000000E+00 -0.00000000000E+00 -0.26608612818E+03  0.26608612818E+03  0.00000000000E+00 0. -1.
          6    2    1    2  501    0 -0.11809891585E+03  0.90168413922E+01 -0.19819887128E+03  0.28796694299E+03  0.17208576445E+03 0.  0.
         24    2    3    3    0    0 -0.25748290176E+02  0.33131696284E+02 -0.36487271882E+02  0.10012952481E+03  0.83270144611E+02 0.  0.
         -6    2    1    2    0  502  0.11809891585E+03 -0.90168413922E+01  0.50536794664E+03  0.55137438873E+03  0.18597929374E+03 0.  0.
        -24    2    5    5    0    0  0.11990277894E+03  0.23799987900E+02  0.49570868460E+03  0.51679709054E+03  0.80056336335E+02 0.  0.
          5    1    3    3  501    0 -0.92350625675E+02 -0.24114854892E+02 -0.16171159940E+03  0.18783741818E+03  0.47000000000E+01 0. -1.
        -11    1    4    4    0    0 -0.24195860704E+02  0.60420814978E+02 -0.31644850227E+02  0.72370650845E+02  0.00000000000E+00 0.  1.
         12    1    4    4    0    0 -0.15524294719E+01 -0.27289118693E+02 -0.48424216548E+01  0.27758873965E+02  0.00000000000E+00 0. -1.
         -5    1    5    5    0  502 -0.18038630877E+01 -0.32816829292E+02  0.96592620475E+01  0.34577298190E+02  0.47000000000E+01 0.  1.
         11    1    6    6    0    0  0.64798356171E+02  0.47037169935E+02  0.35479883152E+03  0.36372177989E+03  0.00000000000E+00 0. -1.
        -12    1    6    6    0    0  0.55104422768E+02 -0.23237182035E+02  0.14090985308E+03  0.15307531066E+03  0.00000000000E+00 0.  1.
</event>
<event>
12    1  0.1593360E-001  0.2107094E+03  0.7818608E-02  0.1141247E+00
         21   -1    0    0  501  502  0.00000000000E+00  0.00000000000E+00  0.79049963765E+03  0.79049963765E+03  0.00000000000E+00 0. -1.
         21   -1    0    0  502  503 -0.00000000000E+00 -0.00000000000E+00 -0.62616992208E+02  0.62616992208E+02  0.00000000000E+00 0.  1.
         -6    2    1    2    0  503  0.48618842906E+02 -0.11009572250E+03  0.50520930281E+03  0.54738917263E+03  0.17295550489E+03 0.  0.
        -24    2    3    3    0    0  0.93402746470E+02 -0.68396756437E+02  0.41689846365E+03  0.43984710597E+03  0.79113578465E+02 0.  0.
          6    2    1    2  501    0 -0.48618842906E+02  0.11009572250E+03  0.22267334264E+03  0.30572745723E+03  0.17146719973E+03 0.  0.
         24    2    5    5    0    0  0.29963817001E+02  0.28285872422E+02  0.14322009342E+03  0.16715258643E+03  0.75697232976E+02 0.  0.
          5    1    5    5  501    0 -0.78582659907E+02  0.81809850076E+02  0.79453249212E+02  0.13857487080E+03  0.47000000000E+01 0. -1.
        -13    1    6    6    0    0 -0.22666550676E+02  0.73754577714E+01  0.18487007059E+02  0.30165200594E+02  0.00000000000E+00 0.  1.
         14    1    6    6    0    0  0.52630367677E+02  0.20910414651E+02  0.12473308637E+03  0.13698738583E+03  0.00000000000E+00 0. -1.
         -5    1    3    3    0  503 -0.44783903564E+02 -0.41698966061E+02  0.88310839155E+02  0.10754206666E+03  0.47000000000E+01 0.  1.
         13    1    4    4    0    0  0.20923529167E+00 -0.22657139541E+02  0.17707682996E+03  0.17852056873E+03  0.00000000000E+00 0. -1.
        -14    1    4    4    0    0  0.93193511178E+02 -0.45739616896E+02  0.23982163369E+03  0.26132653724E+03  0.00000000000E+00 0.  1.
</event>
<event>
12    1  0.1593360E-001  0.1718980E+03  0.7818608E-02  0.1176230E+00
         21   -1    0    0  501  502  0.00000000000E+00  0.00000000000E+00  0.54379434696E+03  0.54379434696E+03  0.00000000000E+00 0.  1.
         21   -1    0    0  502  503 -0.00000000000E+00 -0.00000000000E+00 -0.94680697867E+02  0.94680697867E+02  0.00000000000E+00 0.  1.
         -6    2    1    2    0  503  0.13701196289E+02  0.74202052889E+00  0.15583836800E+02  0.17260292729E+03  0.17134947086E+03 0.  0.
        -24    2    3    3    0    0 -0.37728471172E+02 -0.48541759878E+02  0.14883653154E+02  0.10121327843E+03  0.79011800453E+02 0.  0.
          6    2    1    2  501    0 -0.13701196289E+02 -0.74202052889E+00  0.43352981229E+03  0.46587211754E+03  0.17000134817E+03 0.  0.
         24    2    5    5    0    0 -0.38199361243E+02  0.43120312967E+02  0.16168524977E+03  0.18938410593E+03  0.80035410907E+02 0.  0.
          5    1    5    5  501    0  0.24498164955E+02 -0.43862333496E+02  0.27184456252E+03  0.27648801160E+03  0.47000000000E+01 0. -1.
        -13    1    6    6    0    0 -0.52810723545E+02  0.17117502452E+02  0.14487244592E+03  0.15514511594E+03  0.00000000000E+00 0.  1.
         14    1    6    6    0    0  0.14611362302E+02  0.26002810515E+02  0.16812803844E+02  0.34238989998E+02  0.00000000000E+00 0. -1.
         -5    1    3    3    0  503  0.51429667461E+02  0.49283780407E+02  0.70018364550E+00  0.71389648854E+02  0.47000000000E+01 0.  1.
         13    1    4    4    0    0 -0.45797273718E+02  0.10335607424E+01 -0.71531180809E+01  0.46364055324E+02  0.00000000000E+00 0. -1.
        -14    1    4    4    0    0  0.80688025456E+01 -0.49575320621E+02  0.22036771235E+02  0.54849223109E+02  0.00000000000E+00 0.  1.
</event>
<event>
12    1  0.1593360E-001  0.2280374E+03  0.7818608E-02  0.1128509E+00
         21   -1    0    0  503  502  0.00000000000E+00  0.00000000000E+00  0.19514733447E+03  0.19514733447E+03  0.00000000000E+00 0.  1.
         21   -1    0    0  501  503 -0.00000000000E+00 -0.00000000000E+00 -0.49449585706E+03  0.49449585706E+03  0.00000000000E+00 0.  1.
          6    2    1    2  501    0  0.98938787964E+02 -0.10887502285E+03  0.86550546809E+02  0.24140311502E+03  0.17070973149E+03 0.  0.
         24    2    3    3    0    0  0.13109137841E+02 -0.12060706728E+02 -0.10795342865E+02  0.79421471361E+02  0.76641506665E+02 0.  0.
         -6    2    1    2    0  502 -0.98938787964E+02  0.10887502285E+03 -0.38589906940E+03  0.44824007651E+03  0.17423667829E+03 0.  0.
        -24    2    5    5    0    0 -0.33803957163E+02  0.97584719176E+02 -0.34795256843E+03  0.37187225557E+03  0.80947511651E+02 0.  0.
          5    1    3    3  501    0  0.85829650123E+02 -0.96814316125E+02  0.97345889674E+02  0.16198164366E+03  0.47000000000E+01 0. -1.
        -11    1    4    4    0    0 -0.37025721354E+01  0.19873711738E+02  0.22550348882E+02  0.30285172831E+02  0.00000000000E+00 0.  1.
         12    1    4    4    0    0  0.16811709976E+02 -0.31934418466E+02 -0.33345691748E+02  0.49136298530E+02  0.00000000000E+00 0. -1.
         -5    1    5    5    0  502 -0.65134830801E+02  0.11290303678E+02 -0.37946500964E+02  0.76367820946E+02  0.47000000000E+01 0.  1.
         13    1    6    6    0    0 -0.13847713271E+02  0.76085410049E+02 -0.12493405456E+03  0.14693286485E+03  0.00000000000E+00 0. -1.
        -14    1    6    6    0    0 -0.19956243892E+02  0.21499309127E+02 -0.22301851387E+03  0.22493939071E+03  0.00000000000E+00 0.  1.
</event>
<event>
12    1  0.1593360E-001  0.1866331E+03  0.7818608E-02  0.1162024E+00
         21   -1    0    0  501  502  0.00000000000E+00  0.00000000000E+00  0.11814268449E+03  0.11814268449E+03  0.00000000000E+00 0.  1.
         21   -1    0    0  502  503 -0.00000000000E+00 -0.00000000000E+00 -0.10149398775E+04  0.10149398775E+04  0.00000000000E+00 0.  1.
         -6    2    1    2    0  503  0.28297890108E+02  0.62420714365E+02 -0.92597616318E+03  0.94418224443E+03  0.17132174335E+03 0.  0.
        -24    2    3    3    0    0  0.40661117976E+02 -0.13435229626E+02 -0.29390622368E+03  0.30743938262E+03  0.79399456905E+02 0.  0.
          6    2    1    2  501    0 -0.28297890108E+02 -0.62420714365E+02  0.29178970172E+02  0.18890031755E+03  0.17359378303E+03 0.  0.
         24    2    5    5    0    0 -0.37667839022E+02 -0.95274358115E+02 -0.17374319126E+02  0.13096538341E+03  0.79711951896E+02 0.  0.
          5    1    5    5  501    0  0.93699489139E+01  0.32853643750E+02  0.46553289298E+02  0.57934934148E+02  0.47000000000E+01 0. -1.
        -13    1    6    6    0    0 -0.44423545818E+02 -0.14761747417E+02  0.51354114040E+01  0.47092813253E+02  0.00000000000E+00 0.  1.
         14    1    6    6    0    0  0.67557067958E+01 -0.80512610697E+02 -0.22509730530E+02  0.83872570153E+02  0.00000000000E+00 0. -1.
         -5    1    3    3    0  503 -0.12363227869E+02  0.75855943991E+02 -0.63206993951E+03  0.63674286181E+03  0.47000000000E+01 0.  1.
         13    1    4    4    0    0  0.19327705747E+02  0.33462213880E+02 -0.12108579360E+03  0.12710251523E+03  0.00000000000E+00 0. -1.
        -14    1    4    4    0    0  0.21333412229E+02 -0.46897443506E+02 -0.17282043008E+03  0.18033686739E+03  0.00000000000E+00 0.  1.
</event>
<event>
12    1  0.1593360E-001  0.2512619E+03  0.7818608E-02  0.1112519E+00
         21   -1    0    0  501  502  0.00000000000E+00  0.00000000000E+00  0.80797432720E+02  0.80797432720E+02  0.00000000000E+00 0. -1.
         21   -1    0    0  502  503 -0.00000000000E+00 -0.00000000000E+00 -0.78279206543E+03  0.78279206543E+03  0.00000000000E+00 0. -1.
         -6    2    1    2    0  503 -0.10445522509E+03  0.15891729129E+03 -0.37045673289E+03  0.44759682672E+03  0.16413143766E+03 0.  0.
        -24    2    3    3    0    0 -0.81224844496E+02  0.77448036103E+02 -0.11949977020E+03  0.18268480878E+03  0.80609370571E+02 0.  0.
          6    2    1    2  501    0  0.10445522509E+03 -0.15891729129E+03 -0.33153789982E+03  0.41599267143E+03  0.16421608978E+03 0.  0.
         24    2    5    5    0    0 -0.54056417190E+01 -0.51096794558E+02 -0.15252315770E+03  0.17985068560E+03  0.80267378812E+02 0.  0.
          5    1    5    5  501    0  0.10986086681E+03 -0.10782049673E+03 -0.17901474212E+03  0.23614198582E+03  0.47000000000E+01 0. -1.
        -11    1    6    6    0    0  0.20786941038E+02  0.17024186834E+01 -0.56731149589E+01  0.21614332755E+02  0.00000000000E+00 0.  1.
         12    1    6    6    0    0 -0.26192582757E+02 -0.52799213242E+02 -0.14685004274E+03  0.15823635285E+03  0.00000000000E+00 0. -1.
         -5    1    3    3    0  503 -0.23230380593E+02  0.81469255190E+02 -0.25095696269E+03  0.26491201793E+03  0.47000000000E+01 0.  1.
         13    1    4    4    0    0 -0.39154396204E+02  0.74997679504E+02 -0.11121364447E+03  0.13973615634E+03  0.00000000000E+00 0. -1.
        -14    1    4    4    0    0 -0.42070448293E+02  0.24503565983E+01 -0.82861257276E+01  0.42948652442E+02  0.00000000000E+00 0.  1.
</event>
<event>
12    1  0.1593360E-001  0.2423702E+03  0.7818608E-02  0.1119851E+00
         21   -1    0    0  501  502  0.00000000000E+00  0.00000000000E+00  0.48937065966E+03  0.48937065966E+03  0.00000000000E+00 0. -1.
         21   -1    0    0  502  503 -0.00000000000E+00 -0.00000000000E+00 -0.13530994028E+03  0.13530994028E+03  0.00000000000E+00 0.  1.
         -6    2    1    2    0  503  0.41910691096E+02  0.14990151776E+03  0.59988412174E+02  0.24968364204E+03  0.18578573802E+03 0.  0.
        -24    2    3    3    0    0  0.95127205726E+02  0.92927044981E+02  0.72005702364E+02  0.17066090328E+03  0.79092994484E+02 0.  0.
          6    2    1    2  501    0 -0.41910691096E+02 -0.14990151776E+03  0.29407230721E+03  0.37499695789E+03  0.17296596632E+03 0.  0.
         24    2    5    5    0    0  0.25789519938E+01 -0.99312904217E+02  0.78520883354E+02  0.14911415092E+03  0.78738789318E+02 0.  0.
          5    1    5    5  501    0 -0.44489643090E+02 -0.50588613547E+02  0.21555142385E+03  0.22588280698E+03  0.47000000000E+01 0. -1.
        -13    1    6    6    0    0 -0.85036365514E+01 -0.96079906253E+02  0.90651439783E+02  0.13236821278E+03  0.00000000000E+00 0.  1.
         14    1    6    6    0    0  0.11082588545E+02 -0.32329979638E+01 -0.12130556429E+02  0.16745938134E+02  0.00000000000E+00 0. -1.
         -5    1    3    3    0  503 -0.53216514629E+02  0.56974472784E+02 -0.12017290190E+02  0.79022738764E+02  0.47000000000E+01 0.  1.
         11    1    4    4    0    0  0.69999081743E+02  0.46545224938E+02  0.34143980563E+01  0.84130776316E+02  0.00000000000E+00 0. -1.
        -12    1    4    4    0    0  0.25128123982E+02  0.46381820043E+02  0.68591304308E+02  0.86530126961E+02  0.00000000000E+00 0.  1.
</event>
<event>
12    1  0.1593360E-001  0.1773950E+03  0.7818608E-02  0.1170704E+00
         21   -1    0    0  503  502  0.00000000000E+00  0.00000000000E+00  0.13641350555E+03  0.13641350555E+03  0.00000000000E+00 0.  1.
         21   -1    0    0  501  503 -0.00000000000E+00 -0.00000000000E+00 -0.22961140785E+03  0.22961140785E+03  0.00000000000E+00 0.  1.
          6    2    1    2  501    0 -0.22460170127E+02  0.34693379943E+02 -0.35686822981E+02  0.17954033153E+03  0.17103535149E+03 0.  0.
         24    2    3    3    0    0 -0.26561395500E+02  0.24925392198E+02 -0.89485945815E+02  0.12450698481E+03  0.78533253214E+02 0.  0.
         -6    2    1    2    0  502  0.22460170127E+02 -0.34693379943E+02 -0.57511079314E+02  0.18648458187E+03  0.17251343477E+03 0.  0.
        -24    2    5    5    0    0 -0.75884476717E+01 -0.64358403543E+01 -0.97601120717E+02  0.12877228340E+03  0.83410536663E+02 0.  0.
          5    1    3    3  501    0  0.41012253733E+01  0.97679877446E+01  0.53799122834E+02  0.55033346726E+02  0.47000000000E+01 0. -1.
        -11    1    4    4    0    0 -0.30857785061E+02 -0.19795948863E+02 -0.61432550024E+02  0.71540482894E+02  0.00000000000E+00 0.  1.
         12    1    4    4    0    0  0.42963895605E+01  0.44721341061E+02 -0.28053395792E+02  0.52966501914E+02  0.00000000000E+00 0. -1.
         -5    1    5    5    0  502  0.30048617799E+02 -0.28257539588E+02  0.40090041403E+02  0.57712298472E+02  0.47000000000E+01 0.  1.
         13    1    6    6    0    0 -0.92215802880E+01  0.36986465957E+02 -0.30447146633E+02  0.48785909288E+02  0.00000000000E+00 0. -1.
        -14    1    6    6    0    0  0.16331326163E+01 -0.43422306311E+02 -0.67153974084E+02  0.79986374107E+02  0.00000000000E+00 0.  1.
</event>
<event>
12    1  0.1593360E-001  0.1765448E+03  0.7818608E-02  0.1171675E+00
         21   -1    0    0  501  502  0.00000000000E+00  0.00000000000E+00  0.16698802524E+04  0.16698802524E+04  0.00000000000E+00 0.  1.
         21   -1    0    0  502  503 -0.00000000000E+00 -0.00000000000E+00 -0.32371744873E+02  0.32371744873E+02  0.00000000000E+00 0. -1.
         -6    2    1    2    0  503  0.27120039603E+02  0.20992019736E+02  0.25820486507E+03  0.31169577279E+03  0.17119679025E+03 0.  0.
        -24    2    3    3    0    0  0.16663569454E+02  0.34260639318E+02  0.27414366190E+03  0.28799916380E+03  0.79607192087E+02 0.  0.
          6    2    1    2  501    0 -0.27120039603E+02 -0.20992019736E+02  0.13793036424E+04  0.13905562245E+04  0.17318173665E+03 0.  0.
         24    2    5    5    0    0 -0.19928797700E+02  0.36370303329E+02  0.11704107871E+04  0.11737603179E+04  0.78306561046E+02 0.  0.
          5    1    5    5  501    0 -0.71912419026E+01 -0.57362323065E+02  0.20889285535E+03  0.21679590652E+03  0.47000000000E+01 0. -1.
        -13    1    6    6    0    0 -0.18012057825E+02 -0.19561389404E+02  0.60564162965E+03  0.60622509495E+03  0.00000000000E+00 0.  1.
         14    1    6    6    0    0 -0.19167398759E+01  0.55931692733E+02  0.56476915744E+03  0.56753522299E+03  0.00000000000E+00 0. -1.
         -5    1    3    3    0  503  0.10456470149E+02 -0.13268619582E+02 -0.15938796831E+02  0.23696608998E+02  0.47000000000E+01 0.  1.
         11    1    4    4    0    0  0.29076053867E+02  0.25629927581E+02  0.49604851255E+02  0.62951976651E+02  0.00000000000E+00 0. -1.
        -12    1    4    4    0    0 -0.12412484412E+02  0.86307117374E+01  0.22453881065E+03  0.22504718715E+03  0.00000000000E+00 0.  1.
</event>
<event>
12    1  0.1593360E-001  0.2220314E+03  0.7818608E-02  0.1132752E+00
         21   -1    0    0  503  502  0.00000000000E+00  0.00000000000E+00  0.17886363337E+03  0.17886363337E+03  0.00000000000E+00 0. -1.
         21   -1    0    0  501  503 -0.00000000000E+00 -0.00000000000E+00 -0.11929264747E+04  0.11929264747E+04  0.00000000000E+00 0.  1.
          6    2    1    2  501    0 -0.10794080984E+03  0.84783128719E+02 -0.11098462834E+04  0.11318377565E+04  0.17452374335E+03 0.  0.
         24    2    3    3    0    0 -0.10184967205E+03  0.95390732959E+02 -0.58629747364E+03  0.60812498275E+03  0.81231271146E+02 0.  0.
         -6    2    1    2    0  502  0.10794080984E+03 -0.84783128719E+02  0.95783442080E+02  0.23995235153E+03  0.17193971584E+03 0.  0.
        -24    2    5    5    0    0  0.14493461904E+03 -0.70442222484E+02  0.69196216019E+02  0.19196095542E+03  0.78056015714E+02 0.  0.
          5    1    3    3  501    0 -0.60911377882E+01 -0.10607604239E+02 -0.52354880973E+03  0.52371277376E+03  0.47000000000E+01 0. -1.
        -11    1    4    4    0    0 -0.43577907342E+02  0.36783693224E+02 -0.40353498728E+03  0.40754454978E+03  0.00000000000E+00 0.  1.
         12    1    4    4    0    0 -0.58271764709E+02  0.58607039735E+02 -0.18276248636E+03  0.20058043297E+03  0.00000000000E+00 0. -1.
         -5    1    5    5    0  502 -0.36993809203E+02 -0.14340906235E+02  0.26587226061E+02  0.47991396110E+02  0.47000000000E+01 0.  1.
         13    1    6    6    0    0  0.10858637881E+03 -0.60809494490E+02  0.14092107780E+02  0.12524928657E+03  0.00000000000E+00 0. -1.
        -14    1    6    6    0    0  0.36348240228E+02 -0.96327279939E+01  0.55104108239E+02  0.66711668853E+02  0.00000000000E+00 0.  1.
</event>
<event>
12    1  0.1593360E-001  0.1880479E+03  0.7818608E-02  0.1160409E+00
         21   -1    0    0  501  502  0.00000000000E+00  0.00000000000E+00  0.29446348351E+03  0.29446348351E+03  0.00000000000E+00 0.  1.
         21   -1    0    0  502  503 -0.00000000000E+00 -0.00000000000E+00 -0.13402669267E+03  0.13402669267E+03  0.00000000000E+00 0. -1.
         -6    2    1    2    0  503  0.32484332335E+02 -0.67483675298E+02  0.97890284464E+01  0.18754044861E+03  0.17165755592E+03 0.  0.
        -24    2    3    3    0    0  0.39291134399E+02  0.18799493549E+02 -0.24802936664E+02  0.94214075961E+02  0.79774007308E+02 0.  0.
          6    2    1    2  501    0 -0.32484332335E+02  0.67483675298E+02  0.15064776240E+03  0.24094972758E+03  0.17248983919E+03 0.  0.
         24    2    5    5    0    0  0.10554247428E+02  0.66656494114E+02  0.16563871003E+03  0.19512591185E+03  0.77996531146E+02 0.  0.
          5    1    5    5  501    0 -0.43038579763E+02  0.82718118411E+00 -0.14990947627E+02  0.45823815724E+02  0.47000000000E+01 0. -1.
        -13    1    6    6    0    0  0.20155830679E+02 -0.86506101655E+01  0.15413781550E+02  0.26808118700E+02  0.00000000000E+00 0.  1.
         14    1    6    6    0    0 -0.96015832510E+01  0.75307104280E+02  0.15022492848E+03  0.16831779315E+03  0.00000000000E+00 0. -1.
         -5    1    3    3    0  503 -0.68068020639E+01 -0.86283168848E+02  0.34591965110E+02  0.93326372644E+02  0.47000000000E+01 0.  1.
         13    1    4    4    0    0  0.51994164407E+02 -0.81329104352E+01 -0.34465277933E+02  0.62907811499E+02  0.00000000000E+00 0. -1.
        -14    1    4    4    0    0 -0.12703030008E+02  0.26932403985E+02  0.96623412696E+01  0.31306264462E+02  0.00000000000E+00 0.  1.
</event>
<event>
12    1  0.1593360E-001  0.2022517E+03  0.7818608E-02  0.1147976E+00
         21   -1    0    0  503  502  0.00000000000E+00  0.00000000000E+00  0.46457150579E+03  0.46457150579E+03  0.00000000000E+00 0. -1.
         21   -1    0    0  501  503 -0.00000000000E+00 -0.00000000000E+00 -0.13797961518E+03  0.13797961518E+03  0.00000000000E+00 0.  1.
          6    2    1    2  501    0 -0.85748632420E+02  0.61551464593E+02 -0.18554662362E+02  0.20251127577E+03  0.17182878270E+03 0.  0.
         24    2    3    3    0    0 -0.11623946852E+03  0.83752455141E+02 -0.10769478221E+02  0.16371341295E+03  0.78485744778E+02 0.  0.
         -6    2    1    2    0  502  0.85748632420E+02 -0.61551464593E+02  0.34514655297E+03  0.40003984520E+03  0.17252340121E+03 0.  0.
        -24    2    5    5    0    0 -0.67061894414E+01 -0.73942597251E+02  0.16565789050E+03  0.19770422251E+03  0.78306719052E+02 0.  0.
          5    1    3    3  501    0  0.30490836101E+02 -0.22200990548E+02 -0.77851841415E+01  0.38797862822E+02  0.47000000000E+01 0. -1.
        -13    1    4    4    0    0 -0.72445380226E+02  0.11730703894E+02 -0.26384621190E+02  0.77987760356E+02  0.00000000000E+00 0.  1.
         14    1    4    4    0    0 -0.43794088295E+02  0.72021751247E+02  0.15615142970E+02  0.85725652591E+02  0.00000000000E+00 0. -1.
         -5    1    5    5    0  502  0.92454821861E+02  0.12391132658E+02  0.17948866247E+03  0.20233562269E+03  0.47000000000E+01 0.  1.
         11    1    6    6    0    0 -0.40293578053E+01 -0.60528638898E+02  0.17217751319E+03  0.18255149383E+03  0.00000000000E+00 0. -1.
        -12    1    6    6    0    0 -0.26768316361E+01 -0.13413958353E+02 -0.65196226941E+01  0.15152728678E+02  0.00000000000E+00 0.  1.
</event>
<event>
12    1  0.1593360E-001  0.1909686E+03  0.7818608E-02  0.1159075E+00
         21   -1    0    0  501  502  0.00000000000E+00  0.00000000000E+00  0.13248127935E+04  0.13248127935E+04  0.00000000000E+00 0.  1.
         21   -1    0    0  502  503 -0.00000000000E+00 -0.00000000000E+00 -0.34700501783E+02  0.34700501783E+02  0.00000000000E+00 0.  1.
         -6    2    1    2    0  503 -0.65870793594E+02 -0.15978078433E+02  0.30806005293E+03  0.35906559589E+03  0.17156003469E+03 0.  0.
        -24    2    3    3    0    0  0.27330615522E+02 -0.32950933167E+02  0.13514167661E+03  0.16184126846E+03  0.78080707479E+02 0.  0.
          6    2    1    2  501    0  0.65870793594E+02  0.15978078433E+02  0.98205223878E+03  0.10004476994E+04  0.17853497998E+03 0.  0.
         24    2    5    5    0    0 -0.40054605448E+00 -0.30350490113E+02  0.75102189674E+03  0.75563075621E+03  0.77605654834E+02 0.  0.
          5    1    5    5  501    0  0.66271339649E+02  0.46328568545E+02  0.23103034204E+03  0.24481694317E+03  0.47000000000E+01 0. -1.
        -13    1    6    6    0    0 -0.70223661566E+01 -0.28336693425E+02  0.90908646768E+02  0.95481222645E+02  0.00000000000E+00 0.  1.
         14    1    6    6    0    0  0.66218201021E+01 -0.20137966880E+01  0.66011324997E+03  0.66014953357E+03  0.00000000000E+00 0. -1.
         -5    1    3    3    0  503 -0.93201409116E+02  0.16972854735E+02  0.17291837633E+03  0.19722432743E+03  0.47000000000E+01 0.  1.
         11    1    4    4    0    0  0.20607517301E+02  0.20718612387E+02  0.77352429364E+02  0.82688143026E+02  0.00000000000E+00 0. -1.
        -12    1    4    4    0    0  0.67230982204E+01 -0.53669545554E+02  0.57789247242E+02  0.79153125437E+02  0.00000000000E+00 0.  1.
</event>
<event>
12    1  0.1593360E-001  0.1934384E+03  0.7818608E-02  0.1156185E+00
         21   -1    0    0  501  502  0.00000000000E+00  0.00000000000E+00  0.44928518423E+03  0.44928518423E+03  0.00000000000E+00 0. -1.
         21   -1    0    0  502  503 -0.00000000000E+00 -0.00000000000E+00 -0.84038865119E+02  0.84038865119E+02  0.00000000000E+00 0. -1.
         -6    2    1    2    0  503 -0.60492679207E+02  0.63086190569E+02  0.14040372651E+03  0.23902220798E+03  0.17256644462E+03 0.  0.
        -24    2    3    3    0    0  0.20828196926E+02  0.30307138428E+02  0.11398917822E+03  0.14733049889E+03  0.85792812777E+02 0.  0.
          6    2    1    2  501    0  0.60492679207E+02 -0.63086190569E+02  0.22484259259E+03  0.29430184137E+03  0.16858277109E+03 0.  0.
         24    2    5    5    0    0  0.86298936310E+02 -0.20539639599E+02  0.84625093001E+02  0.14544214535E+03  0.78247224081E+02 0.  0.
          5    1    5    5  501    0 -0.25806257104E+02 -0.42546550969E+02  0.14021749959E+03  0.14885969601E+03  0.47000000000E+01 0. -1.
        -11    1    6    6    0    0  0.23482557335E+01  0.18937639482E+02 -0.11201307563E+01  0.19115522149E+02  0.00000000000E+00 0.  1.
         12    1    6    6    0    0  0.83950680577E+02 -0.39477279081E+02  0.85745223758E+02  0.12632662320E+03  0.00000000000E+00 0. -1.
         -5    1    3    3    0  503 -0.81320876133E+02  0.32779052140E+02  0.26414548290E+02  0.91691709089E+02  0.47000000000E+01 0.  1.
         13    1    4    4    0    0 -0.53329859006E+01  0.55103227856E+02  0.83147226854E+02  0.99891279861E+02  0.00000000000E+00 0. -1.
        -14    1    4    4    0    0  0.26161182827E+02 -0.24796089428E+02  0.30841951369E+02  0.47439219029E+02  0.00000000000E+00 0.  1.
</event>
<event>
12    1  0.1593360E-001  0.1927164E+03  0.7818608E-02  0.1156159E+00
         21   -1    0    0  503  502  0.00000000000E+00  0.00000000000E+00  0.20944618866E+03  0.20944618866E+03  0.00000000000E+00 0. -1.
         21   -1    0    0  501  503 -0.00000000000E+00 -0.00000000000E+00 -0.19991460303E+03  0.19991460303E+03  0.00000000000E+00 0. -1.
          6    2    1    2  501    0  0.74924391877E+02  0.42745755976E+02  0.74362768183E+02  0.20656577845E+03  0.17233321032E+03 0.  0.
         24    2    3    3    0    0  0.10983971445E+03  0.40890265651E+02  0.17219478476E+02  0.13940948199E+03  0.73496370904E+02 0.  0.
         -6    2    1    2    0  502 -0.74924391877E+02 -0.42745755976E+02 -0.64831182552E+02  0.20279501324E+03  0.17170285674E+03 0.  0.
        -24    2    5    5    0    0 -0.10509833900E+03  0.65800135236E+01 -0.60846406115E+02  0.14464463005E+03  0.78299594038E+02 0.  0.
          5    1    3    3  501    0 -0.34915322569E+02  0.18554903256E+01  0.57143289708E+02  0.67156296451E+02  0.47000000000E+01 0. -1.
        -11    1    4    4    0    0  0.47342461857E+02  0.26304004945E+02 -0.27935053893E+02  0.60939122137E+02  0.00000000000E+00 0.  1.
         12    1    4    4    0    0  0.62497252589E+02  0.14586260705E+02  0.45154532368E+02  0.78470359856E+02  0.00000000000E+00 0. -1.
         -5    1    5    5    0  502  0.30173947126E+02 -0.49325769500E+02 -0.39847764366E+01  0.58150383190E+02  0.47000000000E+01 0.  1.
         11    1    6    6    0    0 -0.79017095248E+02 -0.56715413969E+01 -0.77946358434E+02  0.11113731379E+03  0.00000000000E+00 0. -1.
        -12    1    6    6    0    0 -0.26081243755E+02  0.12251554921E+02  0.17099952319E+02  0.33507316262E+02  0.00000000000E+00 0.  1.
</event>
<event>
12    1  0.1593360E-001  0.1888553E+03  0.7818608E-02  0.1159784E+00
         21   -1    0    0  501  502  0.00000000000E+00  0.00000000000E+00  0.87099357462E+02  0.87099357462E+02  0.00000000000E+00 0.  1.
         21   -1    0    0  502  503 -0.00000000000E+00 -0.00000000000E+00 -0.40808675024E+03  0.40808675024E+03  0.00000000000E+00 0. -1.
         -6    2    1    2    0  503 -0.60752813091E+02  0.47993886011E+02 -0.17508798343E+03  0.25753083370E+03  0.17225565585E+03 0.  0.
        -24    2    3    3    0    0 -0.40822415725E+02 -0.38221789579E+02 -0.11671753046E+03  0.15141974457E+03  0.78597597329E+02 0.  0.
          6    2    1    2  501    0  0.60752813091E+02 -0.47993886011E+02 -0.14589940934E+03  0.23765527400E+03  0.17087736602E+03 0.  0.
         24    2    5    5    0    0  0.81266299911E+02  0.17216420528E+02 -0.67719035520E+02  0.13369639717E+03  0.79926480010E+02 0.  0.
          5    1    5    5  501    0 -0.20513486819E+02 -0.65210306538E+02 -0.78180373824E+02  0.10395887683E+03  0.47000000000E+01 0. -1.
        -13    1    6    6    0    0  0.48024252144E+02  0.44528927898E+02 -0.17945601105E+02  0.67905808387E+02  0.00000000000E+00 0.  1.
         14    1    6    6    0    0  0.33242047767E+02 -0.27312507370E+02 -0.49773434415E+02  0.65790588780E+02  0.00000000000E+00 0. -1.
         -5    1    3    3    0  503 -0.19930397366E+02  0.86215675589E+02 -0.58370452976E+02  0.10611108913E+03  0.47000000000E+01 0.  1.
         11    1    4    4    0    0 -0.36890326345E+02 -0.26821384152E+02 -0.13593113241E+02  0.47592599774E+02  0.00000000000E+00 0. -1.
        -12    1    4    4    0    0 -0.39320893801E+01 -0.11400405427E+02 -0.10312441721E+03  0.10382714480E+03  0.00000000000E+00 0.  1.
</event>
<event>
12    1  0.1593360E-001  0.2538944E+03  0.7818608E-02  0.1110890E+00
         21   -1    0    0  501  502  0.00000000000E+00  0.00000000000E+00  0.95480286492E+02  0.95480286492E+02  0.00000000000E+00 0.  1.
         21   -1    0    0  502  503 -0.00000000000E+00 -0.00000000000E+00 -0.70536974086E+03  0.70536974086E+03  0.00000000000E+00 0.  1.
         -6    2    1    2    0  503  0.10754517218E+03 -0.15218977419E+03 -0.38843638884E+03  0.46405299612E+03  0.17243741938E+03 0.  0.
        -24    2    3    3    0    0  0.60102750593E+02 -0.13027352446E+02 -0.97700983194E+02  0.13822155336E+03  0.76010941026E+02 0.  0.
          6    2    1    2  501    0 -0.10754517218E+03  0.15218977419E+03 -0.22145306553E+03  0.33679703124E+03  0.17222975524E+03 0.  0.
         24    2    5    5    0    0 -0.48815879529E+02  0.16921052697E+03 -0.15329324499E+03  0.24510904415E+03  0.74595120693E+02 0.  0.
          5    1    5    5  501    0 -0.58729292651E+02 -0.17020752783E+02 -0.68159820539E+02  0.91687987090E+02  0.47000000000E+01 0. -1.
        -13    1    6    6    0    0  0.30828662794E+01  0.90289621110E+02 -0.43479225659E+02  0.10026047481E+03  0.00000000000E+00 0.  1.
         14    1    6    6    0    0 -0.51898745809E+02  0.78920905862E+02 -0.10981401933E+03  0.14484856934E+03  0.00000000000E+00 0. -1.
         -5    1    3    3    0  503  0.47442421588E+02 -0.13916242174E+03 -0.29073540565E+03  0.32583144276E+03  0.47000000000E+01 0.  1.
         11    1    4    4    0    0 -0.11792139927E+02 -0.13910117645E+02 -0.17486500231E+01  0.18319490000E+02  0.00000000000E+00 0. -1.
        -12    1    4    4    0    0  0.71894890519E+02  0.88276519873E+00 -0.95952333171E+02  0.11990206336E+03  0.00000000000E+00 0.  1.
</event>
<event>
12    1  0.1593360E-001  0.2018451E+03  0.7818608E-02  0.1148727E+00
         21   -1    0    0  501  502  0.00000000000E+00  0.00000000000E+00  0.19251328928E+03  0.19251328928E+03  0.00000000000E+00 0.  1.
         21   -1    0    0  502  503 -0.00000000000E+00 -0.00000000000E+00 -0.32998277401E+03  0.32998277401E+03  0.00000000000E+00 0. -1.
         -6    2    1    2    0  503 -0.93237274811E+02  0.34248384453E+02 -0.22666745809E+03  0.30182047559E+03  0.17277535032E+03 0.  0.
        -24    2    3    3    0    0 -0.10743825129E+02 -0.35385614559E+02 -0.75576451078E+02  0.11606621465E+03  0.79949951405E+02 0.  0.
          6    2    1    2  501    0  0.93237274811E+02 -0.34248384453E+02  0.89197973352E+02  0.22067558770E+03  0.17571367421E+03 0.  0.
         24    2    5    5    0    0  0.11519203155E+03 -0.53775191638E+02  0.10633396470E+03  0.18633843957E+03  0.85171160856E+02 0.  0.
          5    1    5    5  501    0 -0.21954756739E+02  0.19526807184E+02 -0.17135991353E+02  0.34337148133E+02  0.47000000000E+01 0. -1.
        -11    1    6    6    0    0  0.32930931168E+02 -0.16042583799E+02  0.86147998368E+02  0.93612436916E+02  0.00000000000E+00 0.  1.
         12    1    6    6    0    0  0.82261100382E+02 -0.37732607839E+02  0.20185966336E+02  0.92726002649E+02  0.00000000000E+00 0. -1.
         -5    1    3    3    0  503 -0.82493449682E+02  0.69633999013E+02 -0.15109100701E+03  0.18575426094E+03  0.47000000000E+01 0.  1.
         11    1    4    4    0    0 -0.37685427705E+02 -0.44657995497E+02 -0.41627975238E+02  0.71745497040E+02  0.00000000000E+00 0. -1.
        -12    1    4    4    0    0  0.26941602577E+02  0.92723809374E+01 -0.33948475840E+02  0.44320717611E+02  0.00000000000E+00 0.  1.
</event>
<event>
12    1  0.1593360E-001  0.2610819E+03  0.7818608E-02  0.1106534E+00
         21   -1    0    0  503  502  0.00000000000E+00  0.00000000000E+00  0.71648011451E+03  0.71648011451E+03  0.00000000000E+00 0. -1.
         21   -1    0    0  501  503 -0.00000000000E+00 -0.00000000000E+00 -0.12581182942E+03  0.12581182942E+03  0.00000000000E+00 0.  1.
          6    2    1    2  501    0 -0.42047333460E+02  0.19153580001E+03  0.50372504565E+03  0.56736469226E+03  0.17236540102E+03 0.  0.
         24    2    3    3    0    0  0.23379696268E+02  0.38482275485E+02  0.21767940378E+03  0.23638089081E+03  0.80399670305E+02 0.  0.
         -6    2    1    2    0  502  0.42047333460E+02 -0.19153580001E+03  0.86943239444E+02  0.27492725167E+03  0.17196489725E+03 0.  0.
        -24    2    5    5    0    0 -0.63738889588E+01 -0.14940583153E+03  0.11490450418E+03  0.20475979945E+03  0.79754632677E+02 0.  0.
          5    1    3    3  501    0 -0.65427029728E+02  0.15305352453E+03  0.28604564187E+03  0.33098380145E+03  0.47000000000E+01 0. -1.
        -13    1    4    4    0    0 -0.22146500902E+02  0.23804431170E+02  0.35995435174E+02  0.48505564618E+02  0.00000000000E+00 0.  1.
         14    1    4    4    0    0  0.45526197170E+02  0.14677844315E+02  0.18168396861E+03  0.18787532619E+03  0.00000000000E+00 0. -1.
         -5    1    5    5    0  502  0.48421222419E+02 -0.42129968478E+02 -0.27961264740E+02  0.70167452215E+02  0.47000000000E+01 0.  1.
         13    1    6    6    0    0 -0.27669331197E+02 -0.68575939301E+02  0.16721614359E+02  0.75814666963E+02  0.00000000000E+00 0. -1.
        -14    1    6    6    0    0  0.21295442238E+02 -0.80829892234E+02  0.98182889825E+02  0.12894513249E+03  0.00000000000E+00 0.  1.
</event>
<event>
12    1  0.1593360E-001  0.2275153E+03  0.7818608E-02  0.1128426E+00
         21   -1    0    0  501  502  0.00000000000E+00  0.00000000000E+00  0.22602724020E+03  0.22602724020E+03  0.00000000000E+00 0.  1.
         21   -1    0    0  502  503 -0.00000000000E+00 -0.00000000000E+00 -0.23660250918E+03  0.23660250918E+03  0.00000000000E+00 0. -1.
         -6    2    1    2    0  503 -0.10547527443E+03 -0.10471697876E+03 -0.47106916246E+02  0.23234082680E+03  0.17225713071E+03 0.  0.
        -24    2    3    3    0    0 -0.10770559956E+03 -0.30187659777E+02 -0.71065274924E+02  0.15388264246E+03  0.78216388126E+02 0.  0.
          6    2    1    2  501    0  0.10547527443E+03  0.10471697876E+03  0.36531647262E+02  0.23028892259E+03  0.17206901946E+03 0.  0.
         24    2    5    5    0    0  0.66002445986E+02  0.82683473717E+02  0.89857125821E+02  0.16022269539E+03  0.80025804313E+02 0.  0.
          5    1    5    5  501    0  0.39472828439E+02  0.22033505047E+02 -0.53325478560E+02  0.70066227194E+02  0.47000000000E+01 0. -1.
        -11    1    6    6    0    0  0.53650448529E+02  0.92944793731E+02  0.95037009938E+02  0.14334970724E+03  0.00000000000E+00 0.  1.
         12    1    6    6    0    0  0.12351997457E+02 -0.10261320014E+02 -0.51798841166E+01  0.16872988149E+02  0.00000000000E+00 0. -1.
         -5    1    3    3    0  503  0.22303251333E+01 -0.74529318986E+02  0.23958358678E+02  0.78458184336E+02  0.47000000000E+01 0.  1.
         11    1    4    4    0    0  0.91750036334E+01 -0.16388513733E+02 -0.89770445413E+01  0.20817094003E+02  0.00000000000E+00 0. -1.
        -12    1    4    4    0    0 -0.11688060319E+03 -0.13799146044E+02 -0.62088230383E+02  0.13306554846E+03  0.00000000000E+00 0.  1.
</event>
<event>
12    1  0.1593360E-001  0.2068260E+03  0.7818608E-02  0.1145545E+00
         21   -1    0    0  501  502  0.00000000000E+00  0.00000000000E+00  0.18738000478E+04  0.18738000478E+04  0.00000000000E+00 0. -1.
         21   -1    0    0  502  503 -0.00000000000E+00 -0.00000000000E+00 -0.22965745086E+02  0.22965745086E+02  0.00000000000E+00 0. -1.
         -6    2    1    2    0  503 -0.24812955349E+02 -0.98982868691E+02  0.75265352850E+03  0.78055387211E+03  0.17989920028E+03 0.  0.
        -24    2    3    3    0    0 -0.59822639860E+02 -0.12258280564E+03  0.50173134606E+03  0.52606091214E+03  0.80002794888E+02 0.  0.
          6    2    1    2  501    0  0.24812955349E+02  0.98982868691E+02  0.10981807742E+04  0.11162119208E+04  0.17179856860E+03 0.  0.
         24    2    5    5    0    0 -0.96428793933E+01  0.89719593737E+02  0.10455818196E+04  0.10524800384E+04  0.79563176302E+02 0.  0.
          5    1    5    5  501    0  0.34455834742E+02  0.92632749540E+01  0.52598954620E+02  0.63731882428E+02  0.47000000000E+01 0. -1.
        -13    1    6    6    0    0  0.34490565916E+02  0.40671218273E+02  0.40107362419E+03  0.40460326142E+03  0.00000000000E+00 0.  1.
         14    1    6    6    0    0 -0.44133445310E+02  0.49048375464E+02  0.64450819542E+03  0.64787677694E+03  0.00000000000E+00 0. -1.
         -5    1    3    3    0  503  0.35009684512E+02  0.23599936947E+02  0.25092218244E+03  0.25449295997E+03  0.47000000000E+01 0.  1.
         11    1    4    4    0    0 -0.92744260242E+01 -0.87808200155E+02  0.37505419796E+03  0.38530759972E+03  0.00000000000E+00 0. -1.
        -12    1    4    4    0    0 -0.50548213836E+02 -0.34774605483E+02  0.12667714809E+03  0.14075331242E+03  0.00000000000E+00 0.  1.
</event>
<event>
12    1  0.1593360E-001  0.1762131E+03  0.7818608E-02  0.1171706E+00
         21   -1    0    0  501  502  0.00000000000E+00  0.00000000000E+00  0.39870631018E+03  0.39870631018E+03  0.00000000000E+00 0. -1.
         21   -1    0    0  502  503 -0.00000000000E+00 -0.00000000000E+00 -0.78071575003E+02  0.78071575003E+02  0.00000000000E+00 0. -1.
         -6    2    1    2    0  503 -0.95887320660E+01 -0.24934501969E+02  0.17947735188E+03  0.25099817303E+03  0.17341940450E+03 0.  0.
        -24    2    3    3    0    0 -0.33030231692E+02 -0.31703930697E+02  0.19912520334E+03  0.21932078145E+03  0.79715890163E+02 0.  0.
          6    2    1    2  501    0  0.95887320660E+01  0.24934501969E+02  0.14115738330E+03  0.22577971215E+03  0.17417634279E+03 0.  0.
         24    2    5    5    0    0  0.77756199947E+01 -0.34515874098E+02  0.20015530695E+02  0.90742409742E+02  0.81128032306E+02 0.  0.
          5    1    5    5  501    0  0.18131120713E+01  0.59450376066E+02  0.12114185260E+03  0.13503730241E+03  0.47000000000E+01 0. -1.
        -13    1    6    6    0    0 -0.20150941336E+02 -0.40630616782E+01 -0.23169715102E+02  0.30974257131E+02  0.00000000000E+00 0.  1.
         14    1    6    6    0    0  0.27926561331E+02 -0.30452812420E+02  0.43185245797E+02  0.59768152611E+02  0.00000000000E+00 0. -1.
         -5    1    3    3    0  503  0.23441499626E+02  0.67694287284E+01 -0.19647851463E+02  0.31677391577E+02  0.47000000000E+01 0.  1.
         13    1    4    4    0    0 -0.42770766913E+02  0.58234573436E+01  0.54142046670E+02  0.69243139555E+02  0.00000000000E+00 0. -1.
        -14    1    4    4    0    0  0.97405352217E+01 -0.37527388041E+02  0.14498315667E+03  0.15007764190E+03  0.00000000000E+00 0.  1.
</event>
<event>
12    1  0.1593360E-001  0.1791300E+03  0.7818608E-02  0.1169169E+00
         21   -1    0    0  501  502  0.00000000000E+00  0.00000000000E+00  0.44667655855E+03  0.44667655855E+03  0.00000000000E+00 0. -1.
         21   -1    0    0  502  503 -0.00000000000E+00 -0.00000000000E+00 -0.87623296522E+03  0.87623296522E+03  0.00000000000E+00 0. -1.
         -6    2    1    2    0  503 -0.45106269074E+02 -0.26457926221E+01 -0.84897690352E+03  0.86766890122E+03  0.17333771576E+03 0.  0.
        -24    2    3    3    0    0 -0.48232405076E+02 -0.59173330848E+02 -0.34037193571E+03  0.35590114277E+03  0.70602555377E+02 0.  0.
          6    2    1    2  501    0  0.45106269074E+02  0.26457926221E+01  0.41942049686E+03  0.45524062255E+03  0.17113998805E+03 0.  0.
         24    2    5    5    0    0  0.85429168854E+02  0.36865959295E+02  0.32710202377E+03  0.34874298630E+03  0.77257327767E+02 0.  0.
          5    1    5    5  501    0 -0.40322899780E+02 -0.34220166672E+02  0.92318473084E+02  0.10649763625E+03  0.47000000000E+01 0. -1.
        -11    1    6    6    0    0  0.48108502518E+01 -0.78815277112E+01  0.36042351025E+00  0.92408151325E+01  0.00000000000E+00 0.  1.
         12    1    6    6    0    0  0.80618318603E+02  0.44747487006E+02  0.32674160026E+03  0.33950217117E+03  0.00000000000E+00 0. -1.
         -5    1    3    3    0  503  0.31261360019E+01  0.56527538226E+02 -0.50860496781E+03  0.51176775845E+03  0.47000000000E+01 0.  1.
         13    1    4    4    0    0 -0.16910996222E+02  0.12677270071E+02 -0.12359673012E+03  0.12539077584E+03  0.00000000000E+00 0. -1.
        -14    1    4    4    0    0 -0.31321408854E+02 -0.71850600919E+02 -0.21677520559E+03  0.23051036693E+03  0.00000000000E+00 0.  1.
</event>
<event>
12    1  0.1593360E-001  0.2442295E+03  0.7818608E-02  0.1117022E+00
         21   -1    0    0  501  502  0.00000000000E+00  0.00000000000E+00  0.27238012353E+03  0.27238012353E+03  0.00000000000E+00 0.  1.
         21   -1    0    0  502  503 -0.00000000000E+00 -0.00000000000E+00 -0.22346485570E+03  0.22346485570E+03  0.00000000000E+00 0.  1.
         -6    2    1    2    0  503 -0.87935838136E+02 -0.14918249783E+03  0.59863209483E+02  0.25137020108E+03  0.17209080408E+03 0.  0.
        -24    2    3    3    0    0 -0.10555180718E+02 -0.82446872461E+02  0.88393425412E+02  0.14517475363E+03  0.79708298300E+02 0.  0.
          6    2    1    2  501    0  0.87935838136E+02  0.14918249783E+03 -0.10947941649E+02  0.24447477816E+03  0.17222058658E+03 0.  0.
         24    2    5    5    0    0  0.37463944640E+02  0.10339395889E+03  0.58524154544E+02  0.14704549877E+03  0.78124542637E+02 0.  0.
          5    1    5    5  501    0  0.50471893495E+02  0.45788538949E+02 -0.69472096193E+02  0.97429279386E+02  0.47000000000E+01 0. -1.
        -13    1    6    6    0    0  0.11618509911E+02  0.10792810846E+03  0.49407125537E+02  0.11926663583E+03  0.00000000000E+00 0.  1.
         14    1    6    6    0    0  0.25845434730E+02 -0.45341495707E+01  0.91170290074E+01  0.27778862947E+02  0.00000000000E+00 0. -1.
         -5    1    3    3    0  503 -0.77380657418E+02 -0.66735625374E+02 -0.28530215929E+02  0.10619544744E+03  0.47000000000E+01 0.  1.
         13    1    4    4    0    0  0.15317298107E+02  0.53232763306E+00 -0.63597557310E+01  0.16593658034E+02  0.00000000000E+00 0. -1.
        -14    1    4    4    0    0 -0.25872478825E+02 -0.82979200094E+02  0.94753181143E+02  0.12858109560E+03  0.00000000000E+00 0.  1.
</event>
<event>
12    1  0.1593360E-001  0.2503585E+03  0.7818608E-02  0.1113892E+00
         21   -1    0    0  501  502  0.00000000000E+00  0.00000000000E+00  0.23631084415E+04  0.23631084415E+04  0.00000000000E+00 0. -1.
         21   -1    0    0  502  503 -0.00000000000E+00 -0.00000000000E+00 -0.46822917849E+02  0.46822917849E+02  0.00000000000E+00 0. -1.
         -6    2    1    2    0  503  0.26892437549E+02  0.17079149680E+03  0.34773941697E+03  0.42552888957E+03  0.17395170354E+03 0.  0.
        -24    2    3    3    0    0  0.36094739040E+02  0.80465957605E+02  0.30134231663E+03  0.32345947053E+03  0.77725393298E+02 0.  0.
          6    2    1    2  501    0 -0.26892437549E+02 -0.17079149680E+03  0.19685461067E+04  0.19844024698E+04  0.18107028854E+03 0.  0.
         24    2    5    5    0    0  0.23479141816E+02 -0.17054580620E+03  0.12495975123E+04  0.12636760809E+04  0.75803379933E+02 0.  0.
          5    1    5    5  501    0 -0.50371579365E+02 -0.24569059042E+00  0.71894859435E+03  0.72072638892E+03  0.47000000000E+01 0. -1.
        -13    1    6    6    0    0 -0.74646239435E+01 -0.15144319864E+03  0.99017134868E+03  0.10017135632E+04  0.00000000000E+00 0.  1.
         14    1    6    6    0    0  0.30943765760E+02 -0.19102607567E+02  0.25942616365E+03  0.26196251763E+03  0.00000000000E+00 0. -1.
         -5    1    3    3    0  503 -0.92023014908E+01  0.90325539190E+02  0.46397100349E+02  0.10206941904E+03  0.47000000000E+01 0.  1.
         11    1    4    4    0    0  0.19941407930E+02  0.83076781911E+02  0.16189800996E+03  0.18305839798E+03  0.00000000000E+00 0. -1.
        -12    1    4    4    0    0  0.16153331110E+02 -0.26108243065E+01  0.13944430667E+03  0.14040107254E+03  0.00000000000E+00 0.  1.
</event>
<event>
12    1  0.1593360E-001  0.1767982E+03  0.7818608E-02  0.1171250E+00
         21   -1    0    0  503  502  0.00000000000E+00  0.00000000000E+00  0.14465931358E+03  0.14465931358E+03  0.00000000000E+00 0. -1.
         21   -1    0    0  501  503 -0.00000000000E+00 -0.00000000000E+00 -0.24738301485E+03  0.24738301485E+03  0.00000000000E+00 0. -1.
          6    2    1    2  501    0  0.39204896041E+02  0.12058037042E+00 -0.12261613732E+03  0.21412853667E+03  0.17111187764E+03 0.  0.
         24    2    3    3    0    0  0.41346440027E+02  0.65146731119E+02 -0.75384263589E+02  0.13359328732E+03  0.78808340553E+02 0.  0.
         -6    2    1    2    0  502 -0.39204896041E+02 -0.12058037042E+00  0.19892436050E+02  0.17791379176E+03  0.17239654832E+03 0.  0.
        -24    2    5    5    0    0 -0.15325159216E+02  0.61888347885E+02  0.36796480394E+02  0.10918835448E+03  0.80641724160E+02 0.  0.
          5    1    3    3  501    0 -0.21415439867E+01 -0.65026150748E+02 -0.47231873735E+02  0.80535249352E+02  0.47000000000E+01 0. -1.
        -11    1    4    4    0    0  0.77904013727E+01  0.74399595243E+02 -0.44388178566E+02  0.86984484376E+02  0.00000000000E+00 0.  1.
         12    1    4    4    0    0  0.33556038655E+02 -0.92528641244E+01 -0.30996085024E+02  0.46608802940E+02  0.00000000000E+00 0. -1.
         -5    1    5    5    0  502 -0.23879736825E+02 -0.62008928256E+02 -0.16904044344E+02  0.68725437281E+02  0.47000000000E+01 0.  1.
         13    1    6    6    0    0 -0.22649046731E+02  0.59436349670E+02 -0.76607978909E+01  0.64065176221E+02  0.00000000000E+00 0. -1.
        -14    1    6    6    0    0  0.73238875153E+01  0.24519982150E+01  0.44457278285E+02  0.45123178258E+02  0.00000000000E+00 0.  1.
</event>
<event>
12    1  0.1593360E-001  0.2145320E+03  0.7818608E-02  0.1138038E+00
         21   -1    0    0  503  502  0.00000000000E+00  0.00000000000E+00  0.49637763862E+02  0.49637763862E+02  0.00000000000E+00 0.  1.
         21   -1    0    0  501  503 -0.00000000000E+00 -0.00000000000E+00 -0.92825393115E+03  0.92825393115E+03  0.00000000000E+00 0. -1.
          6    2    1    2  501    0 -0.84629415587E+02  0.95597470298E+02 -0.45777455691E+03  0.50555071246E+03  0.17240349069E+03 0.  0.
         24    2    3    3    0    0 -0.32938672201E+02  0.55902472805E+02 -0.13163158716E+03  0.17292637105E+03  0.91469188664E+02 0.  0.
         -6    2    1    2    0  502  0.84629415587E+02 -0.95597470298E+02 -0.42084161038E+03  0.47234098256E+03  0.17232912831E+03 0.  0.
        -24    2    5    5    0    0  0.11403475207E+02 -0.28237173298E+02 -0.31794740344E+03  0.32913219868E+03  0.79435984628E+02 0.  0.
          5    1    3    3  501    0 -0.51690743386E+02  0.39694997493E+02 -0.32614296975E+03  0.33262434141E+03  0.47000000000E+01 0. -1.
        -11    1    4    4    0    0 -0.38873728071E+02  0.74973915590E+02 -0.12684477930E+03  0.15238718052E+03  0.00000000000E+00 0.  1.
         12    1    4    4    0    0  0.59350558694E+01 -0.19071442785E+02 -0.47868078635E+01  0.20539190529E+02  0.00000000000E+00 0. -1.
         -5    1    5    5    0  502  0.73225940380E+02 -0.67360297000E+02 -0.10289420694E+03  0.14320878387E+03  0.47000000000E+01 0.  1.
         13    1    6    6    0    0 -0.27643789407E+02 -0.31434560109E+02 -0.21380250705E+03  0.21786193491E+03  0.00000000000E+00 0. -1.
        -14    1    6    6    0    0  0.39047264614E+02  0.31973868109E+01 -0.10414489639E+03  0.11127026378E+03  0.00000000000E+00 0.  1.
</event>
<event>
12    1  0.1593360E-001  0.1734571E+03  0.7818608E-02  0.1174343E+00
         21   -1    0    0  501  502  0.00000000000E+00  0.00000000000E+00  0.49134041120E+03  0.49134041120E+03  0.00000000000E+00 0. -1.
         21   -1    0    0  502  503 -0.00000000000E+00 -0.00000000000E+00 -0.68367587395E+02  0.68367587395E+02  0.00000000000E+00 0. -1.
         -6    2    1    2    0  503 -0.22546550480E+02 -0.11056845820E+01  0.12051755194E+03  0.21104404123E+03  0.17177176000E+03 0.  0.
        -24    2    3    3    0    0 -0.75524093641E+02  0.26608372400E+02  0.84568008402E+02  0.14112159337E+03  0.79697314059E+02 0.  0.
          6    2    1    2  501    0  0.22546550480E+02  0.11056845820E+01  0.30245527187E+03  0.34866395737E+03  0.17198195897E+03 0.  0.
         24    2    5    5    0    0 -0.40485005264E+02 -0.27102714333E+02  0.19481825960E+03  0.22069322948E+03  0.91530074214E+02 0.  0.
          5    1    5    5  501    0  0.63031555744E+02  0.28208398915E+02  0.10763701226E+03  0.12797072789E+03  0.47000000000E+01 0. -1.
        -11    1    6    6    0    0  0.69483697383E+01 -0.48689502531E+02  0.71165435351E+02  0.86507032590E+02  0.00000000000E+00 0.  1.
         12    1    6    6    0    0 -0.47433375002E+02  0.21586788199E+02  0.12365282425E+03  0.13418619689E+03  0.00000000000E+00 0. -1.
         -5    1    3    3    0  503  0.52977543161E+02 -0.27714056982E+02  0.35949543541E+02  0.69922447859E+02  0.47000000000E+01 0.  1.
         11    1    4    4    0    0 -0.48428689650E+02 -0.18664084957E+02  0.68552077327E+02  0.85982982934E+02  0.00000000000E+00 0. -1.
        -12    1    4    4    0    0 -0.27095403992E+02  0.45272457357E+02  0.16015931075E+02  0.55138610436E+02  0.00000000000E+00 0.  1.
</event>
<event>
12    1  0.1593360E-001  0.1988392E+03  0.7818608E-02  0.1151051E+00
         21   -1    0    0  501  502  0.00000000000E+00  0.00000000000E+00  0.10121261171E+03  0.10121261171E+03  0.00000000000E+00 0. -1.
         21   -1    0    0  502  503 -0.00000000000E+00 -0.00000000000E+00 -0.54321147686E+03  0.54321147686E+03  0.00000000000E+00 0.  1.
         -6    2    1    2    0  503  0.56310767665E+02 -0.79733438942E+02 -0.39283583380E+03  0.43959724126E+03  0.17145675363E+03 0.  0.
        -24    2    3    3    0    0  0.25902329752E+02 -0.46949467637E+01 -0.74973863170E+02  0.11155186212E+03  0.78292813027E+02 0.  0.
          6    2    1    2  501    0 -0.56310767665E+02  0.79733438942E+02 -0.49163031345E+02  0.20482684731E+03  0.17323022221E+03 0.  0.
         24    2    5    5    0    0 -0.58528710568E+01  0.69311325727E+02  0.30348699388E+02  0.10996470998E+03  0.79579381210E+02 0.  0.
          5    1    5    5  501    0 -0.50457896608E+02  0.10422113215E+02 -0.79511730732E+02  0.94862137326E+02  0.47000000000E+01 0. -1.
        -13    1    6    6    0    0  0.38901065170E+01  0.34119802535E+02 -0.25823672755E+02  0.42966916672E+02  0.00000000000E+00 0.  1.
         14    1    6    6    0    0 -0.97429775739E+01  0.35191523192E+02  0.56172372143E+02  0.66997793312E+02  0.00000000000E+00 0. -1.
         -5    1    3    3    0  503  0.30408437913E+02 -0.75038492178E+02 -0.31786197063E+03  0.32804537915E+03  0.47000000000E+01 0.  1.
         11    1    4    4    0    0  0.24563977783E+02 -0.31010651155E+02 -0.75455979687E+02  0.85197736825E+02  0.00000000000E+00 0. -1.
        -12    1    4    4    0    0  0.13383519684E+01  0.26315704392E+02  0.48211651626E+00  0.26354125293E+02  0.00000000000E+00 0.  1.
</event>
<event>
12    1  0.1593360E-001  0.1756851E+03  0.7818608E-02  0.1176354E+00
         21   -1    0    0  503  502  0.00000000000E+00  0.00000000000E+00  0.69219844382E+02  0.69219844382E+02  0.00000000000E+00 0.  1.
         21   -1    0    0  501  503 -0.00000000000E+00 -0.00000000000E+00 -0.53443479521E+03  0.53443479521E+03  0.00000000000E+00 0.  1.
          6    2    1    2  501    0 -0.73838663299E+01  0.34052393548E+02 -0.38945495260E+03  0.42724747412E+03  0.17219511332E+03 0.  0.
         24    2    3    3    0    0  0.37226721534E+02 -0.22222792323E+02 -0.29709807229E+03  0.31016252874E+03  0.77806480333E+02 0.  0.
         -6    2    1    2    0  502  0.73838663299E+01 -0.34052393548E+02 -0.75759998229E+02  0.17640716547E+03  0.15545360629E+03 0.  0.
        -24    2    5    5    0    0 -0.17643145888E+02 -0.74732636676E+01 -0.99179754767E+02  0.13277946232E+03  0.86177906636E+02 0.  0.
          5    1    3    3  501    0 -0.44610587864E+02  0.56275185871E+02 -0.92356880308E+02  0.11708494538E+03  0.47000000000E+01 0. -1.
        -11    1    4    4    0    0  0.24296449836E+02  0.23326167312E+02 -0.64185210685E+02  0.72485645660E+02  0.00000000000E+00 0.  1.
         12    1    4    4    0    0  0.12930271698E+02 -0.45548959635E+02 -0.23291286161E+03  0.23767688308E+03  0.00000000000E+00 0. -1.
         -5    1    5    5    0  502  0.25027012218E+02 -0.26579129880E+02  0.23419756538E+02  0.43627703149E+02  0.47000000000E+01 0.  1.
         11    1    6    6    0    0 -0.22858371707E+02  0.36937949865E+02 -0.45310334614E+02  0.62768970998E+02  0.00000000000E+00 0. -1.
        -12    1    6    6    0    0  0.52152258191E+01 -0.44411213533E+02 -0.53869420153E+02  0.70010491324E+02  0.00000000000E+00 0.  1.
</event>
<event>
12    1  0.1593360E-001  0.1855278E+03  0.7818608E-02  0.1162960E+00
         21   -1    0    0  501  502  0.00000000000E+00  0.00000000000E+00  0.24448950933E+03  0.24448950933E+03  0.00000000000E+00 0.  1.
         21   -1    0    0  502  503 -0.00000000000E+00 -0.00000000000E+00 -0.59917507365E+03  0.59917507365E+03  0.00000000000E+00 0. -1.
         -6    2    1    2    0  503  0.68863661004E+02 -0.10838749715E+02 -0.54701883069E+03  0.57762458574E+03  0.17193277356E+03 0.  0.
        -24    2    3    3    0    0  0.46745218229E+02 -0.53527487629E+01 -0.12339781999E+03  0.15336502790E+03  0.77974627009E+02 0.  0.
          6    2    1    2  501    0 -0.68863661004E+02  0.10838749715E+02  0.19233326637E+03  0.26603999724E+03  0.17007502015E+03 0.  0.
         24    2    5    5    0    0  0.26202043366E+02  0.89125435605E+01  0.72790019378E+02  0.11322024617E+03  0.82185501837E+02 0.  0.
          5    1    5    5  501    0 -0.95065704370E+02  0.19262061549E+01  0.11954324699E+03  0.15281975107E+03  0.47000000000E+01 0. -1.
        -13    1    6    6    0    0 -0.27268947109E+02  0.17359323079E+01  0.71310260886E+01  0.28239342600E+02  0.00000000000E+00 0.  1.
         14    1    6    6    0    0  0.53470990476E+02  0.71766112525E+01  0.65658993289E+02  0.84980903568E+02  0.00000000000E+00 0. -1.
         -5    1    3    3    0  503  0.22118442775E+02 -0.54860009525E+01 -0.42362101069E+03  0.42425955784E+03  0.47000000000E+01 0.  1.
         11    1    4    4    0    0  0.52800408224E+02 -0.33647080508E+01 -0.13225970797E+03  0.14244941110E+03  0.00000000000E+00 0. -1.
        -12    1    4    4    0    0 -0.60551899946E+01 -0.19880407122E+01  0.88618879765E+01  0.10915616806E+02  0.00000000000E+00 0.  1.
</event>
<event>
12    1  0.1593360E-001  0.1969095E+03  0.7818608E-02  0.1152550E+00
         21   -1    0    0  501  502  0.00000000000E+00  0.00000000000E+00  0.49202027799E+03  0.49202027799E+03  0.00000000000E+00 0.  1.
         21   -1    0    0  502  503 -0.00000000000E+00 -0.00000000000E+00 -0.90745731423E+02  0.90745731423E+02  0.00000000000E+00 0. -1.
         -6    2    1    2    0  503 -0.38001485228E+02 -0.87212630153E+02  0.93858894749E+02  0.21813493644E+03  0.17240418393E+03 0.  0.
        -24    2    3    3    0    0  0.31571630324E+02 -0.78170504080E+02  0.13695513034E+02  0.11150268888E+03  0.71679055528E+02 0.  0.
          6    2    1    2  501    0  0.38001485228E+02  0.87212630153E+02  0.30741565182E+03  0.36463107297E+03  0.17146801642E+03 0.  0.
         24    2    5    5    0    0  0.61783689005E+02  0.91412853831E+02  0.31081586221E+03  0.33979387252E+03  0.81730297497E+02 0.  0.
          5    1    5    5  501    0 -0.23782203777E+02 -0.42002236778E+01 -0.34002103928E+01  0.24837200449E+02  0.47000000000E+01 0. -1.
        -13    1    6    6    0    0  0.38957939741E+02  0.92232889209E+02  0.29623130339E+03  0.31269411895E+03  0.00000000000E+00 0.  1.
         14    1    6    6    0    0  0.22825749264E+02 -0.82003537765E+00  0.14584558824E+02  0.27099753570E+02  0.00000000000E+00 0. -1.
         -5    1    3    3    0  503 -0.69573115552E+02 -0.90421260737E+01  0.80163381715E+02  0.10663224756E+03  0.47000000000E+01 0.  1.
         13    1    4    4    0    0  0.51598851441E+02 -0.72404573351E+02  0.16646009164E+02  0.90454150448E+02  0.00000000000E+00 0. -1.
        -14    1    4    4    0    0 -0.20027221116E+02 -0.57659307288E+01 -0.29504961304E+01  0.21048538435E+02  0.00000000000E+00 0.  1.
</event>
<event>
12    1  0.1593360E-001  0.1892821E+03  0.7818608E-02  0.1159288E+00
         21   -1    0    0  503  502  0.00000000000E+00  0.00000000000E+00  0.37939081811E+03  0.37939081811E+03  0.00000000000E+00 0. -1.
         21   -1    0    0  501  503 -0.00000000000E+00 -0.00000000000E+00 -0.14011967356E+03  0.14011967356E+03  0.00000000000E+00 0. -1.
          6    2    1    2  501    0  0.58611878534E+01 -0.76354602481E+02 -0.29483151328E+02  0.19079089472E+03  0.17224264992E+03 0.  0.
         24    2    3    3    0    0 -0.32182625296E+02  0.13126947203E+02 -0.34037547247E+02  0.93337767653E+02  0.79657680948E+02 0.  0.
         -6    2    1    2    0  502 -0.58611878534E+01  0.76354602481E+02  0.26875429587E+03  0.32871959695E+03  0.17309917107E+03 0.  0.
        -24    2    5    5    0    0 -0.34487403476E+02  0.92992664330E+02  0.26648419417E+03  0.29520051754E+03  0.79325299835E+02 0.  0.
          5    1    3    3  501    0  0.38043813149E+02 -0.89481549684E+02  0.45543959198E+01  0.97453127066E+02  0.47000000000E+01 0. -1.
        -13    1    4    4    0    0 -0.16496955869E+02  0.29615998327E+02  0.16655039734E+02  0.37770984345E+02  0.00000000000E+00 0.  1.
         14    1    4    4    0    0 -0.15685669427E+02 -0.16489051124E+02 -0.50692586982E+02  0.55566783308E+02  0.00000000000E+00 0. -1.
         -5    1    5    5    0  502  0.28626215623E+02 -0.16638061848E+02  0.22701017052E+01  0.33519079413E+02  0.47000000000E+01 0.  1.
         13    1    6    6    0    0 -0.74069555980E+00  0.82361786809E+02  0.12755243038E+03  0.15183423544E+03  0.00000000000E+00 0. -1.
        -14    1    6    6    0    0 -0.33746707917E+02  0.10630877521E+02  0.13893176379E+03  0.14336628209E+03  0.00000000000E+00 0.  1.
</event>
<event>
12    1  0.1593360E-001  0.1920085E+03  0.7818608E-02  0.1156728E+00
         21   -1    0    0  501  502  0.00000000000E+00  0.00000000000E+00  0.83138456293E+03  0.83138456293E+03  0.00000000000E+00 0.  1.
         21   -1    0    0  502  503 -0.00000000000E+00 -0.00000000000E+00 -0.75224889755E+02  0.75224889755E+02  0.00000000000E+00 0. -1.
         -6    2    1    2    0  503 -0.79242455859E+02  0.34477027084E+02  0.87149924283E+02  0.21059127643E+03  0.17113019664E+03 0.  0.
        -24    2    3    3    0    0 -0.56874129448E+02  0.88802185279E+02  0.58690851760E+02  0.14514226079E+03  0.80629802663E+02 0.  0.
          6    2    1    2  501    0  0.79242455859E+02 -0.34477027084E+02  0.66900974890E+03  0.69601817625E+03  0.17146202306E+03 0.  0.
         24    2    5    5    0    0  0.19079721507E+02 -0.22016520335E+02  0.59088257003E+03  0.59651558880E+03  0.76419062891E+02 0.  0.
          5    1    5    5  501    0  0.60162734352E+02 -0.12460506748E+02  0.78127178868E+02  0.99502587459E+02  0.47000000000E+01 0. -1.
        -11    1    6    6    0    0  0.40424317801E+02 -0.13556029928E+02  0.52534756429E+03  0.52707490428E+03  0.00000000000E+00 0.  1.
         12    1    6    6    0    0 -0.21344596294E+02 -0.84604904076E+01  0.65535005743E+02  0.69440684520E+02  0.00000000000E+00 0. -1.
         -5    1    3    3    0  503 -0.22368326411E+02 -0.54325158195E+02  0.28459072523E+02  0.65449015640E+02  0.47000000000E+01 0.  1.
         13    1    4    4    0    0 -0.64388333918E+02  0.47164917426E+02  0.64258973717E+02  0.10246756894E+03  0.00000000000E+00 0. -1.
        -14    1    4    4    0    0  0.75142044696E+01  0.41637267853E+02 -0.55681219575E+01  0.42674691858E+02  0.00000000000E+00 0.  1.
</event>
<event>
12    1  0.1593360E-001  0.1783784E+03  0.7818608E-02  0.1169651E+00
         21   -1    0    0  501  502  0.00000000000E+00  0.00000000000E+00  0.10751019221E+04  0.10751019221E+04  0.00000000000E+00 0. -1.
         21   -1    0    0  502  503 -0.00000000000E+00 -0.00000000000E+00 -0.50563332312E+02  0.50563332312E+02  0.00000000000E+00 0. -1.
         -6    2    1    2    0  503  0.13023642584E+02  0.41714429395E+02  0.14734721077E+03  0.23052081298E+03  0.17181075581E+03 0.  0.
        -24    2    3    3    0    0  0.71563837531E+02  0.51798754910E+02  0.10641138769E+03  0.15822641724E+03  0.76861705864E+02 0.  0.
          6    2    1    2  501    0 -0.13023642584E+02 -0.41714429395E+02  0.87719137902E+03  0.89514444143E+03  0.17294261104E+03 0.  0.
         24    2    5    5    0    0 -0.33912646098E+02  0.29539782853E+02  0.63768982048E+03  0.64435249624E+03  0.80741352026E+02 0.  0.
          5    1    5    5  501    0  0.20889003514E+02 -0.71254212248E+02  0.23950155854E+03  0.25079194519E+03  0.47000000000E+01 0. -1.
        -11    1    6    6    0    0 -0.11432768514E+02 -0.64644718940E+01  0.13912030286E+02  0.19132228815E+02  0.00000000000E+00 0.  1.
         12    1    6    6    0    0 -0.22479877585E+02  0.36004254747E+02  0.62377779019E+03  0.62522026742E+03  0.00000000000E+00 0. -1.
         -5    1    3    3    0  503 -0.58540194946E+02 -0.10084325515E+02  0.40935823078E+02  0.72294395748E+02  0.47000000000E+01 0.  1.
         11    1    4    4    0    0  0.51100191526E+02  0.94086723393E+01  0.12900675250E+02  0.53536717411E+02  0.00000000000E+00 0. -1.
        -12    1    4    4    0    0  0.20463646005E+02  0.42390082571E+02  0.93510712441E+02  0.10468969982E+03  0.00000000000E+00 0.  1.
</event>
<event>
12    1  0.1593360E-001  0.2126411E+03  0.7818608E-02  0.1139643E+00
         21   -1    0    0  503  502  0.00000000000E+00  0.00000000000E+00  0.61401399023E+03  0.61401399023E+03  0.00000000000E+00 0.  1.
         21   -1    0    0  501  503 -0.00000000000E+00 -0.00000000000E+00 -0.86433499724E+02  0.86433499724E+02  0.00000000000E+00 0.  1.
          6    2    1    2  501    0 -0.77861871052E+02  0.98032562411E+02  0.12805196386E+03  0.24822078957E+03  0.17188193817E+03 0.  0.
         24    2    3    3    0    0 -0.10274555478E+03  0.62180781511E+02  0.37559296226E+02  0.14764464525E+03  0.77234331238E+02 0.  0.
         -6    2    1    2    0  502  0.77861871052E+02 -0.98032562411E+02  0.39952852665E+03  0.45222670039E+03  0.17091837432E+03 0.  0.
        -24    2    5    5    0    0 -0.15779733130E+02 -0.56720138255E+02  0.12852102769E+03  0.16249817070E+03  0.80136301765E+02 0.  0.
          5    1    3    3  501    0  0.24883683733E+02  0.35851780900E+02  0.90492667629E+02  0.10057614431E+03  0.47000000000E+01 0. -1.
        -13    1    4    4    0    0 -0.27324427269E+02  0.61332097592E+02  0.13621236329E+02  0.68511229735E+02  0.00000000000E+00 0.  1.
         14    1    4    4    0    0 -0.75421127515E+02  0.84868391896E+00  0.23938059897E+02  0.79133415519E+02  0.00000000000E+00 0. -1.
         -5    1    5    5    0  502  0.93641604182E+02 -0.41312424156E+02  0.27100749896E+03  0.28972852969E+03  0.47000000000E+01 0.  1.
         11    1    6    6    0    0 -0.22532686258E+02 -0.52399869998E+02  0.31524701115E+02  0.65171121720E+02  0.00000000000E+00 0. -1.
        -12    1    6    6    0    0  0.67529531281E+01 -0.43202682566E+01  0.96996326578E+02  0.97327048981E+02  0.00000000000E+00 0.  1.
</event>
<event>
12    1  0.1593360E-001  0.1752241E+03  0.7818608E-02  0.1175415E+00
         21   -1    0    0  503  502  0.00000000000E+00  0.00000000000E+00  0.72173580003E+03  0.72173580003E+03  0.00000000000E+00 0.  1.
         21   -1    0    0  501  503 -0.00000000000E+00 -0.00000000000E+00 -0.13856708226E+03  0.13856708226E+03  0.00000000000E+00 0. -1.
          6    2    1    2  501    0  0.27597982691E+02 -0.21546012349E+02 -0.74169291858E+02  0.18001122741E+03  0.16024069035E+03 0.  0.
         24    2    3    3    0    0  0.12758348597E+02 -0.26407224832E+02 -0.10936196306E+03  0.14122385533E+03  0.84403917974E+02 0.  0.
         -6    2    1    2    0  502 -0.27597982691E+02  0.21546012349E+02  0.65733800964E+03  0.68029165488E+03  0.17169041175E+03 0.  0.
        -24    2    5    5    0    0  0.51401461194E+01  0.37815607991E+01  0.13894759728E+03  0.16054357125E+03  0.80169084902E+02 0.  0.
          5    1    3    3  501    0  0.14839634094E+02  0.48612124824E+01  0.35192671198E+02  0.38787372080E+02  0.47000000000E+01 0. -1.
        -11    1    4    4    0    0 -0.15592812668E+02  0.20576219663E+02 -0.99418267443E+01  0.27665078015E+02  0.00000000000E+00 0.  1.
         12    1    4    4    0    0  0.28351161265E+02 -0.46983444495E+02 -0.99420136311E+02  0.11355877732E+03  0.00000000000E+00 0. -1.
         -5    1    5    5    0  502 -0.32738128810E+02  0.17764451550E+02  0.51839041235E+03  0.51974808363E+03  0.47000000000E+01 0.  1.
         13    1    6    6    0    0 -0.37342919365E+02  0.45560030592E+01  0.72341866111E+02  0.81538925569E+02  0.00000000000E+00 0. -1.
        -14    1    6    6    0    0  0.42483065485E+02 -0.77444226010E+00  0.66605731173E+02  0.79004645679E+02  0.00000000000E+00 0.  1.
</event>
<event>
12    1  0.1593360E-001  0.1995050E+03  0.7818608E-02  0.1150338E+00
         21   -1    0    0  503  502  0.00000000000E+00  0.00000000000E+00  0.19275036367E+03  0.19275036367E+03  0.00000000000E+00 0. -1.
         21   -1    0    0  501  503 -0.00000000000E+00 -0.00000000000E+00 -0.24265100072E+03  0.24265100072E+03  0.00000000000E+00 0. -1.
          6    2    1    2  501    0  0.90499875438E+02  0.45434648121E+02 -0.10995509633E+03  0.22705362223E+03  0.17090549861E+03 0.  0.
         24    2    3    3    0    0  0.10123462621E+03 -0.71959655034E+01 -0.32679447578E+02  0.13282606652E+03  0.79212285601E+02 0.  0.
         -6    2    1    2    0  502 -0.90499875438E+02 -0.45434648121E+02  0.60054459281E+02  0.20834774216E+03  0.17189447019E+03 0.  0.
        -24    2    5    5    0    0 -0.40980603909E+02 -0.67581824383E+02 -0.18316331952E+02  0.11291857164E+03  0.78539180800E+02 0.  0.
          5    1    3    3  501    0 -0.10734750776E+02  0.52630613625E+02 -0.77275648751E+02  0.94227555707E+02  0.47000000000E+01 0. -1.
        -13    1    4    4    0    0  0.79597037717E+02  0.19756583322E+02  0.44070294191E+01  0.82130584475E+02  0.00000000000E+00 0.  1.
         14    1    4    4    0    0  0.21637588496E+02 -0.26952548825E+02 -0.37086476997E+02  0.50695482049E+02  0.00000000000E+00 0. -1.
         -5    1    5    5    0  502 -0.49519271528E+02  0.22147176261E+02  0.78370791233E+02  0.95429170528E+02  0.47000000000E+01 0.  1.
         11    1    6    6    0    0  0.13511187460E+02 -0.21373729334E+02  0.19638643975E+02  0.32016633636E+02  0.00000000000E+00 0. -1.
        -12    1    6    6    0    0 -0.54491791370E+02 -0.46208095049E+02 -0.37954975927E+02  0.80901938001E+02  0.00000000000E+00 0.  1.
</event>
<event>
12    1  0.1593360E-001  0.1781175E+03  0.7818608E-02  0.1169971E+00
         21   -1    0    0  503  502  0.00000000000E+00  0.00000000000E+00  0.18293539461E+03  0.18293539461E+03  0.00000000000E+00 0.  1.
         21   -1    0    0  501  503 -0.00000000000E+00 -0.00000000000E+00 -0.31849145990E+03  0.31849145990E+03  0.00000000000E+00 0.  1.
          6    2    1    2  501    0 -0.17554614219E+02  0.31582611859E+02 -0.23760782185E+03  0.29614556786E+03  0.17302917242E+03 0.  0.
         24    2    3    3    0    0 -0.72730053896E+01  0.87324216624E+02 -0.15468974736E+03  0.19559540596E+03  0.81548939160E+02 0.  0.
         -6    2    1    2    0  502  0.17554614219E+02 -0.31582611859E+02  0.10205175656E+03  0.20528128664E+03  0.17441393229E+03 0.  0.
        -24    2    5    5    0    0  0.25028380985E+02 -0.71390675303E+02  0.18707703248E+02  0.11249734230E+03  0.81133380854E+02 0.  0.
          5    1    3    3  501    0 -0.10281608830E+02 -0.55741604765E+02 -0.82918074483E+02  0.10055016190E+03  0.47000000000E+01 0. -1.
        -11    1    4    4    0    0  0.32647992548E+02  0.12974814740E+02 -0.50472502456E+02  0.61495615609E+02  0.00000000000E+00 0.  1.
         12    1    4    4    0    0 -0.39920997938E+02  0.74349401884E+02 -0.10421724491E+03  0.13409979036E+03  0.00000000000E+00 0. -1.
         -5    1    5    5    0  502 -0.74737667658E+01  0.39808063444E+02  0.83344053313E+02  0.92783944341E+02  0.47000000000E+01 0.  1.
         11    1    6    6    0    0  0.94182560528E+01 -0.87786331811E+02  0.14584512462E+02  0.89486600135E+02  0.00000000000E+00 0. -1.
        -12    1    6    6    0    0  0.15610124933E+02  0.16395656508E+02  0.41231907861E+01  0.23010742165E+02  0.00000000000E+00 0.  1.
</event>
<event>
12    1  0.1593360E-001  0.1832999E+03  0.7818608E-02  0.1166642E+00
         21   -1    0    0  501  502  0.00000000000E+00  0.00000000000E+00  0.57214511043E+03  0.57214511043E+03  0.00000000000E+00 0. -1.
         21   -1    0    0  502  503 -0.00000000000E+00 -0.00000000000E+00 -0.12817460360E+03  0.12817460360E+03  0.00000000000E+00 0. -1.
         -6    2    1    2    0  503  0.42334785178E+02  0.48250807883E+02 -0.38300236636E+02  0.18725853373E+03  0.17169296966E+03 0.  0.
        -24    2    3    3    0    0  0.85859652801E+01  0.92508423837E+02 -0.41609547677E+02  0.13130533048E+03  0.82934962914E+02 0.  0.
          6    2    1    2  501    0 -0.42334785178E+02 -0.48250807883E+02  0.48227074346E+03  0.51306118030E+03  0.16286905857E+03 0.  0.
         24    2    5    5    0    0  0.10104274506E+02  0.25725338925E+02  0.25525808932E+03  0.26856340850E+03  0.78776410147E+02 0.  0.
          5    1    5    5  501    0 -0.52439059684E+02 -0.73976146808E+02  0.22701265414E+03  0.24449777180E+03  0.47000000000E+01 0. -1.
        -13    1    6    6    0    0 -0.20408513889E+02  0.19004184620E+02  0.21870917956E+03  0.22047986687E+03  0.00000000000E+00 0.  1.
         14    1    6    6    0    0  0.30512788395E+02  0.67211543044E+01  0.36548909760E+02  0.48083541628E+02  0.00000000000E+00 0. -1.
         -5    1    3    3    0  503  0.33748819898E+02 -0.44257615953E+02  0.33093110409E+01  0.55953203250E+02  0.47000000000E+01 0.  1.
         11    1    4    4    0    0 -0.20700232713E+02 -0.41145933115E+01 -0.17710275514E+02  0.27551467679E+02  0.00000000000E+00 0. -1.
        -12    1    4    4    0    0  0.29286197993E+02  0.96623017148E+02 -0.23899272163E+02  0.10375386280E+03  0.00000000000E+00 0.  1.
</event>
<event>
12    1  0.1593360E-001  0.1955182E+03  0.7818608E-02  0.1155239E+00
         21   -1    0    0  503  502  0.00000000000E+00  0.00000000000E+00  0.40438997368E+03  0.40438997368E+03  0.00000000000E+00 0. -1.
         21   -1    0    0  501  503 -0.00000000000E+00 -0.00000000000E+00 -0.12631246203E+03  0.12631246203E+03  0.00000000000E+00 0. -1.
          6    2    1    2  501    0 -0.27230545410E+02 -0.69722690846E+02 -0.33145330517E+01  0.18805271533E+03  0.17248211905E+03 0.  0.
         24    2    3    3    0    0 -0.28488513777E+02  0.72956616459E-01  0.47767656630E+02  0.10142422699E+03  0.84814645318E+02 0.  0.
         -6    2    1    2    0  502  0.27230545410E+02  0.69722690846E+02  0.28139204470E+03  0.34264972038E+03  0.18062278880E+03 0.  0.
        -24    2    5    5    0    0 -0.86504307894E+01  0.50675252341E+02  0.28532667684E+03  0.30156662536E+03  0.82995818336E+02 0.  0.
          5    1    3    3  501    0  0.12579683673E+01 -0.69795647463E+02 -0.51082189682E+02  0.86628488339E+02  0.47000000000E+01 0. -1.
        -11    1    4    4    0    0 -0.26915057621E+02 -0.38671456470E+02  0.11882744006E+02  0.48591166660E+02  0.00000000000E+00 0.  1.
         12    1    4    4    0    0 -0.15734561569E+01  0.38744413087E+02  0.35884912624E+02  0.52833060329E+02  0.00000000000E+00 0. -1.
         -5    1    5    5    0  502  0.35880976200E+02  0.19047438505E+02 -0.39346321363E+01  0.41083095023E+02  0.47000000000E+01 0.  1.
         13    1    6    6    0    0  0.35692099094E+02  0.23806529106E+02  0.93797701240E+02  0.10314400382E+03  0.00000000000E+00 0. -1.
        -14    1    6    6    0    0 -0.44342529883E+02  0.26868723236E+02  0.19152897560E+03  0.19842262154E+03  0.00000000000E+00 0.  1.
</event>
<event>
12    1  0.1593360E-001  0.1757557E+03  0.7818608E-02  0.1172252E+00
         21   -1    0    0  503  502  0.00000000000E+00  0.00000000000E+00  0.29355183757E+03  0.29355183757E+03  0.00000000000E+00 0. -1.
         21   -1    0    0  501  503 -0.00000000000E+00 -0.00000000000E+00 -0.13081746782E+03  0.13081746782E+03  0.00000000000E+00 0. -1.
          6    2    1    2  501    0  0.28363737168E+02 -0.15403949548E+02 -0.13474098743E+02  0.17627146983E+03  0.17276659542E+03 0.  0.
         24    2    3    3    0    0 -0.43847122843E+02 -0.32725712614E+02  0.82747902267E+01  0.98750144050E+02  0.81789830351E+02 0.  0.
         -6    2    1    2    0  502 -0.28363737168E+02  0.15403949548E+02  0.17620846849E+03  0.24809783556E+03  0.17164302606E+03 0.  0.
        -24    2    5    5    0    0 -0.63910972046E+02  0.58052203989E+01  0.18327413037E+03  0.21031218899E+03  0.80768168519E+02 0.  0.
          5    1    3    3  501    0  0.72210860012E+02  0.17321763067E+02 -0.21748888970E+02  0.77521325781E+02  0.47000000000E+01 0. -1.
        -11    1    4    4    0    0 -0.25620555696E+02 -0.48823647090E+02  0.32846318183E+02  0.64179763224E+02  0.00000000000E+00 0.  1.
         12    1    4    4    0    0 -0.18226567148E+02  0.16097934476E+02 -0.24571527956E+02  0.34570380826E+02  0.00000000000E+00 0. -1.
         -5    1    5    5    0  502  0.35547234878E+02  0.95987291488E+01 -0.70656618766E+01  0.37785646567E+02  0.47000000000E+01 0.  1.
         11    1    6    6    0    0 -0.45529661916E+02  0.41506860706E+02  0.93587552791E+02  0.11204641733E+03  0.00000000000E+00 0. -1.
        -12    1    6    6    0    0 -0.18381310130E+02 -0.35701640307E+02  0.89686577576E+02  0.98265771660E+02  0.00000000000E+00 0.  1.
</event>
<event>
12    1  0.1593360E-001  0.1792851E+03  0.7818608E-02  0.1168599E+00
         21   -1    0    0  501  502  0.00000000000E+00  0.00000000000E+00  0.71382933922E+03  0.71382933922E+03  0.00000000000E+00 0. -1.
         21   -1    0    0  502  503 -0.00000000000E+00 -0.00000000000E+00 -0.57407947193E+02  0.57407947193E+02  0.00000000000E+00 0. -1.
         -6    2    1    2    0  503 -0.47282077639E+02 -0.16406420193E+02  0.14868450228E+03  0.23291676275E+03  0.17215798460E+03 0.  0.
        -24    2    3    3    0    0 -0.43398308524E+02 -0.10748067538E+02  0.58381993909E+01  0.89828479275E+02  0.77692579943E+02 0.  0.
          6    2    1    2  501    0  0.47282077639E+02  0.16406420193E+02  0.50773688974E+03  0.53832052366E+03  0.17171916463E+03 0.  0.
         24    2    5    5    0    0 -0.29808329542E+02  0.40834346849E+02  0.32654638492E+03  0.33984699011E+03  0.79419486244E+02 0.  0.
          5    1    5    5  501    0  0.77090407180E+02 -0.24427926655E+02  0.18119050483E+03  0.19847353355E+03  0.47000000000E+01 0. -1.
        -11    1    6    6    0    0  0.11332776514E+02 -0.17341914809E+02  0.47010506424E+02  0.51372770482E+02  0.00000000000E+00 0.  1.
         12    1    6    6    0    0 -0.41141106056E+02  0.58176261658E+02  0.27953587849E+03  0.28847421963E+03  0.00000000000E+00 0. -1.
         -5    1    3    3    0  503 -0.38837691142E+01 -0.56583526558E+01  0.14284630289E+03  0.14308828347E+03  0.47000000000E+01 0.  1.
         11    1    4    4    0    0  0.17434230704E+02 -0.15113935605E+02  0.15891451379E+02  0.28016453677E+02  0.00000000000E+00 0. -1.
        -12    1    4    4    0    0 -0.60832539229E+02  0.43658680671E+01 -0.10053251988E+02  0.61812025598E+02  0.00000000000E+00 0.  1.
</event>
<event>
12    1  0.1593360E-001  0.2696479E+03  0.7818608E-02  0.1102360E+00
         21   -1    0    0  503  502  0.00000000000E+00  0.00000000000E+00  0.27343779831E+03  0.27343779831E+03  0.00000000000E+00 0. -1.
         21   -1    0    0  501  503 -0.00000000000E+00 -0.00000000000E+00 -0.45661912952E+03  0.45661912952E+03  0.00000000000E+00 0.  1.
          6    2    1    2  501    0 -0.17984592912E+03 -0.98383486739E+02 -0.33172336416E+03  0.42749315419E+03  0.17517459252E+03 0.  0.
         24    2    3    3    0    0 -0.11060259857E+03  0.81996225858E+01 -0.16215806284E+03  0.21552834713E+03  0.88640072500E+02 0.  0.
         -6    2    1    2    0  502  0.17984592912E+03  0.98383486739E+02  0.14854203295E+03  0.30256377364E+03  0.16569922415E+03 0.  0.
        -24    2    5    5    0    0  0.42929691657E+02  0.41193966218E+02  0.11121037828E+03  0.14948719222E+03  0.80241953635E+02 0.  0.
          5    1    3    3  501    0 -0.69243330555E+02 -0.10658310932E+03 -0.16956530132E+03  0.21196480706E+03  0.47000000000E+01 0. -1.
        -13    1    4    4    0    0 -0.53388081772E+02  0.18865986188E+02 -0.14372811119E+03  0.15447971600E+03  0.00000000000E+00 0.  1.
         14    1    4    4    0    0 -0.57214516795E+02 -0.10666363602E+02 -0.18429951647E+02  0.61048631125E+02  0.00000000000E+00 0. -1.
         -5    1    5    5    0  502  0.13691623747E+03  0.57189520521E+02  0.37331654676E+02  0.15307658142E+03  0.47000000000E+01 0.  1.
         13    1    6    6    0    0  0.18691765938E+02  0.60947846772E+02  0.94615757382E+02  0.11408840294E+03  0.00000000000E+00 0. -1.
        -14    1    6    6    0    0  0.24237925719E+02 -0.19753880554E+02  0.16594620896E+02  0.35398789284E+02  0.00000000000E+00 0.  1.
</event>
<event>
12    1  0.1593360E-001  0.1840399E+03  0.7818608E-02  0.1164037E+00
         21   -1    0    0  501  502  0.00000000000E+00  0.00000000000E+00  0.16275853509E+03  0.16275853509E+03  0.00000000000E+00 0.  1.
         21   -1    0    0  502  503 -0.00000000000E+00 -0.00000000000E+00 -0.25634780524E+03  0.25634780524E+03  0.00000000000E+00 0.  1.
         -6    2    1    2    0  503 -0.61285368089E+02 -0.19596460208E+02 -0.13813687354E+03  0.23011406918E+03  0.17242613319E+03 0.  0.
        -24    2    3    3    0    0 -0.26874139989E+02  0.16440380992E+02 -0.25579335150E+01  0.85592356203E+02  0.79542459663E+02 0.  0.
          6    2    1    2  501    0  0.61285368089E+02  0.19596460208E+02  0.44547603392E+02  0.18899227116E+03  0.17202811397E+03 0.  0.
         24    2    5    5    0    0  0.81056391136E+02  0.64747824578E+02  0.59749745180E+02  0.13719715390E+03  0.67011996371E+02 0.  0.
          5    1    5    5  501    0 -0.19771023047E+02 -0.45151364370E+02 -0.15202141787E+02  0.51795117258E+02  0.47000000000E+01 0. -1.
        -11    1    6    6    0    0  0.27501079913E+02  0.76852268706E+01 -0.12049019140E+02  0.30992756745E+02  0.00000000000E+00 0.  1.
         12    1    6    6    0    0  0.53555311223E+02  0.57062597708E+02  0.71798764319E+02  0.10620439716E+03  0.00000000000E+00 0. -1.
         -5    1    3    3    0  503 -0.34411228100E+02 -0.36036841199E+02 -0.13557894002E+03  0.14452171297E+03  0.47000000000E+01 0.  1.
         13    1    4    4    0    0 -0.42310114773E+02 -0.18831957160E+02  0.41992952667E+01  0.46501854838E+02  0.00000000000E+00 0. -1.
        -14    1    4    4    0    0  0.15435974784E+02  0.35272338152E+02 -0.67572287817E+01  0.39090501366E+02  0.00000000000E+00 0.  1.
</event>
<event>
12    1  0.1593360E-001  0.2425239E+03  0.7818608E-02  0.1118357E+00
         21   -1    0    0  503  502  0.00000000000E+00  0.00000000000E+00  0.20347306286E+03  0.20347306286E+03  0.00000000000E+00 0.  1.
         21   -1    0    0  501  503 -0.00000000000E+00 -0.00000000000E+00 -0.32032624068E+03  0.32032624068E+03  0.00000000000E+00 0.  1.
          6    2    1    2  501    0  0.15886247773E+03 -0.58508263700E+02 -0.14257193076E+03  0.28132646923E+03  0.17365863957E+03 0.  0.
         24    2    3    3    0    0  0.99710612106E+02 -0.71078333853E+02 -0.25072911921E+02  0.14909538628E+03  0.81280056519E+02 0.  0.
         -6    2    1    2    0  502 -0.15886247773E+03  0.58508263700E+02  0.25718752940E+02  0.24247283430E+03  0.17167153920E+03 0.  0.
        -24    2    5    5    0    0 -0.14205705433E+03  0.34202718407E+02 -0.38985491876E+02  0.17118531025E+03  0.80215392775E+02 0.  0.
          5    1    3    3  501    0  0.59151865625E+02  0.12570070153E+02 -0.11749901884E+03  0.13223108295E+03  0.47000000000E+01 0. -1.
        -11    1    4    4    0    0  0.85073898781E+02 -0.88221740978E+02 -0.12269603560E+02  0.12317137251E+03  0.00000000000E+00 0.  1.
         12    1    4    4    0    0  0.14636713325E+02  0.17143407125E+02 -0.12803308361E+02  0.25924013767E+02  0.00000000000E+00 0. -1.
         -5    1    5    5    0  502 -0.16805423399E+02  0.24305545292E+02  0.64704244816E+02  0.71287524048E+02  0.47000000000E+01 0.  1.
         11    1    6    6    0    0 -0.13334095435E+03  0.12828395053E+02 -0.53135603458E+02  0.14411027091E+03  0.00000000000E+00 0. -1.
        -12    1    6    6    0    0 -0.87160999805E+01  0.21374323355E+02  0.14150111581E+02  0.27075039344E+02  0.00000000000E+00 0.  1.
</event>
<event>
12    1  0.1593360E-001  0.1884333E+03  0.7818608E-02  0.1160349E+00
         21   -1    0    0  501  502  0.00000000000E+00  0.00000000000E+00  0.10747930479E+03  0.10747930479E+03  0.00000000000E+00 0.  1.
         21   -1    0    0  502  503 -0.00000000000E+00 -0.00000000000E+00 -0.44425418213E+03  0.44425418213E+03  0.00000000000E+00 0.  1.
         -6    2    1    2    0  503 -0.16407285037E+01  0.67896356550E+02 -0.30955869732E+03  0.36134489475E+03  0.17358265655E+03 0.  0.
        -24    2    3    3    0    0  0.74661574132E+00  0.42892639173E+01 -0.48220088523E+02  0.92325341385E+02  0.78611936147E+02 0.  0.
          6    2    1    2  501    0  0.16407285037E+01 -0.67896356550E+02 -0.27216180025E+02  0.19038859216E+03  0.17576828027E+03 0.  0.
         24    2    5    5    0    0 -0.39975148092E+02 -0.97808026818E+02 -0.33185925382E+02  0.13857819685E+03  0.83295788750E+02 0.  0.
          5    1    5    5  501    0  0.41615876596E+02  0.29911670268E+02  0.59697453570E+01  0.51810395315E+02  0.47000000000E+01 0. -1.
        -11    1    6    6    0    0  0.21213416959E+02 -0.23634136972E+02  0.98230430519E+01  0.33242648274E+02  0.00000000000E+00 0.  1.
         12    1    6    6    0    0 -0.61188565051E+02 -0.74173889846E+02 -0.43008968434E+02  0.10533554857E+03  0.00000000000E+00 0. -1.
         -5    1    3    3    0  503 -0.23873442450E+01  0.63607092633E+02 -0.26133860880E+03  0.26901955337E+03  0.47000000000E+01 0.  1.
         11    1    4    4    0    0  0.25183504602E+02  0.17545802564E+02 -0.55646098387E+02  0.63549605486E+02  0.00000000000E+00 0. -1.
        -12    1    4    4    0    0 -0.24436888860E+02 -0.13256538646E+02  0.74260098649E+01  0.28775735900E+02  0.00000000000E+00 0.  1.
</event>
<event>
12    1  0.1593360E-001  0.1793454E+03  0.7818608E-02  0.1169159E+00
         21   -1    0    0  501  502  0.00000000000E+00  0.00000000000E+00  0.14749981460E+02  0.14749981460E+02  0.00000000000E+00 0.  1.
         21   -1    0    0  502  503 -0.00000000000E+00 -0.00000000000E+00 -0.22358216041E+04  0.22358216041E+04  0.00000000000E+00 0.  1.
         -6    2    1    2    0  503  0.40595294437E+02  0.36134734200E+02 -0.13284119647E+04  0.13400738907E+04  0.16782725564E+03 0.  0.
        -24    2    3    3    0    0  0.80005150556E+02 -0.95156277654E+01 -0.10063509130E+04  0.10123811943E+04  0.75380044420E+02 0.  0.
          6    2    1    2  501    0 -0.40595294437E+02 -0.36134734200E+02 -0.89265965794E+03  0.91049769482E+03  0.17091252270E+03 0.  0.
         24    2    5    5    0    0 -0.12549556845E+02 -0.87494276492E+02 -0.54631977620E+03  0.55921750799E+03  0.80288128459E+02 0.  0.
          5    1    5    5  501    0 -0.28045737592E+02  0.51359542292E+02 -0.34633988174E+03  0.35128018683E+03  0.47000000000E+01 0. -1.
        -13    1    6    6    0    0  0.28604868746E+02 -0.54925778139E+02 -0.37367842197E+03  0.37877518750E+03  0.00000000000E+00 0.  1.
         14    1    6    6    0    0 -0.41154425591E+02 -0.32568498352E+02 -0.17264135423E+03  0.18044232048E+03  0.00000000000E+00 0. -1.
         -5    1    3    3    0  503 -0.39409856119E+02  0.45650361965E+02 -0.32206105165E+03  0.32769269643E+03  0.47000000000E+01 0.  1.
         11    1    4    4    0    0  0.59884363969E+02 -0.47141672595E-01 -0.31319654959E+03  0.31887022116E+03  0.00000000000E+00 0. -1.
        -12    1    4    4    0    0  0.20120786588E+02 -0.94684860928E+01 -0.69315436346E+03  0.69351097314E+03  0.00000000000E+00 0.  1.
</event>
<event>
12    1  0.1593360E-001  0.1744727E+03  0.7818608E-02  0.1173724E+00
         21   -1    0    0  503  502  0.00000000000E+00  0.00000000000E+00  0.49765688978E+03  0.49765688978E+03  0.00000000000E+00 0.  1.
         21   -1    0    0  501  503 -0.00000000000E+00 -0.00000000000E+00 -0.70592033991E+02  0.70592033991E+02  0.00000000000E+00 0.  1.
          6    2    1    2  501    0  0.37019627645E+02 -0.32920015796E+01  0.10531278179E+03  0.20223646978E+03  0.16860461914E+03 0.  0.
         24    2    3    3    0    0  0.25427576583E+02  0.45838122202E+01 -0.11069357010E+02  0.84919393776E+02  0.80132389140E+02 0.  0.
         -6    2    1    2    0  502 -0.37019627645E+02  0.32920015796E+01  0.32175207400E+03  0.36601245399E+03  0.17046826464E+03 0.  0.
        -24    2    5    5    0    0 -0.40076655994E+02  0.57578629269E+02  0.27291604962E+03  0.29277700734E+03  0.79459228456E+02 0.  0.
          5    1    3    3  501    0  0.11592051062E+02 -0.78758137998E+01  0.11638213880E+03  0.11731707600E+03  0.47000000000E+01 0. -1.
        -13    1    4    4    0    0  0.43238579923E+02 -0.13975387897E+02  0.15429237809E+02  0.47989036665E+02  0.00000000000E+00 0.  1.
         14    1    4    4    0    0 -0.17811003340E+02  0.18559200117E+02 -0.26498594819E+02  0.36930357111E+02  0.00000000000E+00 0. -1.
         -5    1    5    5    0  502  0.30570283491E+01 -0.54286627689E+02  0.48836024388E+02  0.73235446651E+02  0.47000000000E+01 0.  1.
         13    1    6    6    0    0  0.16782377579E+02  0.10448776121E+02  0.15927405194E+02  0.25387149424E+02  0.00000000000E+00 0. -1.
        -14    1    6    6    0    0 -0.56859033573E+02  0.47129853147E+02  0.25698864442E+03  0.26738985792E+03  0.00000000000E+00 0.  1.
</event>
<event>
12    1  0.1593360E-001  0.2058719E+03  0.7818608E-02  0.1146017E+00
         21   -1    0    0  501  502  0.00000000000E+00  0.00000000000E+00  0.33836650904E+03  0.33836650904E+03  0.00000000000E+00 0. -1.
         21   -1    0    0  502  503 -0.00000000000E+00 -0.00000000000E+00 -0.33258311267E+03  0.33258311267E+03  0.00000000000E+00 0. -1.
         -6    2    1    2    0  503  0.50306369501E+02 -0.10593990991E+03 -0.26411167822E+03  0.33149918061E+03  0.16242762343E+03 0.  0.
        -24    2    3    3    0    0  0.21663099901E+02 -0.85284779688E+02 -0.27036654338E+03  0.29532896309E+03  0.79864542298E+02 0.  0.
          6    2    1    2  501    0 -0.50306369501E+02  0.10593990991E+03  0.26989507459E+03  0.33945044109E+03  0.16920181838E+03 0.  0.
         24    2    5    5    0    0 -0.21690930694E+02 -0.49444307984E+01  0.15702890160E+03  0.17859322690E+03  0.82112854564E+02 0.  0.
          5    1    5    5  501    0 -0.28615438807E+02  0.11088434071E+03  0.11286617299E+03  0.16085721419E+03  0.47000000000E+01 0. -1.
        -13    1    6    6    0    0 -0.93451955585E+01  0.37202162047E+02  0.50888612436E+02  0.63725853597E+02  0.00000000000E+00 0.  1.
         14    1    6    6    0    0 -0.12345735135E+02 -0.42146592845E+02  0.10614028917E+03  0.11486737330E+03  0.00000000000E+00 0. -1.
         -5    1    3    3    0  503  0.28643269601E+02 -0.20655130223E+02  0.62548651569E+01  0.36170217529E+02  0.47000000000E+01 0.  1.
         13    1    4    4    0    0  0.29920038477E+01  0.15205922594E+02 -0.23615910810E+02  0.28246830130E+02  0.00000000000E+00 0. -1.
        -14    1    4    4    0    0  0.18671096053E+02 -0.10049070228E+03 -0.24675063257E+03  0.26708213296E+03  0.00000000000E+00 0.  1.
</event>
<event>
12    1  0.1593360E-001  0.1973141E+03  0.7818608E-02  0.1152065E+00
         21   -1    0    0  501  502  0.00000000000E+00  0.00000000000E+00  0.28127165026E+03  0.28127165026E+03  0.00000000000E+00 0.  1.
         21   -1    0    0  502  503 -0.00000000000E+00 -0.00000000000E+00 -0.14071262739E+03  0.14071262739E+03  0.00000000000E+00 0. -1.
         -6    2    1    2    0  503 -0.29644323163E+02  0.90458257403E+02  0.42613094357E+02  0.20186310513E+03  0.17283331616E+03 0.  0.
        -24    2    3    3    0    0  0.24426269174E+01  0.13011791302E+03  0.37656139870E+02  0.15039348256E+03  0.65296071949E+02 0.  0.
          6    2    1    2  501    0  0.29644323163E+02 -0.90458257403E+02  0.97945928509E+02  0.22012117253E+03  0.17262225654E+03 0.  0.
         24    2    5    5    0    0  0.70573709455E+02 -0.10530387739E+02  0.42969402863E+02  0.11472578656E+03  0.78892959043E+02 0.  0.
          5    1    5    5  501    0 -0.40929386292E+02 -0.79927869665E+02  0.54976525647E+02  0.10539538597E+03  0.47000000000E+01 0. -1.
        -11    1    6    6    0    0  0.30027073013E+02  0.64075698386E+01  0.60158976649E+02  0.67540984124E+02  0.00000000000E+00 0.  1.
         12    1    6    6    0    0  0.40546636442E+02 -0.16937957577E+02 -0.17189573786E+02  0.47184802433E+02  0.00000000000E+00 0. -1.
         -5    1    3    3    0  503 -0.32086950080E+02 -0.39659655619E+02  0.49569544872E+01  0.51469622566E+02  0.47000000000E+01 0.  1.
         11    1    4    4    0    0  0.30306637542E+02  0.62180523361E+02  0.31086061781E+01  0.69242856649E+02  0.00000000000E+00 0. -1.
        -12    1    4    4    0    0 -0.27864010624E+02  0.67937389662E+02  0.34547533691E+02  0.81150625914E+02  0.00000000000E+00 0.  1.
</event>
<event>
12    1  0.1593360E-001  0.1934472E+03  0.7818608E-02  0.1155623E+00
         21   -1    0    0  503  502  0.00000000000E+00  0.00000000000E+00  0.94499138130E+02  0.94499138130E+02  0.00000000000E+00 0.  1.
         21   -1    0    0  501  503 -0.00000000000E+00 -0.00000000000E+00 -0.52015154265E+03  0.52015154265E+03  0.00000000000E+00 0.  1.
          6    2    1    2  501    0  0.59797346838E+02  0.62718052905E+02 -0.36383218053E+03  0.41156558354E+03  0.17176465619E+03 0.  0.
         24    2    3    3    0    0  0.39303498740E+02  0.73946323754E+02 -0.36944486913E+03  0.38707754259E+03  0.79540485519E+02 0.  0.
         -6    2    1    2    0  502 -0.59797346838E+02 -0.62718052905E+02 -0.61820223993E+02  0.20308509724E+03  0.17295242056E+03 0.  0.
        -24    2    5    5    0    0 -0.76079035373E+02 -0.21460321549E+02 -0.95230836663E+02  0.14735671294E+03  0.79978269373E+02 0.  0.
          5    1    3    3  501    0  0.20493848098E+02 -0.11228270848E+02  0.56126886080E+01  0.24488040949E+02  0.47000000000E+01 0. -1.
        -11    1    4    4    0    0  0.31770392632E+02  0.58609420664E+02 -0.12186096704E+03  0.13890470592E+03  0.00000000000E+00 0.  1.
         12    1    4    4    0    0  0.75331061079E+01  0.15336903090E+02 -0.24758390210E+03  0.24817283667E+03  0.00000000000E+00 0. -1.
         -5    1    5    5    0  502  0.16281688535E+02 -0.41257731357E+02  0.33410612670E+02  0.55728384305E+02  0.47000000000E+01 0.  1.
         13    1    6    6    0    0 -0.31582025533E+02 -0.49566435783E+02 -0.60209315328E+02  0.84139274690E+02  0.00000000000E+00 0. -1.
        -14    1    6    6    0    0 -0.44497009840E+02  0.28106114234E+02 -0.35021521334E+02  0.63217438248E+02  0.00000000000E+00 0.  1.
</event>
<event>
12    1  0.1593360E-001  0.1770655E+03  0.7818608E-02  0.1170895E+00
         21   -1    0    0  501  502  0.00000000000E+00  0.00000000000E+00  0.46928316740E+02  0.46928316740E+02  0.00000000000E+00 0. -1.
         21   -1    0    0  502  503 -0.00000000000E+00 -0.00000000000E+00 -0.68145941166E+03  0.68145941166E+03  0.00000000000E+00 0. -1.
         -6    2    1    2    0  503  0.23258670296E+02 -0.32289066952E+02 -0.37356408269E+03  0.41302129176E+03  0.17161851294E+03 0.  0.
        -24    2    3    3    0    0  0.78811157369E+02 -0.59650963977E+02 -0.20197608859E+03  0.23054038331E+03  0.50843799488E+02 0.  0.
          6    2    1    2  501    0 -0.23258670296E+02  0.32289066952E+02 -0.26096701224E+03  0.31536643665E+03  0.17253596233E+03 0.  0.
         24    2    5    5    0    0 -0.31478590754E+02  0.80913882499E+01 -0.27332278541E+03  0.28659405618E+03  0.79840063711E+02 0.  0.
          5    1    5    5  501    0  0.82199204577E+01  0.24197678702E+02  0.12355773175E+02  0.28772380465E+02  0.47000000000E+01 0. -1.
        -13    1    6    6    0    0 -0.27517820793E+02 -0.32722936796E+02 -0.17320671946E+03  0.17840568578E+03  0.00000000000E+00 0.  1.
         14    1    6    6    0    0 -0.39607699604E+01  0.40814325046E+02 -0.10011606595E+03  0.10818837040E+03  0.00000000000E+00 0. -1.
         -5    1    3    3    0  503 -0.55552487073E+02  0.27361897025E+02 -0.17158799409E+03  0.18248090844E+03  0.47000000000E+01 0.  1.
         13    1    4    4    0    0  0.48994709533E+02 -0.16991669764E+02 -0.59886752799E+02  0.79218820771E+02  0.00000000000E+00 0. -1.
        -14    1    4    4    0    0  0.29816447837E+02 -0.42659294212E+02 -0.14208933579E+03  0.15132156254E+03  0.00000000000E+00 0.  1.
</event>
<event>
12    1  0.1593360E-001  0.1900439E+03  0.7818608E-02  0.1159683E+00
         21   -1    0    0  501  502  0.00000000000E+00  0.00000000000E+00  0.71085632065E+03  0.71085632065E+03  0.00000000000E+00 0.  1.
         21   -1    0    0  502  503 -0.00000000000E+00 -0.00000000000E+00 -0.15617072420E+03  0.15617072420E+03  0.00000000000E+00 0.  1.
         -6    2    1    2    0  503  0.42134288298E+02 -0.49520432825E+02 -0.82473973182E+02  0.20212930294E+03  0.17270416132E+03 0.  0.
        -24    2    3    3    0    0  0.31498504543E+02  0.72494155530E+01  0.19666445417E+02  0.84695531424E+02  0.75775023283E+02 0.  0.
          6    2    1    2  501    0 -0.42134288298E+02  0.49520432825E+02  0.63715956963E+03  0.66489774191E+03  0.17857524607E+03 0.  0.
         24    2    5    5    0    0 -0.30236806299E+02  0.96401748083E+02  0.54480912478E+03  0.56054208820E+03  0.84751924495E+02 0.  0.
          5    1    5    5  501    0 -0.11897481999E+02 -0.46881315258E+02  0.92350444850E+02  0.10435565371E+03  0.47000000000E+01 0. -1.
        -13    1    6    6    0    0  0.16922796506E+01 -0.54319080064E+01  0.18868404646E+03  0.18876980379E+03  0.00000000000E+00 0.  1.
         14    1    6    6    0    0 -0.31929085949E+02  0.10183365609E+03  0.35612507833E+03  0.37177228441E+03  0.00000000000E+00 0. -1.
         -5    1    3    3    0  503  0.10635783754E+02 -0.56769848378E+02 -0.10214041860E+03  0.11743377152E+03  0.47000000000E+01 0.  1.
         11    1    4    4    0    0 -0.18412336159E+02 -0.61287999031E+01  0.26208046325E+02  0.32610397165E+02  0.00000000000E+00 0. -1.
        -12    1    4    4    0    0  0.49910840702E+02  0.13378215456E+02 -0.65416009081E+01  0.52085134259E+02  0.00000000000E+00 0.  1.
</event>
<event>
12    1  0.1593360E-001  0.2527358E+03  0.7818608E-02  0.1111685E+00
         21   -1    0    0  503  502  0.00000000000E+00  0.00000000000E+00  0.96407876499E+02  0.96407876499E+02  0.00000000000E+00 0.  1.
         21   -1    0    0  501  503 -0.00000000000E+00 -0.00000000000E+00 -0.81256260631E+03  0.81256260631E+03  0.00000000000E+00 0.  1.
          6    2    1    2  501    0  0.15552201221E+03  0.10178499293E+03 -0.55405276158E+03  0.60871654655E+03  0.17033522938E+03 0.  0.
         24    2    3    3    0    0  0.20636220915E+02  0.48176774549E+02 -0.12237152310E+03  0.15326204891E+03  0.75944787513E+02 0.  0.
         -6    2    1    2    0  502 -0.15552201221E+03 -0.10178499293E+03 -0.16210196824E+03  0.30025393626E+03  0.17125448042E+03 0.  0.
        -24    2    5    5    0    0 -0.72321256448E+02 -0.15958738805E+02 -0.14186087500E+03  0.17892667835E+03  0.80032511446E+02 0.  0.
          5    1    3    3  501    0  0.13488579130E+03  0.53608218380E+02 -0.43168123848E+03  0.45545449764E+03  0.47000000000E+01 0. -1.
        -13    1    4    4    0    0  0.49058087420E+02  0.24423117746E+02 -0.65643480321E+02  0.85511701716E+02  0.00000000000E+00 0.  1.
         14    1    4    4    0    0 -0.28421866506E+02  0.23753656803E+02 -0.56728042780E+02  0.67750347193E+02  0.00000000000E+00 0. -1.
         -5    1    5    5    0  502 -0.83200755767E+02 -0.85826254123E+02 -0.20241093232E+02  0.12132725791E+03  0.47000000000E+01 0.  1.
         13    1    6    6    0    0 -0.46594612105E+02  0.18910681277E+02 -0.29036907638E+02  0.58067320833E+02  0.00000000000E+00 0. -1.
        -14    1    6    6    0    0 -0.25726644343E+02 -0.34869420082E+02 -0.11282396737E+03  0.12085935751E+03  0.00000000000E+00 0.  1.
</event>
<event>
12    1  0.1593360E-001  0.2110200E+03  0.7818608E-02  0.1140836E+00
         21   -1    0    0  503  502  0.00000000000E+00  0.00000000000E+00  0.24919473128E+03  0.24919473128E+03  0.00000000000E+00 0.  1.
         21   -1    0    0  501  503 -0.00000000000E+00 -0.00000000000E+00 -0.20318074735E+03  0.20318074735E+03  0.00000000000E+00 0.  1.
          6    2    1    2  501    0  0.25558742228E+02  0.11944845487E+03 -0.56011882697E+02  0.21832721784E+03  0.17207050989E+03 0.  0.
         24    2    3    3    0    0  0.22101333602E+02  0.12275164620E+03 -0.96300865892E+02  0.17748414114E+03  0.81672075975E+02 0.  0.
         -6    2    1    2    0  502 -0.25558742228E+02 -0.11944845487E+03  0.10202586664E+03  0.23404826079E+03  0.17160456940E+03 0.  0.
        -24    2    5    5    0    0  0.49787885711E+02 -0.70980262839E+02  0.77959366185E+02  0.14116356655E+03  0.79576745772E+02 0.  0.
          5    1    3    3  501    0  0.34574086258E+01 -0.33031913300E+01  0.40288983195E+02  0.40843076699E+02  0.47000000000E+01 0. -1.
        -11    1    4    4    0    0  0.36708269306E+02  0.29700508934E+02 -0.70830435091E+01  0.47747112705E+02  0.00000000000E+00 0.  1.
         12    1    4    4    0    0 -0.14606935704E+02  0.93051137267E+02 -0.89217822382E+02  0.12973702844E+03  0.00000000000E+00 0. -1.
         -5    1    5    5    0  502 -0.75346627938E+02 -0.48468192032E+02  0.24066500451E+02  0.92884694242E+02  0.47000000000E+01 0.  1.
         13    1    6    6    0    0  0.27531876356E+02 -0.15571531214E+02 -0.11458132655E+02  0.33641724153E+02  0.00000000000E+00 0. -1.
        -14    1    6    6    0    0  0.22256009355E+02 -0.55408731625E+02  0.89417498840E+02  0.10752184239E+03  0.00000000000E+00 0.  1.
</event>
<event>
12    1  0.1593360E-001  0.1847205E+03  0.7818608E-02  0.1163874E+00
         21   -1    0    0  501  502  0.00000000000E+00  0.00000000000E+00  0.32220393726E+03  0.32220393726E+03  0.00000000000E+00 0.  1.
         21   -1    0    0  502  503 -0.00000000000E+00 -0.00000000000E+00 -0.13198214078E+03  0.13198214078E+03  0.00000000000E+00 0.  1.
         -6    2    1    2    0  503  0.53811444485E+02  0.27703595853E+02 -0.79556710472E+01  0.18489177103E+03  0.17452367608E+03 0.  0.
        -24    2    3    3    0    0  0.20438026176E+02  0.60799540629E+02  0.46258214550E+02  0.11298654172E+03  0.80695967323E+02 0.  0.
          6    2    1    2  501    0 -0.53811444485E+02 -0.27703595853E+02  0.19817746753E+03  0.26929430701E+03  0.17199405330E+03 0.  0.
         24    2    5    5    0    0 -0.18885587274E+02  0.43684420608E+02  0.58862103494E+02  0.10883582312E+03  0.78201631417E+02 0.  0.
          5    1    5    5  501    0 -0.34925857210E+02 -0.71388016461E+02  0.13931536403E+03  0.16045848389E+03  0.47000000000E+01 0. -1.
        -11    1    6    6    0    0 -0.31273044280E+02  0.53168746272E+02  0.67140349130E+02  0.91174258209E+02  0.00000000000E+00 0.  1.
         12    1    6    6    0    0  0.12387457006E+02 -0.94843256635E+01 -0.82782456354E+01  0.17661564913E+02  0.00000000000E+00 0. -1.
         -5    1    3    3    0  503  0.33373418308E+02 -0.33095944777E+02 -0.54213885597E+02  0.71905229308E+02  0.47000000000E+01 0.  1.
         11    1    4    4    0    0 -0.62362051991E+01  0.51210988814E+02 -0.75792456309E+01  0.52143078112E+02  0.00000000000E+00 0. -1.
        -12    1    4    4    0    0  0.26674231375E+02  0.95885518151E+01  0.53837460181E+02  0.60843463611E+02  0.00000000000E+00 0.  1.
</event>
<event>
12    1  0.1593360E-001  0.2339904E+03  0.7818608E-02  0.1125032E+00
         21   -1    0    0  501  502  0.00000000000E+00  0.00000000000E+00  0.18538007208E+03  0.18538007208E+03  0.00000000000E+00 0.  1.
         21   -1    0    0  502  503 -0.00000000000E+00 -0.00000000000E+00 -0.50371483495E+03  0.50371483495E+03  0.00000000000E+00 0.  1.
         -6    2    1    2    0  503 -0.34233774807E+02  0.14387890228E+03 -0.38385533536E+03  0.44610425912E+03  0.17260070005E+03 0.  0.
        -24    2    3    3    0    0  0.14613228769E+02  0.32825185043E+02 -0.25337514339E+03  0.26787371076E+03  0.79160106117E+02 0.  0.
          6    2    1    2  501    0  0.34233774807E+02 -0.14387890228E+03  0.65520572491E+02  0.24299064791E+03  0.18132407367E+03 0.  0.
         24    2    5    5    0    0  0.54620019530E+02 -0.93933508235E+02  0.10986002358E+03  0.17300337561E+03  0.77808050292E+02 0.  0.
          5    1    5    5  501    0 -0.20386244723E+02 -0.49945394047E+02 -0.44339451087E+02  0.69987272293E+02  0.47000000000E+01 0. -1.
        -13    1    6    6    0    0  0.19005673012E+02 -0.84342540205E+02  0.42803969899E+02  0.96473102645E+02  0.00000000000E+00 0.  1.
         14    1    6    6    0    0  0.35614346518E+02 -0.95909680302E+01  0.67056053678E+02  0.76530272968E+02  0.00000000000E+00 0. -1.
         -5    1    3    3    0  503 -0.48847003576E+02  0.11105371724E+03 -0.13048019197E+03  0.17823054836E+03  0.47000000000E+01 0.  1.
         11    1    4    4    0    0 -0.13084888066E+01  0.50156716545E+01  0.51871893816E+01  0.73332147645E+01  0.00000000000E+00 0. -1.
        -12    1    4    4    0    0  0.15921717576E+02  0.27809513389E+02 -0.25856233277E+03  0.26054049600E+03  0.00000000000E+00 0.  1.
</event>
<event>
12    1  0.1593360E-001  0.2425630E+03  0.7818608E-02  0.1121104E+00
         21   -1    0    0  501  502  0.00000000000E+00  0.00000000000E+00  0.10765075353E+03  0.10765075353E+03  0.00000000000E+00 0. -1.
         21   -1    0    0  502  503 -0.00000000000E+00 -0.00000000000E+00 -0.57773044121E+03  0.57773044121E+03  0.00000000000E+00 0. -1.
         -6    2    1    2    0  503  0.15308003076E+03  0.18747156368E+02 -0.36208774491E+03  0.43582602674E+03  0.18722136332E+03 0.  0.
        -24    2    3    3    0    0 -0.30159424954E+01  0.22544447497E+02 -0.95709199326E+02  0.12702189491E+03  0.80355229635E+02 0.  0.
          6    2    1    2  501    0 -0.15308003076E+03 -0.18747156368E+02 -0.10799194278E+03  0.24955516801E+03  0.16380039830E+03 0.  0.
         24    2    5    5    0    0 -0.12374728101E+03 -0.37270748588E+02 -0.17080907593E+02  0.15213627869E+03  0.78429532906E+02 0.  0.
          5    1    5    5  501    0 -0.29332749745E+02  0.18523592220E+02 -0.90911035184E+02  0.97418889311E+02  0.47000000000E+01 0. -1.
        -13    1    6    6    0    0 -0.58551624218E+02 -0.42367996359E+02 -0.40291098004E+02  0.82744863239E+02  0.00000000000E+00 0.  1.
         14    1    6    6    0    0 -0.65195656797E+02  0.50972477716E+01  0.23210190410E+02  0.69391415456E+02  0.00000000000E+00 0. -1.
         -5    1    3    3    0  503  0.15609597326E+03 -0.37972911297E+01 -0.26637854558E+03  0.30880413183E+03  0.47000000000E+01 0.  1.
         13    1    4    4    0    0 -0.46469682392E+01  0.51961252135E+01  0.14158212946E+02  0.15781287174E+02  0.00000000000E+00 0. -1.
        -14    1    4    4    0    0  0.16310257437E+01  0.17348322284E+02 -0.10986741227E+03  0.11124060774E+03  0.00000000000E+00 0.  1.
</event>
<event>
12    1  0.1593360E-001  0.1922172E+03  0.7818608E-02  0.1156905E+00
         21   -1    0    0  503  502  0.00000000000E+00  0.00000000000E+00  0.15034223069E+04  0.15034223069E+04  0.00000000000E+00 0.  1.
         21   -1    0    0  501  503 -0.00000000000E+00 -0.00000000000E+00 -0.27808640912E+02  0.27808640912E+02  0.00000000000E+00 0.  1.
          6    2    1    2  501    0 -0.39193974642E+02 -0.72931913568E+02  0.47029330430E+03  0.50805831801E+03  0.17347112372E+03 0.  0.
         24    2    3    3    0    0 -0.23166976146E+02 -0.11757601208E+03  0.36692089567E+03  0.39422552361E+03  0.80137334575E+02 0.  0.
         -6    2    1    2    0  502  0.39193974642E+02  0.72931913568E+02  0.10053203617E+04  0.10231726298E+04  0.17134167353E+03 0.  0.
        -24    2    5    5    0    0  0.33113118442E+02 -0.24008203493E+02  0.44225391689E+03  0.45177060463E+03  0.82675750735E+02 0.  0.
          5    1    3    3  501    0 -0.16026998496E+02  0.44644098512E+02  0.10337240863E+03  0.11383279439E+03  0.47000000000E+01 0. -1.
        -11    1    4    4    0    0 -0.31400698533E+02 -0.39996859986E+02  0.23933989311E+03  0.24468211441E+03  0.00000000000E+00 0.  1.
         12    1    4    4    0    0  0.82337223875E+01 -0.77579152095E+02  0.12758100255E+03  0.14954340920E+03  0.00000000000E+00 0. -1.
         -5    1    5    5    0  502  0.60808561996E+01  0.96940117061E+02  0.56306644476E+03  0.57140202513E+03  0.47000000000E+01 0.  1.
         11    1    6    6    0    0 -0.25779421924E+01 -0.19245567074E+02  0.19614522332E+02  0.27600129063E+02  0.00000000000E+00 0. -1.
        -12    1    6    6    0    0  0.35691060634E+02 -0.47626364185E+01  0.42263939456E+03  0.42417047557E+03  0.00000000000E+00 0.  1.
</event>
<event>
12    1  0.1593360E-001  0.1732846E+03  0.7818608E-02  0.1174849E+00
         21   -1    0    0  503  502  0.00000000000E+00  0.00000000000E+00  0.46706095610E+03  0.46706095610E+03  0.00000000000E+00 0. -1.
         21   -1    0    0  501  503 -0.00000000000E+00 -0.00000000000E+00 -0.65891420210E+02  0.65891420210E+02  0.00000000000E+00 0. -1.
          6    2    1    2  501    0 -0.30794225635E+01  0.11351912669E+02  0.15152607534E+03  0.22906192505E+03  0.17137930224E+03 0.  0.
         24    2    3    3    0    0 -0.65226001877E+02  0.15547795923E+02  0.57716074700E+02  0.11635784804E+03  0.75576704361E+02 0.  0.
         -6    2    1    2    0  502  0.30794225635E+01 -0.11351912669E+02  0.24964346055E+03  0.30389045126E+03  0.17288493342E+03 0.  0.
        -24    2    5    5    0    0 -0.23551575839E+01 -0.67474200255E+02  0.19030998226E+03  0.22190388241E+03  0.92006136819E+02 0.  0.
          5    1    3    3  501    0  0.62146579313E+02 -0.41958832540E+01  0.93810000635E+02  0.11270407701E+03  0.47000000000E+01 0. -1.
        -13    1    4    4    0    0 -0.21507608335E+02  0.32872539539E+02  0.57124496959E+02  0.69328127227E+02  0.00000000000E+00 0.  1.
         14    1    4    4    0    0 -0.43718393541E+02 -0.17324743616E+02  0.59157774148E+00  0.47029720810E+02  0.00000000000E+00 0. -1.
         -5    1    5    5    0  502  0.54345801474E+01  0.56122287586E+02  0.59333478291E+02  0.81986568847E+02  0.47000000000E+01 0.  1.
         13    1    6    6    0    0 -0.46750382516E+02 -0.42464138812E+02  0.10664084149E+03  0.12393978548E+03  0.00000000000E+00 0. -1.
        -14    1    6    6    0    0  0.44395224932E+02 -0.25010061443E+02  0.83669140772E+02  0.97964096932E+02  0.00000000000E+00 0.  1.
</event>
<event>
12    1  0.1593360E-001  0.2442981E+03  0.7818608E-02  0.1116999E+00
         21   -1    0    0  503  502  0.00000000000E+00  0.00000000000E+00  0.16592183888E+03  0.16592183888E+03  0.00000000000E+00 0.  1.
         21   -1    0    0  501  503 -0.00000000000E+00 -0.00000000000E+00 -0.64515966553E+03  0.64515966553E+03  0.00000000000E+00 0.  1.
          6    2    1    2  501    0 -0.66436380392E+02 -0.16017257292E+03 -0.50947239282E+03  0.56491958152E+03  0.17176428263E+03 0.  0.
         24    2    3    3    0    0 -0.30292754804E+02 -0.84065114783E+02 -0.43863465353E+03  0.45474344000E+03  0.80041504372E+02 0.  0.
         -6    2    1    2    0  502  0.66436380392E+02  0.16017257292E+03  0.30234566173E+02  0.24616192289E+03  0.17208287984E+03 0.  0.
        -24    2    5    5    0    0 -0.74731660641E+01  0.50938213493E+02 -0.32106617768E+02  0.10020549257E+03  0.79748078546E+02 0.  0.
          5    1    3    3  501    0 -0.36143625588E+02 -0.76107458135E+02 -0.70837739289E+02  0.11017614153E+03  0.47000000000E+01 0. -1.
        -13    1    4    4    0    0  0.13979006522E+02 -0.19032917416E+02 -0.23904455747E+03  0.24020817019E+03  0.00000000000E+00 0.  1.
         14    1    4    4    0    0 -0.44271761326E+02 -0.65032197367E+02 -0.19959009606E+03  0.21453526980E+03  0.00000000000E+00 0. -1.
         -5    1    5    5    0  502  0.73909546456E+02  0.10923435943E+03  0.62341183941E+02  0.14595643032E+03  0.47000000000E+01 0.  1.
         13    1    6    6    0    0 -0.11737688365E+01 -0.21412035076E+02 -0.13124749719E+02  0.25141838329E+02  0.00000000000E+00 0. -1.
        -14    1    6    6    0    0 -0.62993972277E+01  0.72350248569E+02 -0.18981868049E+02  0.75063654241E+02  0.00000000000E+00 0.  1.
</event>
<event>
12    1  0.1593360E-001  0.1879162E+03  0.7818608E-02  0.1160858E+00
         21   -1    0    0  501  502  0.00000000000E+00  0.00000000000E+00  0.96345966984E+03  0.96345966984E+03  0.00000000000E+00 0.  1.
         21   -1    0    0  502  503 -0.00000000000E+00 -0.00000000000E+00 -0.40120735151E+02  0.40120735151E+02  0.00000000000E+00 0.  1.
         -6    2    1    2    0  503  0.68629701934E+02 -0.26009428272E+02  0.30288785232E+03  0.35529649069E+03  0.17061072319E+03 0.  0.
        -24    2    3    3    0    0  0.59082428025E+02 -0.55391805458E+02  0.10345726616E+03  0.15343237000E+03  0.79240777558E+02 0.  0.
          6    2    1    2  501    0 -0.68629701934E+02  0.26009428272E+02  0.62045108237E+03  0.64828391430E+03  0.17299121822E+03 0.  0.
         24    2    5    5    0    0  0.17982719436E+02  0.63292196084E+01  0.43299664711E+03  0.44079830649E+03  0.80334384792E+02 0.  0.
          5    1    5    5  501    0 -0.86612421370E+02  0.19680208664E+02  0.18745443526E+03  0.20748560781E+03  0.47000000000E+01 0. -1.
        -13    1    6    6    0    0 -0.16774364315E+02 -0.24656349858E+02  0.93955166032E+02  0.98574277125E+02  0.00000000000E+00 0.  1.
         14    1    6    6    0    0  0.34757083751E+02  0.30985569467E+02  0.33904148108E+03  0.34222402937E+03  0.00000000000E+00 0. -1.
         -5    1    3    3    0  503  0.95472739090E+01  0.29382377186E+02  0.19943058616E+03  0.20186412070E+03  0.47000000000E+01 0.  1.
         11    1    4    4    0    0 -0.17639281457E+02 -0.22260613614E+02  0.37088868070E+02  0.46714701150E+02  0.00000000000E+00 0. -1.
        -12    1    4    4    0    0  0.76721709482E+02 -0.33131191844E+02  0.66368398090E+02  0.10671766885E+03  0.00000000000E+00 0.  1.
</event>
<event>
12    1  0.1593360E-001  0.1792367E+03  0.7818608E-02  0.1170340E+00
         21   -1    0    0  503  502  0.00000000000E+00  0.00000000000E+00  0.16981882628E+03  0.16981882628E+03  0.00000000000E+00 0.  1.
         21   -1    0    0  501  503 -0.00000000000E+00 -0.00000000000E+00 -0.42415542925E+03  0.42415542925E+03  0.00000000000E+00 0.  1.
          6    2    1    2  501    0  0.11871103618E+02 -0.22678251010E+02 -0.35059883415E+03  0.39052350944E+03  0.17009950837E+03 0.  0.
         24    2    3    3    0    0  0.54527928245E+02 -0.36218907216E+02 -0.31956417517E+03  0.33585913242E+03  0.79968684961E+02 0.  0.
         -6    2    1    2    0  502 -0.11871103618E+02  0.22678251010E+02  0.96262231190E+02  0.20345074608E+03  0.17739944408E+03 0.  0.
        -24    2    5    5    0    0 -0.17201412927E+02  0.76439082918E+02  0.26845495838E+02  0.11536321921E+03  0.80306722601E+02 0.  0.
          5    1    3    3  501    0 -0.42656824628E+02  0.13540656206E+02 -0.31034658978E+02  0.54664377027E+02  0.47000000000E+01 0. -1.
        -13    1    4    4    0    0  0.49493674977E+02 -0.29919471231E+02 -0.95479757542E+02  0.11162966775E+03  0.00000000000E+00 0.  1.
         14    1    4    4    0    0  0.50342532688E+01 -0.62994359850E+01 -0.22408441763E+03  0.22422946467E+03  0.00000000000E+00 0. -1.
         -5    1    5    5    0  502  0.53303093093E+01 -0.53760831907E+02  0.69416735351E+02  0.88087526878E+02  0.47000000000E+01 0.  1.
         11    1    6    6    0    0  0.26699663166E+02  0.22694953826E+02  0.29662230018E+02  0.45910574293E+02  0.00000000000E+00 0. -1.
        -12    1    6    6    0    0 -0.43901076093E+02  0.53744129092E+02 -0.28167341795E+01  0.69452644913E+02  0.00000000000E+00 0.  1.
</event>
<event>
12    1  0.1593360E-001  0.3831441E+03  0.7818608E-02  0.1050029E+00
         21   -1    0    0  501  502  0.00000000000E+00  0.00000000000E+00  0.79681526939E+03  0.79681526939E+03  0.00000000000E+00 0.  1.
         21   -1    0    0  502  503 -0.00000000000E+00 -0.00000000000E+00 -0.25077591359E+03  0.25077591359E+03  0.00000000000E+00 0. -1.
         -6    2    1    2    0  503 -0.34142688362E+02  0.34068013078E+03  0.12694268818E+01  0.38314620338E+03  0.17196141148E+03 0.  0.
        -24    2    3    3    0    0 -0.47357859437E+02  0.19161089600E+03 -0.61186500887E+02  0.22091454673E+03  0.78114958551E+02 0.  0.
          6    2    1    2  501    0  0.34142688362E+02 -0.34068013078E+03  0.54476992892E+03  0.66444497961E+03  0.16578353596E+03 0.  0.
         24    2    5    5    0    0  0.76221231348E+02 -0.15977256725E+03  0.30440177843E+03  0.36064062136E+03  0.77873395379E+02 0.  0.
          5    1    5    5  501    0 -0.42078542986E+02 -0.18090756353E+03  0.24036815049E+03  0.30380435825E+03  0.47000000000E+01 0. -1.
        -13    1    6    6    0    0  0.95260022508E+01 -0.70207204057E+02  0.18015030586E+03  0.19358184038E+03  0.00000000000E+00 0.  1.
         14    1    6    6    0    0  0.66695229097E+02 -0.89565363194E+02  0.12425147256E+03  0.16705878098E+03  0.00000000000E+00 0. -1.
         -5    1    3    3    0  503  0.13215171075E+02  0.14906923478E+03  0.62455927769E+02  0.16223165664E+03  0.47000000000E+01 0.  1.
         11    1    4    4    0    0 -0.69935970666E+01  0.13983023260E+03 -0.15352695109E+02  0.14084427428E+03  0.00000000000E+00 0. -1.
        -12    1    4    4    0    0 -0.40364262370E+02  0.51780663402E+02 -0.45833805778E+02  0.80070272456E+02  0.00000000000E+00 0.  1.
</event>
<event>
12    1  0.1593360E-001  0.1965553E+03  0.7818608E-02  0.1152773E+00
         21   -1    0    0  503  502  0.00000000000E+00  0.00000000000E+00  0.12789490345E+03  0.12789490345E+03  0.00000000000E+00 0. -1.
         21   -1    0    0  501  503 -0.00000000000E+00 -0.00000000000E+00 -0.73020092405E+03  0.73020092405E+03  0.00000000000E+00 0. -1.
          6    2    1    2  501    0 -0.79060134692E+02  0.49767413123E+02 -0.62979891314E+03  0.65962711860E+03  0.17243539165E+03 0.  0.
         24    2    3    3    0    0  0.15815509890E+02 -0.32806163695E+01 -0.35982146511E+03  0.36855085057E+03  0.78085529399E+02 0.  0.
         -6    2    1    2    0  502  0.79060134692E+02 -0.49767413123E+02  0.27492892543E+02  0.19846870890E+03  0.17293544740E+03 0.  0.
        -24    2    5    5    0    0  0.12468296410E+02 -0.27708133869E+01  0.69808185041E+02  0.10651313652E+03  0.79427512428E+02 0.  0.
          5    1    3    3  501    0 -0.94875644582E+02  0.53048029493E+02 -0.26997744803E+03  0.29107626804E+03  0.47000000000E+01 0. -1.
        -13    1    4    4    0    0 -0.59062422193E+00 -0.83426233977E+01 -0.43676480055E-01  0.83636182219E+01  0.00000000000E+00 0.  1.
         14    1    4    4    0    0  0.16406134112E+02  0.50620070282E+01 -0.35977778863E+03  0.36018723234E+03  0.00000000000E+00 0. -1.
         -5    1    5    5    0  502  0.66591838282E+02 -0.46996599736E+02 -0.42315292498E+02  0.91955572380E+02  0.47000000000E+01 0.  1.
         13    1    6    6    0    0 -0.76941658393E+01  0.30552462708E+02  0.57673673136E+02  0.65718382044E+02  0.00000000000E+00 0. -1.
        -14    1    6    6    0    0  0.20162462249E+02 -0.33323276094E+02  0.12134511905E+02  0.40794754476E+02  0.00000000000E+00 0.  1.
</event>
<event>
12    1  0.1593360E-001  0.2149387E+03  0.7818608E-02  0.1137908E+00
         21   -1    0    0  501  502  0.00000000000E+00  0.00000000000E+00  0.57724724788E+03  0.57724724788E+03  0.00000000000E+00 0.  1.
         21   -1    0    0  502  503 -0.00000000000E+00 -0.00000000000E+00 -0.90306625738E+02  0.90306625738E+02  0.00000000000E+00 0.  1.
         -6    2    1    2    0  503 -0.63472325671E+02 -0.11203872455E+03  0.12834906744E+03  0.24947907614E+03  0.17083592829E+03 0.  0.
        -24    2    3    3    0    0 -0.10459778131E+02 -0.76329722847E+02  0.53603876749E+01  0.11079321403E+03  0.79440348506E+02 0.  0.
          6    2    1    2  501    0  0.63472325671E+02  0.11203872455E+03  0.35859155470E+03  0.41807479748E+03  0.17209654633E+03 0.  0.
         24    2    5    5    0    0  0.90740275734E+02  0.41436219144E+02  0.28620552825E+03  0.31324120699E+03  0.79092929245E+02 0.  0.
          5    1    5    5  501    0 -0.27267950063E+02  0.70602505401E+02  0.72386026455E+02  0.10483359049E+03  0.47000000000E+01 0. -1.
        -13    1    6    6    0    0  0.64977167310E+02  0.14075582657E+02  0.81804642296E+02  0.10541420113E+03  0.00000000000E+00 0.  1.
         14    1    6    6    0    0  0.25763108424E+02  0.27360636487E+02  0.20440088595E+03  0.20782700586E+03  0.00000000000E+00 0. -1.
         -5    1    3    3    0  503 -0.53012547539E+02 -0.35709001699E+02  0.12298867977E+03  0.13868586211E+03  0.47000000000E+01 0.  1.
         13    1    4    4    0    0  0.25002885215E+01 -0.71072920985E+02  0.34071210189E+02  0.78857205782E+02  0.00000000000E+00 0. -1.
        -14    1    4    4    0    0 -0.12960066653E+02 -0.52568018620E+01 -0.28710822514E+02  0.31936008249E+02  0.00000000000E+00 0.  1.
</event>
<event>
12    1  0.1593360E-001  0.1849741E+03  0.7818608E-02  0.1163122E+00
         21   -1    0    0  503  502  0.00000000000E+00  0.00000000000E+00  0.42290553684E+03  0.42290553684E+03  0.00000000000E+00 0.  1.
         21   -1    0    0  501  503 -0.00000000000E+00 -0.00000000000E+00 -0.82203299186E+02  0.82203299186E+02  0.00000000000E+00 0.  1.
          6    2    1    2  501    0  0.36329242870E+02 -0.57994097159E+02  0.13744215923E+03  0.23028147440E+03  0.17162773996E+03 0.  0.
         24    2    3    3    0    0  0.79903223734E+02 -0.38961894983E+02  0.13746919404E+03  0.18250064917E+03  0.80660729078E+02 0.  0.
         -6    2    1    2    0  502 -0.36329242870E+02  0.57994097159E+02  0.20326007842E+03  0.27482736163E+03  0.17184961457E+03 0.  0.
        -24    2    5    5    0    0  0.44336582120E+02  0.47199385924E+02  0.12816694764E+03  0.16399158490E+03  0.79202013269E+02 0.  0.
          5    1    3    3  501    0 -0.43573980864E+02 -0.19032202176E+02 -0.27034806261E-01  0.47780825222E+02  0.47000000000E+01 0. -1.
        -13    1    4    4    0    0  0.14654693499E+02 -0.17600745614E+02 -0.58039319246E+01  0.23626931953E+02  0.00000000000E+00 0.  1.
         14    1    4    4    0    0  0.65248530235E+02 -0.21361149370E+02  0.14327312596E+03  0.15887371722E+03  0.00000000000E+00 0. -1.
         -5    1    5    5    0  502 -0.80665824990E+02  0.10794711235E+02  0.75093130779E+02  0.11083577672E+03  0.47000000000E+01 0.  1.
         13    1    6    6    0    0 -0.68027562943E+01 -0.16179703898E+02  0.91891372014E+01  0.19811626736E+02  0.00000000000E+00 0. -1.
        -14    1    6    6    0    0  0.51139338415E+02  0.63379089823E+02  0.11897781044E+03  0.14417995816E+03  0.00000000000E+00 0.  1.
</event>
<event>
12    1  0.1593360E-001  0.2114852E+03  0.7818608E-02  0.1140700E+00
         21   -1    0    0  501  502  0.00000000000E+00  0.00000000000E+00  0.33558187643E+03  0.33558187643E+03  0.00000000000E+00 0.  1.
         21   -1    0    0  502  503 -0.00000000000E+00 -0.00000000000E+00 -0.14175196182E+03  0.14175196182E+03  0.00000000000E+00 0.  1.
         -6    2    1    2    0  503 -0.10827385887E+03 -0.58021271487E+02  0.15819366412E+03  0.26286720995E+03  0.17024757924E+03 0.  0.
        -24    2    3    3    0    0 -0.13726295328E+03 -0.16634131247E+02  0.12613934507E+03  0.20284361174E+03  0.78208591480E+02 0.  0.
          6    2    1    2  501    0  0.10827385887E+03  0.58021271487E+02  0.35636250491E+02  0.21446662831E+03  0.17215195569E+03 0.  0.
         24    2    5    5    0    0  0.59722120526E+02 -0.18308914004E+02  0.62702950849E+02  0.11992423157E+03  0.80921031009E+02 0.  0.
          5    1    5    5  501    0  0.48551738343E+02  0.76330185491E+02 -0.27066700358E+02  0.94542396740E+02  0.47000000000E+01 0. -1.
        -13    1    6    6    0    0 -0.10654131693E+02 -0.27299158893E+02  0.81185236085E+01  0.30408305181E+02  0.00000000000E+00 0.  1.
         14    1    6    6    0    0  0.70376252219E+02  0.89902448895E+01  0.54584427240E+02  0.89515926385E+02  0.00000000000E+00 0. -1.
         -5    1    3    3    0  503  0.28989094416E+02 -0.41387140240E+02  0.32054319050E+02  0.60023598210E+02  0.47000000000E+01 0.  1.
         11    1    4    4    0    0 -0.31515535996E+02  0.18824925113E+02  0.31987258254E+01  0.36848862418E+02  0.00000000000E+00 0. -1.
        -12    1    4    4    0    0 -0.10574741729E+03 -0.35459056359E+02  0.12294061925E+03  0.16599474932E+03  0.00000000000E+00 0.  1.
</event>
<event>
12    1  0.1593360E-001  0.2138444E+03  0.7818608E-02  0.1139544E+00
         21   -1    0    0  501  502  0.00000000000E+00  0.00000000000E+00  0.80247264841E+02  0.80247264841E+02  0.00000000000E+00 0.  1.
         21   -1    0    0  502  503 -0.00000000000E+00 -0.00000000000E+00 -0.69644798088E+03  0.69644798088E+03  0.00000000000E+00 0.  1.
         -6    2    1    2    0  503 -0.37952881392E+02  0.11590190653E+03 -0.48510082265E+03  0.53014360280E+03  0.17565807218E+03 0.  0.
        -24    2    3    3    0    0 -0.61526621277E+02  0.68446309812E+02 -0.16039802316E+03  0.20111206501E+03  0.79045015058E+02 0.  0.
          6    2    1    2  501    0  0.37952881392E+02 -0.11590190653E+03 -0.13109989340E+03  0.24655164292E+03  0.16948999214E+03 0.  0.
         24    2    5    5    0    0  0.82877705425E+02 -0.10659871936E+03 -0.12256682817E+03  0.19965076544E+03  0.81276071194E+02 0.  0.
          5    1    5    5  501    0 -0.44924824033E+02 -0.93031871699E+01 -0.85330652269E+01  0.46900877477E+02  0.47000000000E+01 0. -1.
        -13    1    6    6    0    0  0.36128935872E+02 -0.66193743353E+02 -0.11482968739E+03  0.13737819614E+03  0.00000000000E+00 0.  1.
         14    1    6    6    0    0  0.46748769553E+02 -0.40404976005E+02 -0.77371407754E+01  0.62272569306E+02  0.00000000000E+00 0. -1.
         -5    1    3    3    0  503  0.23573739886E+02  0.47455596716E+02 -0.32470279948E+03  0.32903153779E+03  0.47000000000E+01 0.  1.
         11    1    4    4    0    0 -0.63358292336E+02  0.42386413532E+02 -0.15730934199E+03  0.17480592192E+03  0.00000000000E+00 0. -1.
        -12    1    4    4    0    0  0.18316710585E+01  0.26059896280E+02 -0.30886811711E+01  0.26306143092E+02  0.00000000000E+00 0.  1.
</event>
<event>
12    1  0.1593360E-001  0.1856732E+03  0.7818608E-02  0.1163621E+00
         21   -1    0    0  501  502  0.00000000000E+00  0.00000000000E+00  0.64837672424E+02  0.64837672424E+02  0.00000000000E+00 0. -1.
         21   -1    0    0  502  503 -0.00000000000E+00 -0.00000000000E+00 -0.52687509371E+03  0.52687509371E+03  0.00000000000E+00 0. -1.
         -6    2    1    2    0  503  0.70329391028E+02  0.15926214575E+02 -0.27413078145E+03  0.33109245175E+03  0.17109838899E+03 0.  0.
        -24    2    3    3    0    0  0.51741792837E+02  0.64659960496E+01 -0.51546888207E+02  0.10748414673E+03  0.78592225344E+02 0.  0.
          6    2    1    2  501    0 -0.70329391028E+02 -0.15926214575E+02 -0.18790663984E+03  0.26062031439E+03  0.16557226646E+03 0.  0.
         24    2    5    5    0    0 -0.47752806340E+02  0.50941052010E+02 -0.86036778900E+02  0.13660220247E+03  0.79890632127E+02 0.  0.
          5    1    5    5  501    0 -0.22576584688E+02 -0.66867266585E+02 -0.10186986094E+03  0.12401811192E+03  0.47000000000E+01 0. -1.
        -11    1    6    6    0    0 -0.31858636939E+02  0.51253705739E+02 -0.99098159005E+02  0.11602741149E+03  0.00000000000E+00 0.  1.
         12    1    6    6    0    0 -0.15894169401E+02 -0.31265372907E+00  0.13061380105E+02  0.20574790972E+02  0.00000000000E+00 0. -1.
         -5    1    3    3    0  503  0.18587598191E+02  0.94602185259E+01 -0.22258389324E+03  0.22360830501E+03  0.47000000000E+01 0.  1.
         11    1    4    4    0    0  0.11805052540E+02 -0.34884682340E+02 -0.20449709769E+02  0.42124707205E+02  0.00000000000E+00 0. -1.
        -12    1    4    4    0    0  0.39936740297E+02  0.41350678390E+02 -0.31097178438E+02  0.65359439530E+02  0.00000000000E+00 0.  1.
</event>
<event>
12    1  0.1593360E-001  0.1913448E+03  0.7818608E-02  0.1157388E+00
         21   -1    0    0  501  502  0.00000000000E+00  0.00000000000E+00  0.45062513365E+02  0.45062513365E+02  0.00000000000E+00 0. -1.
         21   -1    0    0  502  503 -0.00000000000E+00 -0.00000000000E+00 -0.83123576649E+03  0.83123576649E+03  0.00000000000E+00 0.  1.
         -6    2    1    2    0  503 -0.82409638865E+02  0.20656311441E+02 -0.46260997666E+03  0.50039136310E+03  0.17077907945E+03 0.  0.
        -24    2    3    3    0    0 -0.74851509580E+02  0.57766360105E+02 -0.43737410045E+03  0.45463963659E+03  0.80382800212E+02 0.  0.
          6    2    1    2  501    0  0.82409638865E+02 -0.20656311441E+02 -0.32356327646E+03  0.37590691676E+03  0.17144907235E+03 0.  0.
         24    2    5    5    0    0  0.31759393289E+02 -0.14550649197E+02 -0.31147906078E+03  0.32326810259E+03  0.79137098713E+02 0.  0.
          5    1    5    5  501    0  0.50650245576E+02 -0.61056622444E+01 -0.12084215687E+02  0.52638814169E+02  0.47000000000E+01 0. -1.
        -11    1    6    6    0    0 -0.10825949709E+02  0.25697683876E+02 -0.10403482269E+03  0.10770708647E+03  0.00000000000E+00 0.  1.
         12    1    6    6    0    0  0.42585342998E+02 -0.40248333072E+02 -0.20744423809E+03  0.21556101612E+03  0.00000000000E+00 0. -1.
         -5    1    3    3    0  503 -0.75581292857E+01 -0.37110048664E+02 -0.25235876210E+02  0.45751726506E+02  0.47000000000E+01 0.  1.
         13    1    4    4    0    0 -0.47198697273E+02  0.64442994438E+02 -0.19685589594E+03  0.21244495834E+03  0.00000000000E+00 0. -1.
        -14    1    4    4    0    0 -0.27652812306E+02 -0.66766343326E+01 -0.24051820451E+03  0.24219467825E+03  0.00000000000E+00 0.  1.
</event>
<event>
12    1  0.1593360E-001  0.1788469E+03  0.7818608E-02  0.1170994E+00
         21   -1    0    0  503  502  0.00000000000E+00  0.00000000000E+00  0.25843404115E+02  0.25843404115E+02  0.00000000000E+00 0. -1.
         21   -1    0    0  501  503 -0.00000000000E+00 -0.00000000000E+00 -0.14479348194E+04  0.14479348194E+04  0.00000000000E+00 0. -1.
          6    2    1    2  501    0  0.11782434239E+02  0.47914955212E+02 -0.10410318807E+04  0.10562829039E+04  0.17190557828E+03 0.  0.
         24    2    3    3    0    0  0.45274957698E+02  0.23364096758E+02 -0.39516726905E+03  0.40906757628E+03  0.92646687080E+02 0.  0.
         -6    2    1    2    0  502 -0.11782434239E+02 -0.47914955212E+02 -0.38105953455E+03  0.41749531954E+03  0.16328289644E+03 0.  0.
        -24    2    5    5    0    0  0.52501591119E+01 -0.91913677419E+02 -0.25875022141E+03  0.28631736836E+03  0.80933738822E+02 0.  0.
          5    1    3    3  501    0 -0.33492523459E+02  0.24550858454E+02 -0.64586461165E+03  0.64721532766E+03  0.47000000000E+01 0. -1.
        -13    1    4    4    0    0  0.63866794713E+02  0.89931285262E+01 -0.36586722013E+03  0.37150863596E+03  0.00000000000E+00 0.  1.
         14    1    4    4    0    0 -0.18591837016E+02  0.14370968232E+02 -0.29300048920E+02  0.37558940324E+02  0.00000000000E+00 0. -1.
         -5    1    5    5    0  502 -0.17032593351E+02  0.43998722208E+02 -0.12230931315E+03  0.13117795118E+03  0.47000000000E+01 0.  1.
         11    1    6    6    0    0 -0.20661353186E+02 -0.57331657162E+02 -0.21996833212E+03  0.22825397601E+03  0.00000000000E+00 0. -1.
        -12    1    6    6    0    0  0.25911512298E+02 -0.34582020257E+02 -0.38781889283E+02  0.58063392348E+02  0.00000000000E+00 0.  1.
</event>
<event>
12    1  0.1593360E-001  0.3768211E+03  0.7818608E-02  0.1052119E+00
         21   -1    0    0  501  502  0.00000000000E+00  0.00000000000E+00  0.10069932612E+03  0.10069932612E+03  0.00000000000E+00 0.  1.
         21   -1    0    0  502  503 -0.00000000000E+00 -0.00000000000E+00 -0.14772057728E+04  0.14772057728E+04  0.00000000000E+00 0.  1.
         -6    2    1    2    0  503  0.32522337104E+03  0.82198771605E+02 -0.85659081471E+03  0.93579419223E+03  0.17156942396E+03 0.  0.
        -24    2    3    3    0    0  0.32670402976E+03  0.51709215849E+02 -0.72450781004E+03  0.80014827271E+03  0.76917653635E+02 0.  0.
          6    2    1    2  501    0 -0.32522337104E+03 -0.82198771605E+02 -0.51991563196E+03  0.64211090667E+03  0.17166034191E+03 0.  0.
         24    2    5    5    0    0 -0.32007836539E+03 -0.10189625127E+03 -0.43853653976E+03  0.55809240612E+03  0.79497365030E+02 0.  0.
          5    1    5    5  501    0 -0.51450056543E+01  0.19697479667E+02 -0.81379092193E+02  0.84018500549E+02  0.47000000000E+01 0. -1.
        -13    1    6    6    0    0 -0.18608239851E+03 -0.76811159207E+02 -0.31664940742E+03  0.37522454668E+03  0.00000000000E+00 0.  1.
         14    1    6    6    0    0 -0.13399596688E+03 -0.25085092064E+02 -0.12188713235E+03  0.18286785944E+03  0.00000000000E+00 0. -1.
         -5    1    3    3    0  503 -0.14806587193E+01  0.30489555755E+02 -0.13208300467E+03  0.13564591952E+03  0.47000000000E+01 0.  1.
         11    1    4    4    0    0  0.23390448327E+03  0.27230367628E+02 -0.42813030292E+03  0.48861882536E+03  0.00000000000E+00 0. -1.
        -12    1    4    4    0    0  0.92799546490E+02  0.24478848221E+02 -0.29637750712E+03  0.31152944735E+03  0.00000000000E+00 0.  1.
</event>
<event>
12    1  0.1593360E-001  0.2397529E+03  0.7818608E-02  0.1120269E+00
         21   -1    0    0  503  502  0.00000000000E+00  0.00000000000E+00  0.45332772168E+03  0.45332772168E+03  0.00000000000E+00 0. -1.
         21   -1    0    0  501  503 -0.00000000000E+00 -0.00000000000E+00 -0.15094882962E+03  0.15094882962E+03  0.00000000000E+00 0. -1.
          6    2    1    2  501    0 -0.63826479785E+01 -0.16440286946E+03  0.28397447105E+02  0.24142876783E+03  0.17439149421E+03 0.  0.
         24    2    3    3    0    0 -0.47956499900E+02 -0.40077981667E+02 -0.17076099896E+02  0.10259434715E+03  0.79548327339E+02 0.  0.
         -6    2    1    2    0  502  0.63826479785E+01  0.16440286946E+03  0.27398144496E+03  0.36284778347E+03  0.17182444560E+03 0.  0.
        -24    2    5    5    0    0  0.15095606654E+02  0.81582381820E+02  0.25065374100E+03  0.27623704168E+03  0.81216026453E+02 0.  0.
          5    1    3    3  501    0  0.41573851922E+02 -0.12432488779E+03  0.45473547001E+02  0.13883442068E+03  0.47000000000E+01 0. -1.
        -11    1    4    4    0    0  0.95879610211E+01  0.14341586258E+02  0.86777999027E+01  0.19310989205E+02  0.00000000000E+00 0.  1.
         12    1    4    4    0    0 -0.57544460921E+02 -0.54419567925E+02 -0.25753899799E+02  0.83283357945E+02  0.00000000000E+00 0. -1.
         -5    1    5    5    0  502 -0.87129586757E+01  0.82820487639E+02  0.23327703955E+02  0.86610741790E+02  0.47000000000E+01 0.  1.
         13    1    6    6    0    0  0.38840354224E+02  0.66141927743E+02  0.11905062170E+03  0.14162054317E+03  0.00000000000E+00 0. -1.
        -14    1    6    6    0    0 -0.23744747569E+02  0.15440454076E+02  0.13160311930E+03  0.13461649850E+03  0.00000000000E+00 0.  1.
</event>
<event>
12    1  0.1593360E-001  0.1818905E+03  0.7818608E-02  0.1167097E+00
         21   -1    0    0  501  502  0.00000000000E+00  0.00000000000E+00  0.39246144098E+03  0.39246144098E+03  0.00000000000E+00 0.  1.
         21   -1    0    0  502  503 -0.00000000000E+00 -0.00000000000E+00 -0.10750621984E+03  0.10750621984E+03  0.00000000000E+00 0.  1.
         -6    2    1    2    0  503 -0.24674356133E+02  0.33595190178E+02  0.22554718751E+02  0.18328355473E+03  0.17704995183E+03 0.  0.
        -24    2    3    3    0    0 -0.63429947620E+02 -0.12099445063E+02  0.13357085837E+02  0.12248320924E+03  0.10321807001E+03 0.  0.
          6    2    1    2  501    0  0.24674356133E+02 -0.33595190178E+02  0.26240050239E+03  0.31668410608E+03  0.17232915812E+03 0.  0.
         24    2    5    5    0    0  0.42324905002E+02 -0.42076616623E+00  0.26408541524E+03  0.27877614893E+03  0.78634979773E+02 0.  0.
          5    1    5    5  501    0 -0.17650548870E+02 -0.33174424012E+02 -0.16849128508E+01  0.37907957149E+02  0.47000000000E+01 0. -1.
        -11    1    6    6    0    0  0.12392137427E+02 -0.38662270488E+02  0.12806156701E+03  0.13434322154E+03  0.00000000000E+00 0.  1.
         12    1    6    6    0    0  0.29932767575E+02  0.38241504321E+02  0.13602384823E+03  0.14443292739E+03  0.00000000000E+00 0. -1.
         -5    1    3    3    0  503  0.38755591488E+02  0.45694635241E+02  0.91976329135E+01  0.60800345497E+02  0.47000000000E+01 0.  1.
         11    1    4    4    0    0 -0.73275963566E+02  0.20233824858E+02  0.33570540492E+02  0.83100876612E+02  0.00000000000E+00 0. -1.
        -12    1    4    4    0    0  0.98460159453E+01 -0.32333269921E+02 -0.20213454654E+02  0.39382332623E+02  0.00000000000E+00 0.  1.
</event>
<event>
12    1  0.1593360E-001  0.1792806E+03  0.7818608E-02  0.1168514E+00
         21   -1    0    0  503  502  0.00000000000E+00  0.00000000000E+00  0.16597124416E+03  0.16597124416E+03  0.00000000000E+00 0. -1.
         21   -1    0    0  501  503 -0.00000000000E+00 -0.00000000000E+00 -0.21440875976E+03  0.21440875976E+03  0.00000000000E+00 0. -1.
          6    2    1    2  501    0 -0.40779671885E+02  0.26750267245E+02 -0.83468019316E+02  0.19770910039E+03  0.17246280670E+03 0.  0.
         24    2    3    3    0    0 -0.80383230727E+02  0.46836087770E+02 -0.90654409450E+02  0.15248061090E+03  0.79856320017E+02 0.  0.
         -6    2    1    2    0  502  0.40779671885E+02 -0.26750267245E+02  0.35030503719E+02  0.18267090352E+03  0.17251946083E+03 0.  0.
        -24    2    5    5    0    0 -0.24014238077E+02 -0.62025873789E+02 -0.23416230380E+02  0.88433278808E+02  0.53368832720E+02 0.  0.
          5    1    3    3  501    0  0.39603558843E+02 -0.20085820525E+02  0.71863901343E+01  0.45228489499E+02  0.47000000000E+01 0. -1.
        -13    1    4    4    0    0 -0.11250356936E+02 -0.18230935587E+02 -0.30790518161E+00  0.21425040237E+02  0.00000000000E+00 0.  1.
         14    1    4    4    0    0 -0.69132873791E+02  0.65067023357E+02 -0.90346504269E+02  0.13105557066E+03  0.00000000000E+00 0. -1.
         -5    1    5    5    0  502  0.64793909961E+02  0.35275606543E+02  0.58446734099E+02  0.94237624715E+02  0.47000000000E+01 0.  1.
         13    1    6    6    0    0 -0.32963059419E+02 -0.19739081184E+02  0.16699966043E+01  0.38457554536E+02  0.00000000000E+00 0. -1.
        -14    1    6    6    0    0  0.89488213422E+01 -0.42286792605E+02 -0.25086226984E+02  0.49975724272E+02  0.00000000000E+00 0.  1.
</event>
<event>
12    1  0.1593360E-001  0.1818681E+03  0.7818608E-02  0.1166256E+00
         21   -1    0    0  503  502  0.00000000000E+00  0.00000000000E+00  0.45590022321E+03  0.45590022321E+03  0.00000000000E+00 0. -1.
         21   -1    0    0  501  503 -0.00000000000E+00 -0.00000000000E+00 -0.33052078701E+03  0.33052078701E+03  0.00000000000E+00 0.  1.
          6    2    1    2  501    0  0.54296903197E+02 -0.17938206254E+02 -0.28493363438E+03  0.33802835366E+03  0.17264431336E+03 0.  0.
         24    2    3    3    0    0  0.34483800871E+02  0.52070184086E+02 -0.12469431316E+03  0.16198158769E+03  0.82394941738E+02 0.  0.
         -6    2    1    2    0  502 -0.54296903197E+02  0.17938206254E+02  0.41031307058E+03  0.44839265657E+03  0.17154948453E+03 0.  0.
        -24    2    5    5    0    0 -0.24275055919E+02  0.25510754085E+02  0.40769317590E+03  0.41696641526E+03  0.80044917824E+02 0.  0.
          5    1    3    3  501    0  0.19813102326E+02 -0.70008390341E+02 -0.16023932122E+03  0.17604676597E+03  0.47000000000E+01 0. -1.
        -11    1    4    4    0    0  0.56921506054E+02  0.13872822629E+02 -0.63028402687E+02  0.86052847741E+02  0.00000000000E+00 0.  1.
         12    1    4    4    0    0 -0.22437705183E+02  0.38197361458E+02 -0.61665910471E+02  0.75928739950E+02  0.00000000000E+00 0. -1.
         -5    1    5    5    0  502 -0.30021847278E+02 -0.75725478307E+01  0.26198946779E+01  0.31426241308E+02  0.47000000000E+01 0.  1.
         13    1    6    6    0    0 -0.56328131421E+00 -0.96810326143E+01  0.31356766533E+03  0.31371758066E+03  0.00000000000E+00 0. -1.
        -14    1    6    6    0    0 -0.23711774604E+02  0.35191786699E+02  0.94125510570E+02  0.10324883460E+03  0.00000000000E+00 0.  1.
</event>
<event>
12    1  0.1593360E-001  0.1815644E+03  0.7818608E-02  0.1166313E+00
         21   -1    0    0  503  502  0.00000000000E+00  0.00000000000E+00  0.53866472032E+03  0.53866472032E+03  0.00000000000E+00 0.  1.
         21   -1    0    0  501  503 -0.00000000000E+00 -0.00000000000E+00 -0.88410956035E+02  0.88410956035E+02  0.00000000000E+00 0.  1.
          6    2    1    2  501    0  0.59976503799E+02 -0.56377997902E+01  0.51084226739E+02  0.18855320413E+03  0.17121257773E+03 0.  0.
         24    2    3    3    0    0  0.41749385000E+02 -0.66404152523E+02  0.92010575870E+01  0.11238846595E+03  0.79962398648E+02 0.  0.
         -6    2    1    2    0  502 -0.59976503799E+02  0.56377997902E+01  0.39916953755E+03  0.43852247222E+03  0.17127951759E+03 0.  0.
        -24    2    5    5    0    0 -0.58083983079E+02  0.41560080413E+02  0.13808598572E+03  0.17493054724E+03  0.80199548203E+02 0.  0.
          5    1    3    3  501    0  0.18227118799E+02  0.60766352733E+02  0.41883169152E+02  0.76164738183E+02  0.47000000000E+01 0. -1.
        -13    1    4    4    0    0  0.48644622506E+02 -0.36549280233E+02 -0.25608125666E+02  0.66014583877E+02  0.00000000000E+00 0.  1.
         14    1    4    4    0    0 -0.68952375063E+01 -0.29854872291E+02  0.34809183253E+02  0.46373882073E+02  0.00000000000E+00 0. -1.
         -5    1    5    5    0  502 -0.18925207198E+01 -0.35922280623E+02  0.26108355183E+03  0.26359192498E+03  0.47000000000E+01 0.  1.
         13    1    6    6    0    0  0.37095670976E+01 -0.22064838050E+01 -0.87290782676E+01  0.97378779123E+01  0.00000000000E+00 0. -1.
        -14    1    6    6    0    0 -0.61793550177E+02  0.43766564218E+02  0.14681506398E+03  0.16519266933E+03  0.00000000000E+00 0.  1.
</event>
<event>
12    1  0.1593360E-001  0.2046199E+03  0.7818608E-02  0.1145987E+00
         21   -1    0    0  501  502  0.00000000000E+00  0.00000000000E+00  0.16292388466E+03  0.16292388466E+03  0.00000000000E+00 0. -1.
         21   -1    0    0  502  503 -0.00000000000E+00 -0.00000000000E+00 -0.37154201503E+03  0.37154201503E+03  0.00000000000E+00 0. -1.
         -6    2    1    2    0  503  0.88800968713E+02  0.62636670958E+02 -0.25296785814E+03  0.32509490416E+03  0.17287277075E+03 0.  0.
        -24    2    3    3    0    0  0.11032195943E+03  0.85914870337E+02 -0.24707430888E+03  0.29250884072E+03  0.70451459269E+02 0.  0.
          6    2    1    2  501    0 -0.88800968713E+02 -0.62636670958E+02  0.44349727774E+02  0.20937099553E+03  0.17337921104E+03 0.  0.
         24    2    5    5    0    0 -0.59405010266E+02  0.28530102561E+02  0.30069593987E+01  0.10493528581E+03  0.81605455740E+02 0.  0.
          5    1    5    5  501    0 -0.29395958447E+02 -0.91166773519E+02  0.41342768375E+02  0.10443570972E+03  0.47000000000E+01 0. -1.
        -13    1    6    6    0    0 -0.23063746505E+02 -0.41888408609E+01  0.38108728109E+02  0.44741009697E+02  0.00000000000E+00 0.  1.
         14    1    6    6    0    0 -0.36341263761E+02  0.32718943422E+02 -0.35101768710E+02  0.60194276115E+02  0.00000000000E+00 0. -1.
         -5    1    3    3    0  503 -0.21520990714E+02 -0.23278199379E+02 -0.58935492538E+01  0.32586063439E+02  0.47000000000E+01 0.  1.
         13    1    4    4    0    0  0.11847204558E+03  0.68852020187E+02 -0.22501674301E+03  0.26345542488E+03  0.00000000000E+00 0. -1.
        -14    1    4    4    0    0 -0.81500861492E+01  0.17062850150E+02 -0.22057565878E+02  0.29053415839E+02  0.00000000000E+00 0.  1.
</event>
<event>
12    1  0.1593360E-001  0.6375045E+03  0.7818608E-02  0.9833560E-01
         21   -1    0    0  501  502  0.00000000000E+00  0.00000000000E+00  0.15538634373E+03  0.15538634373E+03  0.00000000000E+00 0.  1.
         21   -1    0    0  502  503 -0.00000000000E+00 -0.00000000000E+00 -0.31901411332E+04  0.31901411332E+04  0.00000000000E+00 0. -1.
         -6    2    1    2    0  503  0.33042099667E+03 -0.50965292686E+03 -0.22369700308E+04  0.23243161650E+04  0.17171655551E+03 0.  0.
        -24    2    3    3    0    0  0.24468493682E+03 -0.46438666579E+03 -0.19677291411E+04  0.20381126482E+04  0.80121784916E+02 0.  0.
          6    2    1    2  501    0 -0.33042099667E+03  0.50965292686E+03 -0.79778475870E+03  0.10212113119E+04  0.19361787487E+03 0.  0.
         24    2    5    5    0    0 -0.28197713224E+03  0.45344375131E+03 -0.77373055510E+03  0.94306418063E+03  0.74757863662E+02 0.  0.
          5    1    5    5  501    0 -0.48443864438E+02  0.56209175548E+02 -0.24054203599E+02  0.78147131286E+02  0.47000000000E+01 0. -1.
        -13    1    6    6    0    0 -0.22978014194E+03  0.40013792084E+03 -0.69824159111E+03  0.83692926158E+03  0.00000000000E+00 0.  1.
         14    1    6    6    0    0 -0.52196990291E+02  0.53305830469E+02 -0.75488963989E+02  0.10613491905E+03  0.00000000000E+00 0. -1.
         -5    1    3    3    0  503  0.85736059856E+02 -0.45266261070E+02 -0.26924088965E+03  0.28620351676E+03  0.47000000000E+01 0.  1.
         13    1    4    4    0    0  0.23884616440E+03 -0.41118165891E+03 -0.17100655163E+04  0.17749484265E+04  0.00000000000E+00 0. -1.
        -14    1    4    4    0    0  0.58387724211E+01 -0.53205006881E+02 -0.25766362485E+03  0.26316422172E+03  0.00000000000E+00 0.  1.
</event>
<event>
12    1  0.1593360E-001  0.2320364E+03  0.7818608E-02  0.1125364E+00
         21   -1    0    0  501  502  0.00000000000E+00  0.00000000000E+00  0.52543321810E+03  0.52543321810E+03  0.00000000000E+00 0. -1.
         21   -1    0    0  502  503 -0.00000000000E+00 -0.00000000000E+00 -0.13622947307E+03  0.13622947307E+03  0.00000000000E+00 0. -1.
         -6    2    1    2    0  503 -0.23508704195E+02 -0.15475918924E+03  0.28717453195E+02  0.23295388500E+03  0.17011688509E+03 0.  0.
        -24    2    3    3    0    0  0.35812144780E+02 -0.31010965337E+02  0.19758586596E+02  0.95349606969E+02  0.80355187263E+02 0.  0.
          6    2    1    2  501    0  0.23508704195E+02  0.15475918924E+03  0.36048629184E+03  0.42870880617E+03  0.17128283060E+03 0.  0.
         24    2    5    5    0    0 -0.37821830905E+02  0.81911696857E+02  0.12115926431E+03  0.17108949830E+03  0.80324542486E+02 0.  0.
          5    1    5    5  501    0  0.61330535101E+02  0.72847492380E+02  0.23932702753E+03  0.25761930787E+03  0.47000000000E+01 0. -1.
        -11    1    6    6    0    0 -0.39778000736E+02  0.87403684747E+02  0.68135230165E+02  0.11774592579E+03  0.00000000000E+00 0.  1.
         12    1    6    6    0    0  0.19561698307E+01 -0.54919878902E+01  0.53024034146E+02  0.53343572514E+02  0.00000000000E+00 0. -1.
         -5    1    3    3    0  503 -0.59320848975E+02 -0.12374822390E+03  0.89588665987E+01  0.13760427803E+03  0.47000000000E+01 0.  1.
         11    1    4    4    0    0  0.51222617637E+02 -0.47647545886E+02  0.19677463465E+02  0.72672193823E+02  0.00000000000E+00 0. -1.
        -12    1    4    4    0    0 -0.15410472857E+02  0.16636580549E+02  0.81123130871E-01  0.22677413146E+02  0.00000000000E+00 0.  1.
</event>
<event>
12    1  0.1593360E-001  0.1905040E+03  0.7818608E-02  0.1158139E+00
         21   -1    0    0  501  502  0.00000000000E+00  0.00000000000E+00  0.25767928055E+03  0.25767928055E+03  0.00000000000E+00 0.  1.
         21   -1    0    0  502  503 -0.00000000000E+00 -0.00000000000E+00 -0.14106805427E+03  0.14106805427E+03  0.00000000000E+00 0.  1.
         -6    2    1    2    0  503 -0.48356020179E+02 -0.65763140901E+02  0.44776137123E+02  0.19569531997E+03  0.17212977782E+03 0.  0.
        -24    2    3    3    0    0  0.33360062034E+02 -0.63302196780E+02  0.10484942680E+02  0.10691722383E+03  0.78748313455E+02 0.  0.
          6    2    1    2  501    0  0.48356020179E+02  0.65763140901E+02  0.71835089164E+02  0.20305201485E+03  0.17148395059E+03 0.  0.
         24    2    5    5    0    0 -0.53167182895E+01  0.68865256145E+02 -0.86971142545E+01  0.10610918757E+03  0.80080140439E+02 0.  0.
          5    1    5    5  501    0  0.53672738469E+02 -0.31021152441E+01  0.80532203419E+02  0.96942827281E+02  0.47000000000E+01 0. -1.
        -11    1    6    6    0    0  0.31013508487E+02  0.38345559045E+01 -0.18501361495E+01  0.31304385179E+02  0.00000000000E+00 0.  1.
         12    1    6    6    0    0 -0.36330226776E+02  0.65030700241E+02 -0.68469781051E+01  0.74804802390E+02  0.00000000000E+00 0. -1.
         -5    1    3    3    0  503 -0.81716082213E+02 -0.24609441206E+01  0.34291194443E+02  0.88778096142E+02  0.47000000000E+01 0.  1.
         11    1    4    4    0    0  0.16669562123E+02 -0.37736599732E+01  0.36142912263E+02  0.39980306624E+02  0.00000000000E+00 0. -1.
        -12    1    4    4    0    0  0.16690499911E+02 -0.59528536807E+02 -0.25657969583E+02  0.66936917204E+02  0.00000000000E+00 0.  1.
</event>
<event>
12    1  0.1593360E-001  0.1870564E+03  0.7818608E-02  0.1162045E+00
         21   -1    0    0  503  502  0.00000000000E+00  0.00000000000E+00  0.12104005134E+04  0.12104005134E+04  0.00000000000E+00 0.  1.
         21   -1    0    0  501  503 -0.00000000000E+00 -0.00000000000E+00 -0.28877673692E+02  0.28877673692E+02  0.00000000000E+00 0.  1.
          6    2    1    2  501    0 -0.59445239449E+02 -0.20410410087E+02  0.49798930282E+03  0.53061168961E+03  0.17206132073E+03 0.  0.
         24    2    3    3    0    0 -0.32849692648E+02  0.55375251236E+02  0.24978197237E+03  0.26969070835E+03  0.78718001063E+02 0.  0.
         -6    2    1    2    0  502  0.59445239449E+02  0.20410410087E+02  0.68353353693E+03  0.70866649753E+03  0.17618112066E+03 0.  0.
        -24    2    5    5    0    0  0.21752110410E+02 -0.45744591564E+02  0.51142745427E+03  0.52041175016E+03  0.81881785234E+02 0.  0.
          5    1    3    3  501    0 -0.26595546801E+02 -0.75785661322E+02  0.24820733045E+03  0.26092098126E+03  0.47000000000E+01 0. -1.
        -11    1    4    4    0    0 -0.49900075554E+02  0.44640342894E+02  0.23591440717E+03  0.24523128933E+03  0.00000000000E+00 0.  1.
         12    1    4    4    0    0  0.17050382906E+02  0.10734908342E+02  0.13867565202E+02  0.24459419024E+02  0.00000000000E+00 0. -1.
         -5    1    5    5    0  502  0.37693129038E+02  0.66155001651E+02  0.17210608266E+03  0.18825474737E+03  0.47000000000E+01 0.  1.
         13    1    6    6    0    0  0.27978471332E+02  0.15955833358E+02  0.22916138801E+03  0.23141375333E+03  0.00000000000E+00 0. -1.
        -14    1    6    6    0    0 -0.62263609212E+01 -0.61700424922E+02  0.28226606626E+03  0.28899799683E+03  0.00000000000E+00 0.  1.
</event>
<event>
12    1  0.1593360E-001  0.1948308E+03  0.7818608E-02  0.1154720E+00
         21   -1    0    0  503  502  0.00000000000E+00  0.00000000000E+00  0.19485129507E+02  0.19485129507E+02  0.00000000000E+00 0. -1.
         21   -1    0    0  501  503 -0.00000000000E+00 -0.00000000000E+00 -0.19234966591E+04  0.19234966591E+04  0.00000000000E+00 0. -1.
          6    2    1    2  501    0 -0.44862988433E+01  0.91636160698E+02 -0.96605403261E+03  0.98550466046E+03  0.17187707539E+03 0.  0.
         24    2    3    3    0    0 -0.36223558813E+02  0.11352748016E+03 -0.57666652358E+03  0.59418483509E+03  0.79439938765E+02 0.  0.
         -6    2    1    2    0  502  0.44862988433E+01 -0.91636160698E+02 -0.93795749701E+03  0.95747712818E+03  0.16905878253E+03 0.  0.
        -24    2    5    5    0    0  0.67464944488E+02 -0.50110789957E+02 -0.61632726180E+03  0.62708529349E+03  0.79461070159E+02 0.  0.
          5    1    3    3  501    0  0.31737259969E+02 -0.21891319463E+02 -0.38938750903E+03  0.39131982536E+03  0.47000000000E+01 0. -1.
        -13    1    4    4    0    0 -0.79232232828E+01  0.14710517630E+02 -0.12858856520E+02  0.21083808649E+02  0.00000000000E+00 0.  1.
         14    1    4    4    0    0 -0.28300335530E+02  0.98816962531E+02 -0.56380766706E+03  0.57310102644E+03  0.00000000000E+00 0. -1.
         -5    1    5    5    0  502 -0.62978645645E+02 -0.41525370742E+02 -0.32163023521E+03  0.33039183468E+03  0.47000000000E+01 0.  1.
         11    1    6    6    0    0 -0.34980296713E+01 -0.36998625627E+02 -0.12250315636E+03  0.12801624048E+03  0.00000000000E+00 0. -1.
        -12    1    6    6    0    0  0.70962974159E+02 -0.13112164330E+02 -0.49382410545E+03  0.49906905301E+03  0.00000000000E+00 0.  1.
</event>
<event>
12    1  0.1593360E-001  0.1826063E+03  0.7818608E-02  0.1165481E+00
         21   -1    0    0  501  502  0.00000000000E+00  0.00000000000E+00  0.49250350110E+03  0.49250350110E+03  0.00000000000E+00 0. -1.
         21   -1    0    0  502  503 -0.00000000000E+00 -0.00000000000E+00 -0.14896191688E+03  0.14896191688E+03  0.00000000000E+00 0. -1.
         -6    2    1    2    0  503  0.57870176385E+02 -0.19351588023E+02 -0.65354676717E+02  0.19394922352E+03  0.17210934392E+03 0.  0.
        -24    2    3    3    0    0  0.76625316002E+02  0.98619326088E+01  0.10107091470E+02  0.11075214721E+03  0.78709516870E+02 0.  0.
          6    2    1    2  501    0 -0.57870176385E+02  0.19351588023E+02  0.40889626094E+03  0.44751619445E+03  0.17132177565E+03 0.  0.
         24    2    5    5    0    0 -0.79589141889E+02 -0.38289844896E+02  0.28867857076E+03  0.31235469370E+03  0.80184747519E+02 0.  0.
          5    1    5    5  501    0  0.21718965504E+02  0.57641432920E+02  0.12021769018E+03  0.13516150075E+03  0.47000000000E+01 0. -1.
        -13    1    6    6    0    0 -0.16805475090E+01 -0.31086873663E+02  0.34799539702E+02  0.46692889368E+02  0.00000000000E+00 0.  1.
         14    1    6    6    0    0 -0.77908594380E+02 -0.72029712338E+01  0.25387903105E+03  0.26566180433E+03  0.00000000000E+00 0. -1.
         -5    1    3    3    0  503 -0.18755139617E+02 -0.29213520632E+02 -0.75461768187E+02  0.83197076317E+02  0.47000000000E+01 0.  1.
         11    1    4    4    0    0  0.37754210458E+02 -0.11928073163E+02 -0.30876254440E+02  0.50209584991E+02  0.00000000000E+00 0. -1.
        -12    1    4    4    0    0  0.38871105544E+02  0.21790005772E+02  0.40983345910E+02  0.60542562217E+02  0.00000000000E+00 0.  1.
</event>
<event>
12    1  0.1593360E-001  0.1741420E+03  0.7818608E-02  0.1173961E+00
         21   -1    0    0  503  502  0.00000000000E+00  0.00000000000E+00  0.17851657115E+03  0.17851657115E+03  0.00000000000E+00 0.  1.
         21   -1    0    0  501  503 -0.00000000000E+00 -0.00000000000E+00 -0.21355506472E+03  0.21355506472E+03  0.00000000000E+00 0.  1.
          6    2    1    2  501    0 -0.21085342987E+02  0.14503767204E+02 -0.10753080327E+03  0.20344351173E+03  0.17079648082E+03 0.  0.
         24    2    3    3    0    0 -0.50583842020E+02  0.49189854873E+01 -0.13362888952E+03  0.16263628698E+03  0.77530382675E+02 0.  0.
         -6    2    1    2    0  502  0.21085342987E+02 -0.14503767204E+02  0.72492309701E+02  0.18862812414E+03  0.17225122147E+03 0.  0.
        -24    2    5    5    0    0  0.39598626349E+02 -0.48496993873E+02 -0.50810618969E+01  0.10180647303E+03  0.80116984076E+02 0.  0.
          5    1    3    3  501    0  0.29498499033E+02  0.95847817164E+01  0.26098086251E+02  0.40807224749E+02  0.47000000000E+01 0. -1.
        -11    1    4    4    0    0  0.10681983294E+02 -0.15598797102E+02 -0.67845354592E+02  0.70430244766E+02  0.00000000000E+00 0.  1.
         12    1    4    4    0    0 -0.61265825314E+02  0.20517782589E+02 -0.65783534926E+02  0.92206042216E+02  0.00000000000E+00 0. -1.
         -5    1    5    5    0  502 -0.18513283361E+02  0.33993226670E+02  0.77573371598E+02  0.86821651109E+02  0.47000000000E+01 0.  1.
         13    1    6    6    0    0 -0.85173889821E+01 -0.43850178730E+02 -0.23011242933E+02  0.50248396900E+02  0.00000000000E+00 0. -1.
        -14    1    6    6    0    0  0.48116015331E+02 -0.46468151435E+01  0.17930181036E+02  0.51558076130E+02  0.00000000000E+00 0.  1.
</event>
<event>
12    1  0.1593360E-001  0.1877131E+03  0.7818608E-02  0.1160873E+00
         21   -1    0    0  501  502  0.00000000000E+00  0.00000000000E+00  0.36389719611E+03  0.36389719611E+03  0.00000000000E+00 0.  1.
         21   -1    0    0  502  503 -0.00000000000E+00 -0.00000000000E+00 -0.46463633551E+03  0.46463633551E+03  0.00000000000E+00 0.  1.
         -6    2    1    2    0  503 -0.24266241445E+02 -0.71044044472E+02 -0.41936357984E+03  0.45945841684E+03  0.17204684820E+03 0.  0.
        -24    2    3    3    0    0 -0.67623105503E+01 -0.41174260208E+02 -0.41466074340E+03  0.42420507261E+03  0.79154045763E+02 0.  0.
          6    2    1    2  501    0  0.24266241445E+02  0.71044044472E+02  0.31862444044E+03  0.36907511478E+03  0.17046641773E+03 0.  0.
         24    2    5    5    0    0  0.60477425548E+02  0.42289307492E+02  0.10659863689E+03  0.15201494772E+03  0.79368573215E+02 0.  0.
          5    1    5    5  501    0 -0.36211184103E+02  0.28754736979E+02  0.21202580355E+03  0.21706016706E+03  0.47000000000E+01 0. -1.
        -11    1    6    6    0    0 -0.53508006170E+01  0.20407651398E+02  0.70952256183E+02  0.74022469293E+02  0.00000000000E+00 0.  1.
         12    1    6    6    0    0  0.65828226165E+02  0.21881656095E+02  0.35646380706E+02  0.77992478425E+02  0.00000000000E+00 0. -1.
         -5    1    3    3    0  503 -0.17503930895E+02 -0.29869784263E+02 -0.47028364399E+01  0.35253344229E+02  0.47000000000E+01 0.  1.
         13    1    4    4    0    0 -0.38004845264E+02 -0.28266647170E+02 -0.14759754787E+03  0.15501099233E+03  0.00000000000E+00 0. -1.
        -14    1    4    4    0    0  0.31242534714E+02 -0.12907613038E+02 -0.26706319553E+03  0.26919408028E+03  0.00000000000E+00 0.  1.
</event>
<event>
12    1  0.1593360E-001  0.1728347E+03  0.7818608E-02  0.1175274E+00
         21   -1    0    0  503  502  0.00000000000E+00  0.00000000000E+00  0.13815172317E+04  0.13815172317E+04  0.00000000000E+00 0. -1.
         21   -1    0    0  501  503 -0.00000000000E+00 -0.00000000000E+00 -0.24726085148E+02  0.24726085148E+02  0.00000000000E+00 0. -1.
          6    2    1    2  501    0  0.53766963732E+01 -0.88607024923E+01  0.42486838351E+03  0.45867743837E+03  0.17252370344E+03 0.  0.
         24    2    3    3    0    0  0.69253832263E+02 -0.56749697158E+01  0.27192909034E+03  0.29283729010E+03  0.83546093471E+02 0.  0.
         -6    2    1    2    0  502 -0.53766963732E+01  0.88607024923E+01  0.93192276307E+03  0.94756587851E+03  0.17115383978E+03 0.  0.
        -24    2    5    5    0    0  0.18728943978E+02 -0.57190699436E+02  0.61931236903E+03  0.62711117336E+03  0.78096503557E+02 0.  0.
          5    1    3    3  501    0 -0.63877135890E+02 -0.31857327764E+01  0.15293929317E+03  0.16584014827E+03  0.47000000000E+01 0. -1.
        -13    1    4    4    0    0 -0.16665037836E+02 -0.90593507528E+01  0.84843345317E+02  0.86937843122E+02  0.00000000000E+00 0.  1.
         14    1    4    4    0    0  0.85918870099E+02  0.33843810370E+01  0.18708574503E+03  0.20589944698E+03  0.00000000000E+00 0. -1.
         -5    1    5    5    0  502 -0.24105640351E+02  0.66051401928E+02  0.31261039403E+03  0.32045470515E+03  0.47000000000E+01 0.  1.
         13    1    6    6    0    0 -0.12734625477E+02  0.10283740411E+02  0.43003067109E+02  0.46012930614E+02  0.00000000000E+00 0. -1.
        -14    1    6    6    0    0  0.31463569455E+02 -0.67474439846E+02  0.57630930192E+03  0.58109824274E+03  0.00000000000E+00 0.  1.
</event>
<event>
12    1  0.1593360E-001  0.1745898E+03  0.7818608E-02  0.1173290E+00
         21   -1    0    0  501  502  0.00000000000E+00  0.00000000000E+00  0.38188773043E+03  0.38188773043E+03  0.00000000000E+00 0.  1.
         21   -1    0    0  502  503 -0.00000000000E+00 -0.00000000000E+00 -0.79832005465E+02  0.79832005465E+02  0.00000000000E+00 0.  1.
         -6    2    1    2    0  503  0.14984628527E+02  0.17459642185E+02  0.13718043763E+03  0.22158342916E+03  0.17248584119E+03 0.  0.
        -24    2    3    3    0    0 -0.10265219308E+02  0.62646001632E+02  0.38615761902E+02  0.11015431628E+03  0.81319739792E+02 0.  0.
          6    2    1    2  501    0 -0.14984628527E+02 -0.17459642185E+02  0.16487528733E+03  0.24013630673E+03  0.17306705995E+03 0.  0.
         24    2    5    5    0    0  0.44616576553E+02  0.18363741979E+02  0.13599782300E+03  0.16469350425E+03  0.79376801142E+02 0.  0.
          5    1    5    5  501    0 -0.59601205080E+02 -0.35823384164E+02  0.28877464336E+02  0.75442802483E+02  0.47000000000E+01 0. -1.
        -11    1    6    6    0    0  0.22641147235E+02 -0.31270527808E+02  0.57041573896E+02  0.68878215788E+02  0.00000000000E+00 0.  1.
         12    1    6    6    0    0  0.21975429317E+02  0.49634269788E+02  0.78956249099E+02  0.95815288461E+02  0.00000000000E+00 0. -1.
         -5    1    3    3    0  503  0.25249847835E+02 -0.45186359448E+02  0.98564675729E+02  0.11142911288E+03  0.47000000000E+01 0.  1.
         13    1    4    4    0    0  0.28052374023E+02  0.25538157653E+02  0.42136441068E+02  0.56697555948E+02  0.00000000000E+00 0. -1.
        -14    1    4    4    0    0 -0.38317593330E+02  0.37107843979E+02 -0.35206791657E+01  0.53456760332E+02  0.00000000000E+00 0.  1.
</event>
<event>
12    1  0.1593360E-001  0.1746313E+03  0.7818608E-02  0.1173356E+00
         21   -1    0    0  501  502  0.00000000000E+00  0.00000000000E+00  0.62067989918E+03  0.62067989918E+03  0.00000000000E+00 0. -1.
         21   -1    0    0  502  503 -0.00000000000E+00 -0.00000000000E+00 -0.50094524306E+02  0.50094524306E+02  0.00000000000E+00 0. -1.
         -6    2    1    2    0  503 -0.67320855424E+01  0.23285433477E+02  0.33892352157E+03  0.38126795193E+03  0.17294093012E+03 0.  0.
        -24    2    3    3    0    0  0.37934021865E+02 -0.37768084764E+02  0.22336772345E+03  0.24307306881E+03  0.79535895436E+02 0.  0.
          6    2    1    2  501    0  0.67320855424E+01 -0.23285433477E+02  0.23166185331E+03  0.28950647156E+03  0.17192803846E+03 0.  0.
         24    2    5    5    0    0  0.37463385522E+02  0.36515701263E+01  0.46431969630E+02  0.99763975608E+02  0.79875426798E+02 0.  0.
          5    1    5    5  501    0 -0.30731299979E+02 -0.26937003604E+02  0.18522988368E+03  0.18974249595E+03  0.47000000000E+01 0. -1.
        -11    1    6    6    0    0  0.44837034869E+02  0.31741213668E+02  0.44430754139E+02  0.70653777353E+02  0.00000000000E+00 0.  1.
         12    1    6    6    0    0 -0.73736493471E+01 -0.28089643542E+02  0.20012154913E+01  0.29110198255E+02  0.00000000000E+00 0. -1.
         -5    1    3    3    0  503 -0.44666107407E+02  0.61053518242E+02  0.11555579812E+03  0.13819488312E+03  0.47000000000E+01 0.  1.
         11    1    4    4    0    0  0.53862512592E+02 -0.92888888916E+01  0.86127107173E+02  0.10200653072E+03  0.00000000000E+00 0. -1.
        -12    1    4    4    0    0 -0.15928490727E+02 -0.28479195873E+02  0.13724061627E+03  0.14106653809E+03  0.00000000000E+00 0.  1.
</event>
<event>
12    1  0.1593360E-001  0.2345198E+03  0.7818608E-02  0.1123858E+00
         21   -1    0    0  503  502  0.00000000000E+00  0.00000000000E+00  0.12328620826E+03  0.12328620826E+03  0.00000000000E+00 0. -1.
         21   -1    0    0  501  503 -0.00000000000E+00 -0.00000000000E+00 -0.48397072885E+03  0.48397072885E+03  0.00000000000E+00 0.  1.
          6    2    1    2  501    0  0.14849915968E+03 -0.48439463004E+02 -0.27033407935E+03  0.35788273875E+03  0.17493186741E+03 0.  0.
         24    2    3    3    0    0  0.95163566065E+02 -0.63964543146E+02 -0.26790396670E+03  0.30208211951E+03  0.79583317787E+02 0.  0.
         -6    2    1    2    0  502 -0.14849915968E+03  0.48439463004E+02 -0.90350441237E+02  0.24937419836E+03  0.17212177833E+03 0.  0.
        -24    2    5    5    0    0 -0.16693003634E+03  0.69689921869E+02 -0.92753079779E+02  0.22075354343E+03  0.86062017675E+02 0.  0.
          5    1    3    3  501    0  0.53335593617E+02  0.15525080142E+02 -0.24301126495E+01  0.55800619239E+02  0.47000000000E+01 0. -1.
        -13    1    4    4    0    0 -0.80498765791E+01 -0.17007593555E+02 -0.83581618891E+02  0.85673483458E+02  0.00000000000E+00 0.  1.
         14    1    4    4    0    0  0.10321344264E+03 -0.46956949591E+02 -0.18432234781E+03  0.21640863605E+03  0.00000000000E+00 0. -1.
         -5    1    5    5    0  502  0.18430876662E+02 -0.21250458865E+02  0.24026385420E+01  0.28620654927E+02  0.47000000000E+01 0.  1.
         13    1    6    6    0    0 -0.32939685283E+02 -0.38305768294E+01  0.12218772530E+02  0.35341117519E+02  0.00000000000E+00 0. -1.
        -14    1    6    6    0    0 -0.13399035106E+03  0.73520498698E+02 -0.10497185231E+03  0.18541242591E+03  0.00000000000E+00 0.  1.
</event>
<event>
12    1  0.1593360E-001  0.1880073E+03  0.7818608E-02  0.1160513E+00
         21   -1    0    0  501  502  0.00000000000E+00  0.00000000000E+00  0.22676907911E+03  0.22676907911E+03  0.00000000000E+00 0. -1.
         21   -1    0    0  502  503 -0.00000000000E+00 -0.00000000000E+00 -0.36168380873E+03  0.36168380873E+03  0.00000000000E+00 0. -1.
         -6    2    1    2    0  503 -0.45232172999E+02 -0.60925962308E+02 -0.28995719895E+03  0.34557476693E+03  0.17201401093E+03 0.  0.
        -24    2    3    3    0    0 -0.85110846656E+02  0.36063707101E+01 -0.18495754883E+03  0.21595321339E+03  0.71900162543E+02 0.  0.
          6    2    1    2  501    0  0.45232172999E+02  0.60925962308E+02  0.15504246933E+03  0.24287812091E+03  0.17086161641E+03 0.  0.
         24    2    5    5    0    0 -0.80332192126E+01 -0.28405177160E+02  0.81964501757E+02  0.11567853824E+03  0.76104914165E+02 0.  0.
          5    1    5    5  501    0  0.53265392212E+02  0.89331139468E+02  0.73077967574E+02  0.12719958267E+03  0.47000000000E+01 0. -1.
        -13    1    6    6    0    0  0.50336512897E+01 -0.91838137453E+01 -0.13692449211E+02  0.17238423524E+02  0.00000000000E+00 0.  1.
         14    1    6    6    0    0 -0.13066870502E+02 -0.19221363414E+02  0.95656950968E+02  0.98440114713E+02  0.00000000000E+00 0. -1.
         -5    1    3    3    0  503  0.39878673657E+02 -0.64532333019E+02 -0.10499965012E+03  0.12962155354E+03  0.47000000000E+01 0.  1.
         13    1    4    4    0    0 -0.66821356529E+02 -0.28530171026E+02 -0.10307857791E+03  0.12611208336E+03  0.00000000000E+00 0. -1.
        -14    1    4    4    0    0 -0.18289490127E+02  0.32136541736E+02 -0.81878970927E+02  0.89841130024E+02  0.00000000000E+00 0.  1.
</event>
<event>
12    1  0.1593360E-001  0.1739916E+03  0.7818608E-02  0.1173890E+00
         21   -1    0    0  503  502  0.00000000000E+00  0.00000000000E+00  0.52740218846E+03  0.52740218846E+03  0.00000000000E+00 0. -1.
         21   -1    0    0  501  503 -0.00000000000E+00 -0.00000000000E+00 -0.28272304625E+03  0.28272304625E+03  0.00000000000E+00 0. -1.
          6    2    1    2  501    0  0.17386338571E+02 -0.17707590925E+02 -0.23938165869E+03  0.29593350289E+03  0.17221270590E+03 0.  0.
         24    2    3    3    0    0 -0.12027534957E+02  0.43805024062E+02 -0.18398149193E+03  0.20795483368E+03  0.85629911539E+02 0.  0.
         -6    2    1    2    0  502 -0.17386338571E+02  0.17707590925E+02  0.48406080090E+03  0.51419173182E+03  0.17164624831E+03 0.  0.
        -24    2    5    5    0    0  0.56682962567E+02 -0.44539106174E+01  0.26327067903E+03  0.28020933625E+03  0.77285355137E+02 0.  0.
          5    1    3    3  501    0  0.29413873529E+02 -0.61512614986E+02 -0.55400166759E+02  0.87978669206E+02  0.47000000000E+01 0. -1.
        -11    1    4    4    0    0 -0.28220107068E+02 -0.44185814821E+01 -0.16651088146E+02  0.33062925486E+02  0.00000000000E+00 0.  1.
         12    1    4    4    0    0  0.16192572111E+02  0.48223605544E+02 -0.16733040378E+03  0.17489190820E+03  0.00000000000E+00 0. -1.
         -5    1    5    5    0  502 -0.74069301138E+02  0.22161501542E+02  0.22079012187E+03  0.23398239557E+03  0.47000000000E+01 0.  1.
         11    1    6    6    0    0  0.32029151335E+02  0.28487316543E+02  0.20136860840E+03  0.20588032977E+03  0.00000000000E+00 0. -1.
        -12    1    6    6    0    0  0.24653811232E+02 -0.32941227160E+02  0.61902070629E+02  0.74329006473E+02  0.00000000000E+00 0.  1.
</event>
<event>
12    1  0.1593360E-001  0.1744279E+03  0.7818608E-02  0.1173438E+00
         21   -1    0    0  503  502  0.00000000000E+00  0.00000000000E+00  0.87287778781E+02  0.87287778781E+02  0.00000000000E+00 0.  1.
         21   -1    0    0  501  503 -0.00000000000E+00 -0.00000000000E+00 -0.36494734246E+03  0.36494734246E+03  0.00000000000E+00 0.  1.
          6    2    1    2  501    0  0.26543879384E+02 -0.59994742239E+01 -0.18842334195E+03  0.25676534623E+03  0.17229194993E+03 0.  0.
         24    2    3    3    0    0  0.40229372617E+02  0.52954052538E+02 -0.15695953059E+03  0.18839230719E+03  0.80204944128E+02 0.  0.
         -6    2    1    2    0  502 -0.26543879384E+02  0.59994742239E+01 -0.89236221730E+02  0.19546977501E+03  0.17176949220E+03 0.  0.
        -24    2    5    5    0    0 -0.58412737587E+02 -0.45202652650E+02 -0.77117240437E+02  0.13377502947E+03  0.80581399953E+02 0.  0.
          5    1    3    3  501    0 -0.13685493233E+02 -0.58953526762E+02 -0.31463811354E+02  0.68373039040E+02  0.47000000000E+01 0. -1.
        -13    1    4    4    0    0 -0.17717738753E+02  0.10708660794E+02 -0.82329952035E+02  0.84892960160E+02  0.00000000000E+00 0.  1.
         14    1    4    4    0    0  0.57947111370E+02  0.42245391744E+02 -0.74629578560E+02  0.10349934703E+03  0.00000000000E+00 0. -1.
         -5    1    5    5    0  502  0.31868858203E+02  0.51202126874E+02 -0.12118981293E+02  0.61694745539E+02  0.47000000000E+01 0.  1.
         11    1    6    6    0    0 -0.12751593083E+02  0.19960789344E+01 -0.65901245201E+02  0.67153269290E+02  0.00000000000E+00 0. -1.
        -12    1    6    6    0    0 -0.45661144504E+02 -0.47198731584E+02 -0.11215995236E+02  0.66621760181E+02  0.00000000000E+00 0.  1.
</event>
<event>
12    1  0.1593360E-001  0.1829913E+03  0.7818608E-02  0.1164963E+00
         21   -1    0    0  503  502  0.00000000000E+00  0.00000000000E+00  0.21436399547E+03  0.21436399547E+03  0.00000000000E+00 0. -1.
         21   -1    0    0  501  503 -0.00000000000E+00 -0.00000000000E+00 -0.17443588980E+03  0.17443588980E+03  0.00000000000E+00 0. -1.
          6    2    1    2  501    0 -0.76963573499E+01  0.58471114730E+02 -0.43017615004E+02  0.18797958652E+03  0.17322732051E+03 0.  0.
         24    2    3    3    0    0 -0.74832077907E+02  0.32163105763E+02 -0.17052796786E+02  0.11119691858E+03  0.73753993567E+02 0.  0.
         -6    2    1    2    0  502  0.76963573499E+01 -0.58471114730E+02  0.82945720673E+02  0.20082029876E+03  0.17312046280E+03 0.  0.
        -24    2    5    5    0    0 -0.30426841087E+01  0.31806535587E+02  0.66830070930E+02  0.10836930998E+03  0.79099528023E+02 0.  0.
          5    1    3    3  501    0  0.67135720557E+02  0.26308008967E+02 -0.25964818218E+02  0.76782667937E+02  0.47000000000E+01 0. -1.
        -11    1    4    4    0    0 -0.57196114723E+01  0.22121711094E+02 -0.32444452311E+02  0.39682824281E+02  0.00000000000E+00 0.  1.
         12    1    4    4    0    0 -0.69112466434E+02  0.10041394669E+02  0.15391655525E+02  0.71514094298E+02  0.00000000000E+00 0. -1.
         -5    1    5    5    0  502  0.10739041459E+02 -0.90277650317E+02  0.16115649743E+02  0.92450988772E+02  0.47000000000E+01 0.  1.
         13    1    6    6    0    0  0.88094288514E+01  0.51703753671E+02  0.20013611457E+02  0.56137588333E+02  0.00000000000E+00 0. -1.
        -14    1    6    6    0    0 -0.11852112960E+02 -0.19897218084E+02  0.46816459473E+02  0.52231721652E+02  0.00000000000E+00 0.  1.
</event>
<event>
12    1  0.1593360E-001  0.2113837E+03  0.7818608E-02  0.1140812E+00
         21   -1    0    0  503  502  0.00000000000E+00  0.00000000000E+00  0.41138398505E+03  0.41138398505E+03  0.00000000000E+00 0. -1.
         21   -1    0    0  501  503 -0.00000000000E+00 -0.00000000000E+00 -0.21036146421E+03  0.21036146421E+03  0.00000000000E+00 0. -1.
          6    2    1    2  501    0  0.10612587356E+03  0.63787614612E+02 -0.11682628386E+03  0.24002445943E+03  0.16920933694E+03 0.  0.
         24    2    3    3    0    0  0.56269182889E+02  0.10039528394E+03 -0.48913355140E+02  0.14804583721E+03  0.79244051032E+02 0.  0.
         -6    2    1    2    0  502 -0.10612587356E+03 -0.63787614612E+02  0.31784880469E+03  0.38172098983E+03  0.17132276735E+03 0.  0.
        -24    2    5    5    0    0 -0.12880751670E+03 -0.90471673757E+01  0.22604601127E+03  0.27235547250E+03  0.80046715070E+02 0.  0.
          5    1    3    3  501    0  0.49856690667E+02 -0.36607669331E+02 -0.67912928715E+02  0.91978622216E+02  0.47000000000E+01 0. -1.
        -11    1    4    4    0    0  0.49842428835E+02  0.15089222294E+02 -0.62507610087E+01  0.52450208339E+02  0.00000000000E+00 0.  1.
         12    1    4    4    0    0  0.64267540537E+01  0.85306061649E+02 -0.42662594131E+02  0.95595628873E+02  0.00000000000E+00 0. -1.
         -5    1    5    5    0  502  0.22681643148E+02 -0.54740447236E+02  0.91802793426E+02  0.10936551733E+03  0.47000000000E+01 0.  1.
         11    1    6    6    0    0 -0.24593646121E+02 -0.14894788369E+02  0.12062144792E+03  0.12400095099E+03  0.00000000000E+00 0. -1.
        -12    1    6    6    0    0 -0.10421387058E+03  0.58476209937E+01  0.10542456335E+03  0.14835452150E+03  0.00000000000E+00 0.  1.
</event>
<event>
12    1  0.1593360E-001  0.1893525E+03  0.7818608E-02  0.1159308E+00
         21   -1    0    0  503  502  0.00000000000E+00  0.00000000000E+00  0.95173716839E+02  0.95173716839E+02  0.00000000000E+00 0. -1.
         21   -1    0    0  501  503 -0.00000000000E+00 -0.00000000000E+00 -0.38562000314E+03  0.38562000314E+03  0.00000000000E+00 0.  1.
          6    2    1    2  501    0 -0.16261471289E+02  0.74764095787E+02 -0.10472821124E+03  0.21638478537E+03  0.17320586493E+03 0.  0.
         24    2    3    3    0    0 -0.69648042914E+02  0.68743638658E+02 -0.10227683989E+03  0.16239894320E+03  0.79601049214E+02 0.  0.
         -6    2    1    2    0  502  0.16261471289E+02 -0.74764095787E+02 -0.18571807506E+03  0.26440893460E+03  0.17194992244E+03 0.  0.
        -24    2    5    5    0    0  0.25410851181E+01 -0.87170229398E+01 -0.15792300602E+02  0.81522839854E+02  0.79461519347E+02 0.  0.
          5    1    3    3  501    0  0.53386571625E+02  0.60204571292E+01 -0.24513713472E+01  0.53985842175E+02  0.47000000000E+01 0. -1.
        -13    1    4    4    0    0 -0.36819186071E+02  0.24571167264E+02 -0.97595103759E+02  0.10716435509E+03  0.00000000000E+00 0.  1.
         14    1    4    4    0    0 -0.32828856843E+02  0.44172471393E+02 -0.46817361348E+01  0.55234588111E+02  0.00000000000E+00 0. -1.
         -5    1    5    5    0  502  0.13720386171E+02 -0.66047072847E+02 -0.16992577446E+03  0.18288609475E+03  0.47000000000E+01 0.  1.
         11    1    6    6    0    0 -0.29645956614E+02  0.19001434822E+02  0.24417813785E+01  0.35297302520E+02  0.00000000000E+00 0. -1.
        -12    1    6    6    0    0  0.32187041732E+02 -0.27718457762E+02 -0.18234081981E+02  0.46225537334E+02  0.00000000000E+00 0.  1.
</event>
<event>
12    1  0.1593360E-001  0.1784580E+03  0.7818608E-02  0.1169804E+00
         21   -1    0    0  503  502  0.00000000000E+00  0.00000000000E+00  0.22463039356E+03  0.22463039356E+03  0.00000000000E+00 0.  1.
         21   -1    0    0  501  503 -0.00000000000E+00 -0.00000000000E+00 -0.19471577147E+03  0.19471577147E+03  0.00000000000E+00 0. -1.
          6    2    1    2  501    0  0.39364181102E+02  0.17959416909E+02 -0.96081636102E+02  0.20089175053E+03  0.17103723344E+03 0.  0.
         24    2    3    3    0    0  0.55724569974E+02  0.46890101630E+02 -0.94826999851E+01  0.10801488269E+03  0.79204696540E+02 0.  0.
         -6    2    1    2    0  502 -0.39364181102E+02 -0.17959416909E+02  0.12599625819E+03  0.21845441450E+03  0.17313345929E+03 0.  0.
        -24    2    5    5    0    0 -0.15296014859E+02  0.29134742410E+02  0.65460239327E+01  0.87734925008E+02  0.81066425547E+02 0.  0.
          5    1    3    3  501    0 -0.16360388872E+02 -0.28930684720E+02 -0.86598936117E+02  0.92876867836E+02  0.47000000000E+01 0. -1.
        -11    1    4    4    0    0 -0.17421254356E+02  0.16613772495E+02  0.10660780957E+02  0.26328117868E+02  0.00000000000E+00 0.  1.
         12    1    4    4    0    0  0.73145824330E+02  0.30276329135E+02 -0.20143480942E+02  0.81686764823E+02  0.00000000000E+00 0. -1.
         -5    1    5    5    0  502 -0.24068166243E+02 -0.47094159319E+02  0.11945023426E+03  0.13071948949E+03  0.47000000000E+01 0.  1.
         11    1    6    6    0    0  0.15118385887E+02 -0.12672742031E+02 -0.21284041593E+02  0.29020241366E+02  0.00000000000E+00 0. -1.
        -12    1    6    6    0    0 -0.30414400746E+02  0.41807484441E+02  0.27830065525E+02  0.58714683642E+02  0.00000000000E+00 0.  1.
</event>
<event>
12    1  0.1593360E-001  0.2181254E+03  0.7818608E-02  0.1135523E+00
         21   -1    0    0  503  502  0.00000000000E+00  0.00000000000E+00  0.16997182627E+03  0.16997182627E+03  0.00000000000E+00 0.  1.
         21   -1    0    0  501  503 -0.00000000000E+00 -0.00000000000E+00 -0.43214252324E+03  0.43214252324E+03  0.00000000000E+00 0. -1.
          6    2    1    2  501    0 -0.59853338115E+02 -0.11723508922E+03 -0.31093804460E+03  0.37981726748E+03  0.17393159825E+03 0.  0.
         24    2    3    3    0    0 -0.93287871467E+02 -0.39646911371E+02 -0.15068737608E+03  0.19859872505E+03  0.80375765850E+02 0.  0.
         -6    2    1    2    0  502  0.59853338115E+02  0.11723508922E+03  0.48767347621E+02  0.22229708203E+03  0.17236951662E+03 0.  0.
        -24    2    5    5    0    0 -0.10303793444E+02  0.19491143610E+02 -0.20766968404E+02  0.83253876098E+02  0.77549133264E+02 0.  0.
          5    1    3    3  501    0  0.33434533352E+02 -0.77588177848E+02 -0.16025066851E+03  0.18121854243E+03  0.47000000000E+01 0. -1.
        -13    1    4    4    0    0 -0.77031438274E+02 -0.54925046380E+02 -0.78159079836E+02  0.12271693022E+03  0.00000000000E+00 0.  1.
         14    1    4    4    0    0 -0.16256433193E+02  0.15278135009E+02 -0.72528296246E+02  0.75881794825E+02  0.00000000000E+00 0. -1.
         -5    1    5    5    0  502  0.70157131560E+02  0.97743945609E+02  0.69534316025E+02  0.13904320594E+03  0.47000000000E+01 0.  1.
         13    1    6    6    0    0  0.32784309963E+01  0.54005148627E+00  0.28529148221E+02  0.28721978755E+02  0.00000000000E+00 0. -1.
        -14    1    6    6    0    0 -0.13582224441E+02  0.18951092123E+02 -0.49296116625E+02  0.54531897342E+02  0.00000000000E+00 0.  1.
</event>
<event>
12    1  0.1593360E-001  0.1868373E+03  0.7818608E-02  0.1161644E+00
         21   -1    0    0  503  502  0.00000000000E+00  0.00000000000E+00  0.27799822711E+03  0.27799822711E+03  0.00000000000E+00 0. -1.
         21   -1    0    0  501  503 -0.00000000000E+00 -0.00000000000E+00 -0.13868702046E+03  0.13868702046E+03  0.00000000000E+00 0. -1.
          6    2    1    2  501    0 -0.69235555517E+02  0.13227256874E+01  0.32787094297E+01  0.18557268857E+03  0.17213704150E+03 0.  0.
         24    2    3    3    0    0  0.15313654641E+01 -0.49151939156E+02  0.23830473740E+02  0.96129332681E+02  0.79086654501E+02 0.  0.
         -6    2    1    2    0  502  0.69235555517E+02 -0.13227256874E+01  0.13603249722E+03  0.23111255900E+03  0.17353058197E+03 0.  0.
        -24    2    5    5    0    0  0.11545730079E+02 -0.56122061837E+02  0.11038481856E+03  0.14738098418E+03  0.79078167796E+02 0.  0.
          5    1    3    3  501    0 -0.70766920981E+02  0.50474664843E+02 -0.20551764311E+02  0.89443355887E+02  0.47000000000E+01 0. -1.
        -11    1    4    4    0    0 -0.38529087923E+02 -0.27673107530E+02  0.87477164576E+01  0.48237060853E+02  0.00000000000E+00 0.  1.
         12    1    4    4    0    0  0.40060453387E+02 -0.21478831625E+02  0.15082757283E+02  0.47892271828E+02  0.00000000000E+00 0. -1.
         -5    1    5    5    0  502  0.57689825438E+02  0.54799336149E+02  0.25647678664E+02  0.83731574823E+02  0.47000000000E+01 0.  1.
         13    1    6    6    0    0 -0.75201141703E+01  0.14241232694E+02  0.50599599724E+02  0.53100699789E+02  0.00000000000E+00 0. -1.
        -14    1    6    6    0    0  0.19065844249E+02 -0.70363294530E+02  0.59785218836E+02  0.94280284394E+02  0.00000000000E+00 0.  1.
</event>
<event>
12    1  0.1593360E-001  0.1854488E+03  0.7818608E-02  0.1162954E+00
         21   -1    0    0  501  502  0.00000000000E+00  0.00000000000E+00  0.42641648815E+03  0.42641648815E+03  0.00000000000E+00 0. -1.
         21   -1    0    0  502  503 -0.00000000000E+00 -0.00000000000E+00 -0.80724605200E+02  0.80724605200E+02  0.00000000000E+00 0. -1.
         -6    2    1    2    0  503 -0.58876997922E+02 -0.27038754649E+02  0.19661018943E+03  0.27027178382E+03  0.17376327403E+03 0.  0.
        -24    2    3    3    0    0 -0.45957848259E+02 -0.18578724325E+02  0.23985997630E+02  0.96894512712E+02  0.79724059714E+02 0.  0.
          6    2    1    2  501    0  0.58876997922E+02  0.27038754649E+02  0.14908169352E+03  0.23686930954E+03  0.17229081031E+03 0.  0.
         24    2    5    5    0    0  0.67860651024E+02  0.33156759304E+02  0.15049979303E+02  0.10231550461E+03  0.67361130935E+02 0.  0.
          5    1    5    5  501    0 -0.89836531011E+01 -0.61180046556E+01  0.13403171422E+03  0.13455380493E+03  0.47000000000E+01 0. -1.
        -11    1    6    6    0    0  0.22168252251E+01 -0.72386894706E+01  0.23582063007E+02  0.24767451120E+02  0.00000000000E+00 0.  1.
         12    1    6    6    0    0  0.65643825798E+02  0.40395448775E+02 -0.85320837040E+01  0.77548053486E+02  0.00000000000E+00 0. -1.
         -5    1    3    3    0  503 -0.12919149663E+02 -0.84600303231E+01  0.17262419180E+03  0.17337727111E+03  0.47000000000E+01 0.  1.
         11    1    4    4    0    0 -0.18206420796E+02 -0.48825345031E+02  0.74456539468E+01  0.52638634464E+02  0.00000000000E+00 0. -1.
        -12    1    4    4    0    0 -0.27751427464E+02  0.30246620705E+02  0.16540343683E+02  0.44255878248E+02  0.00000000000E+00 0.  1.
</event>
<event>
12    1  0.1593360E-001  0.1898901E+03  0.7818608E-02  0.1158574E+00
         21   -1    0    0  501  502  0.00000000000E+00  0.00000000000E+00  0.11770308127E+04  0.11770308127E+04  0.00000000000E+00 0. -1.
         21   -1    0    0  502  503 -0.00000000000E+00 -0.00000000000E+00 -0.84553425303E+02  0.84553425303E+02  0.00000000000E+00 0. -1.
         -6    2    1    2    0  503  0.16262862421E+02 -0.79147032024E+02  0.42503998121E+02  0.19458891229E+03  0.17184155946E+03 0.  0.
        -24    2    3    3    0    0 -0.23508711457E+02  0.13101414587E+02  0.45753993557E+02  0.93969796510E+02  0.77540880516E+02 0.  0.
          6    2    1    2  501    0 -0.16262862421E+02  0.79147032024E+02  0.10499733893E+04  0.10669953257E+04  0.17177361126E+03 0.  0.
         24    2    5    5    0    0 -0.83096346375E+01 -0.39596765205E+01  0.24065773034E+03  0.25337139254E+03  0.78715883508E+02 0.  0.
          5    1    5    5  501    0 -0.79532277830E+01  0.83106708545E+02  0.80931565891E+03  0.81362393315E+03  0.47000000000E+01 0. -1.
        -11    1    6    6    0    0 -0.16962500946E+02 -0.24910682881E+02  0.22193368689E+03  0.22397060061E+03  0.00000000000E+00 0.  1.
         12    1    6    6    0    0  0.86528663090E+01  0.20951006360E+02  0.18724043453E+02  0.29400791930E+02  0.00000000000E+00 0. -1.
         -5    1    3    3    0  503  0.39771573878E+02 -0.92248446611E+02 -0.32499954356E+01  0.10061911578E+03  0.47000000000E+01 0.  1.
         11    1    4    4    0    0 -0.33737606745E+02  0.34042903174E+02  0.65675148856E+01  0.48376415919E+02  0.00000000000E+00 0. -1.
        -12    1    4    4    0    0  0.10228895288E+02 -0.20941488587E+02  0.39186478671E+02  0.45593380591E+02  0.00000000000E+00 0.  1.
</event>
<event>
12    1  0.1593360E-001  0.2092884E+03  0.7818608E-02  0.1142205E+00
         21   -1    0    0  501  502  0.00000000000E+00  0.00000000000E+00  0.79815905022E+02  0.79815905022E+02  0.00000000000E+00 0. -1.
         21   -1    0    0  502  503 -0.00000000000E+00 -0.00000000000E+00 -0.57857949949E+03  0.57857949949E+03  0.00000000000E+00 0. -1.
         -6    2    1    2    0  503 -0.10125309945E+03 -0.57013811241E+02 -0.32552351754E+03  0.38699764425E+03  0.17406565244E+03 0.  0.
        -24    2    3    3    0    0 -0.69801847564E+02  0.34521538854E+02 -0.19189028700E+03  0.22192847127E+03  0.79789282163E+02 0.  0.
          6    2    1    2  501    0  0.10125309945E+03  0.57013811241E+02 -0.17324007693E+03  0.27139776026E+03  0.17361409851E+03 0.  0.
         24    2    5    5    0    0 -0.13069632798E+02  0.64310337303E+01 -0.69115938717E+02  0.10863341942E+03  0.82535043071E+02 0.  0.
          5    1    5    5  501    0  0.11432273225E+03  0.50582777511E+02 -0.10412413821E+03  0.16276434084E+03  0.47000000000E+01 0. -1.
        -11    1    6    6    0    0 -0.19266655964E+02 -0.95693940640E+01  0.12737803587E+02  0.25000579493E+02  0.00000000000E+00 0.  1.
         12    1    6    6    0    0  0.61970231662E+01  0.16000427794E+02 -0.81853742304E+02  0.83632839931E+02  0.00000000000E+00 0. -1.
         -5    1    3    3    0  503 -0.31451251891E+02 -0.91535350095E+02 -0.13363323054E+03  0.16506917298E+03  0.47000000000E+01 0.  1.
         13    1    4    4    0    0 -0.35961548717E+02 -0.12002898410E+02 -0.25030127039E+02  0.45429173622E+02  0.00000000000E+00 0. -1.
        -14    1    4    4    0    0 -0.33840298846E+02  0.46524437265E+02 -0.16686015996E+03  0.17649929765E+03  0.00000000000E+00 0.  1.
</event>
<event>
12    1  0.1593360E-001  0.1848780E+03  0.7818608E-02  0.1163399E+00
         21   -1    0    0  501  502  0.00000000000E+00  0.00000000000E+00  0.17581828547E+03  0.17581828547E+03  0.00000000000E+00 0. -1.
         21   -1    0    0  502  503 -0.00000000000E+00 -0.00000000000E+00 -0.22566730082E+03  0.22566730082E+03  0.00000000000E+00 0. -1.
         -6    2    1    2    0  503 -0.63915667722E+02 -0.29995194506E+02 -0.10094951494E+03  0.21064345969E+03  0.17086526350E+03 0.  0.
        -24    2    3    3    0    0 -0.72012648545E+02 -0.24493127116E+02 -0.13337557996E+03  0.17644735558E+03  0.86941872170E+02 0.  0.
          6    2    1    2  501    0  0.63915667722E+02  0.29995194506E+02  0.51100499591E+02  0.19084212659E+03  0.16977789005E+03 0.  0.
         24    2    5    5    0    0 -0.26498179272E+01  0.27283650512E+02 -0.26722959531E+02  0.88290202476E+02  0.79558935180E+02 0.  0.
          5    1    5    5  501    0  0.66565485649E+02  0.27115439942E+01  0.77823459122E+02  0.10255192412E+03  0.47000000000E+01 0. -1.
        -13    1    6    6    0    0 -0.21396923682E+02  0.26702779668E+02  0.18808792069E+02  0.39046606051E+02  0.00000000000E+00 0.  1.
         14    1    6    6    0    0  0.18747105755E+02  0.58087084378E+00 -0.45531751600E+02  0.49243596425E+02  0.00000000000E+00 0. -1.
         -5    1    3    3    0  503  0.80969808226E+01 -0.55020673902E+01  0.32426065016E+02  0.34196104111E+02  0.47000000000E+01 0.  1.
         13    1    4    4    0    0 -0.62617491595E+02 -0.25478429974E+02 -0.32284555831E+02  0.74915907475E+02  0.00000000000E+00 0. -1.
        -14    1    4    4    0    0 -0.93951569500E+01  0.98530285827E+00 -0.10109102412E+03  0.10153144811E+03  0.00000000000E+00 0.  1.
</event>
<event>
12    1  0.1593360E-001  0.1976721E+03  0.7818608E-02  0.1151834E+00
         21   -1    0    0  503  502  0.00000000000E+00  0.00000000000E+00  0.14037422095E+03  0.14037422095E+03  0.00000000000E+00 0.  1.
         21   -1    0    0  501  503 -0.00000000000E+00 -0.00000000000E+00 -0.28099934158E+03  0.28099934158E+03  0.00000000000E+00 0.  1.
          6    2    1    2  501    0 -0.85241808569E+02 -0.45171784187E+02 -0.93402628200E+02  0.21813916971E+03  0.17191274063E+03 0.  0.
         24    2    3    3    0    0 -0.53744899876E+02  0.18286634299E+02 -0.10740563533E+03  0.14577066591E+03  0.80561785493E+02 0.  0.
         -6    2    1    2    0  502  0.85241808569E+02  0.45171784187E+02 -0.47222492432E+02  0.20323439283E+03  0.17253289142E+03 0.  0.
        -24    2    5    5    0    0  0.66984289493E+02  0.21334582920E+02 -0.97603979296E+02  0.14439619617E+03  0.79885325480E+02 0.  0.
          5    1    3    3  501    0 -0.31496908693E+02 -0.63458418486E+02  0.14003007129E+02  0.72368503803E+02  0.47000000000E+01 0. -1.
        -13    1    4    4    0    0 -0.51734258830E+02  0.27484064826E+01 -0.17760995010E+02  0.54767145431E+02  0.00000000000E+00 0.  1.
         14    1    4    4    0    0 -0.20106410455E+01  0.15538227816E+02 -0.89644640319E+02  0.91003520476E+02  0.00000000000E+00 0. -1.
         -5    1    5    5    0  502  0.18257519076E+02  0.23837201267E+02  0.50381486864E+02  0.58838196656E+02  0.47000000000E+01 0.  1.
         11    1    6    6    0    0 -0.86361143628E+01 -0.29148423124E+01  0.80939587544E+01  0.12189788567E+02  0.00000000000E+00 0. -1.
        -12    1    6    6    0    0  0.75620403856E+02  0.24249425232E+02 -0.10569793805E+03  0.13220640760E+03  0.00000000000E+00 0.  1.
</event>
<event>
12    1  0.1593360E-001  0.2082707E+03  0.7818608E-02  0.1146123E+00
         21   -1    0    0  503  502  0.00000000000E+00  0.00000000000E+00  0.39295508415E+03  0.39295508415E+03  0.00000000000E+00 0. -1.
         21   -1    0    0  501  503 -0.00000000000E+00 -0.00000000000E+00 -0.17240731435E+03  0.17240731435E+03  0.00000000000E+00 0.  1.
          6    2    1    2  501    0 -0.17314952305E+00  0.11723313431E+03 -0.67229069840E+02  0.21885252618E+03  0.17214250673E+03 0.  0.
         24    2    3    3    0    0 -0.66977908631E+01  0.13164079578E+03 -0.97675755214E+02  0.18422244816E+03  0.83804520959E+02 0.  0.
         -6    2    1    2    0  502  0.17314952305E+00 -0.11723313431E+03  0.28777683964E+03  0.34650987232E+03  0.15332952887E+03 0.  0.
        -24    2    5    5    0    0  0.30287591478E+02 -0.13313408031E+03  0.24349072332E+03  0.29044678467E+03  0.80184667152E+02 0.  0.
          5    1    3    3  501    0  0.65246413400E+01 -0.14407661467E+02  0.30446685374E+02  0.34630078022E+02  0.47000000000E+01 0. -1.
        -13    1    4    4    0    0  0.36018972102E+02  0.43532812117E+02 -0.49396964520E+02  0.75050197774E+02  0.00000000000E+00 0.  1.
         14    1    4    4    0    0 -0.42716762965E+02  0.88107983663E+02 -0.48278790694E+02  0.10917225039E+03  0.00000000000E+00 0. -1.
         -5    1    5    5    0  502 -0.30114441955E+02  0.15900946000E+02  0.44286116316E+02  0.56063087645E+02  0.47000000000E+01 0.  1.
         13    1    6    6    0    0 -0.11164009752E+02 -0.29759613399E+02  0.12005501513E+03  0.12419128940E+03  0.00000000000E+00 0. -1.
        -14    1    6    6    0    0  0.41451601230E+02 -0.10337446691E+03  0.12343570819E+03  0.16625549528E+03  0.00000000000E+00 0.  1.
</event>
<event>
12    1  0.1593360E-001  0.2071551E+03  0.7818608E-02  0.1144173E+00
         21   -1    0    0  503  502  0.00000000000E+00  0.00000000000E+00  0.73139461947E+03  0.73139461947E+03  0.00000000000E+00 0.  1.
         21   -1    0    0  501  503 -0.00000000000E+00 -0.00000000000E+00 -0.59450012328E+02  0.59450012328E+02  0.00000000000E+00 0.  1.
          6    2    1    2  501    0  0.16338086183E+02 -0.11346406143E+03  0.39447313195E+03  0.44555838731E+03  0.17254622100E+03 0.  0.
         24    2    3    3    0    0 -0.39865015186E+02 -0.69817870315E+02  0.13125361022E+03  0.17284904530E+03  0.78648126582E+02 0.  0.
         -6    2    1    2    0  502 -0.16338086183E+02  0.11346406143E+03  0.27747147519E+03  0.34528624448E+03  0.17056126403E+03 0.  0.
        -24    2    5    5    0    0  0.20300586323E+02  0.81977989500E+02  0.90174548556E+02  0.15180241111E+03  0.88204411707E+02 0.  0.
          5    1    3    3  501    0  0.56203101369E+02 -0.43646191111E+02  0.26321952173E+03  0.27270934201E+03  0.47000000000E+01 0. -1.
        -13    1    4    4    0    0  0.36244442703E+01 -0.68561830031E+02  0.86450362368E+02  0.11039712989E+03  0.00000000000E+00 0.  1.
         14    1    4    4    0    0 -0.43489459457E+02 -0.12560402831E+01  0.44803247855E+02  0.62451915418E+02  0.00000000000E+00 0. -1.
         -5    1    5    5    0  502 -0.36638672505E+02  0.31486071925E+02  0.18729692663E+03  0.19348383337E+03  0.47000000000E+01 0. -1.
         13    1    6    6    0    0  0.18137582532E+02  0.31101963447E+02  0.94076855936E+02  0.10073112157E+03  0.00000000000E+00 0. -1.
        -14    1    6    6    0    0  0.21630037910E+01  0.50876026053E+02 -0.39023073804E+01  0.51071289540E+02  0.00000000000E+00 0.  1.
</event>
<event>
12    1  0.1593360E-001  0.1843082E+03  0.7818608E-02  0.1163844E+00
         21   -1    0    0  503  502  0.00000000000E+00  0.00000000000E+00  0.19849411290E+03  0.19849411290E+03  0.00000000000E+00 0.  1.
         21   -1    0    0  501  503 -0.00000000000E+00 -0.00000000000E+00 -0.18774962029E+03  0.18774962029E+03  0.00000000000E+00 0.  1.
          6    2    1    2  501    0  0.48051649879E+02  0.43326293633E+02 -0.53060238803E+02  0.19179386540E+03  0.17257858815E+03 0.  0.
         24    2    3    3    0    0  0.92404543153E+02  0.50939640746E+02 -0.13420308688E+02  0.13163942869E+03  0.77558931829E+02 0.  0.
         -6    2    1    2    0  502 -0.48051649879E+02 -0.43326293633E+02  0.63804731419E+02  0.19444986779E+03  0.17191154282E+03 0.  0.
        -24    2    5    5    0    0 -0.29571978436E+02 -0.20106811312E+02 -0.33689053356E+02  0.92431385710E+02  0.78293186028E+02 0.  0.
          5    1    3    3  501    0 -0.44352893274E+02 -0.76133471133E+01 -0.39639930115E+02  0.60154436708E+02  0.47000000000E+01 0. -1.
        -13    1    4    4    0    0  0.23174253807E+00  0.30116610456E+02 -0.21189884109E+02  0.36824925234E+02  0.00000000000E+00 0.  1.
         14    1    4    4    0    0  0.92172800615E+02  0.20823030290E+02  0.77695754220E+01  0.94814503457E+02  0.00000000000E+00 0. -1.
         -5    1    5    5    0  502 -0.18479671442E+02 -0.23219482321E+02  0.97493784775E+02  0.10201848208E+03  0.47000000000E+01 0.  1.
         13    1    6    6    0    0  0.93159091306E+01 -0.28529409478E+02  0.11573466882E+02  0.32166107999E+02  0.00000000000E+00 0. -1.
        -14    1    6    6    0    0 -0.38887887567E+02  0.84225981663E+01 -0.45262520238E+02  0.60265277711E+02  0.00000000000E+00 0.  1.
</event>
<event>
12    1  0.1593360E-001  0.2109377E+03  0.7818608E-02  0.1141300E+00
         21   -1    0    0  503  502  0.00000000000E+00  0.00000000000E+00  0.21375053786E+04  0.21375053786E+04  0.00000000000E+00 0.  1.
         21   -1    0    0  501  503 -0.00000000000E+00 -0.00000000000E+00 -0.43837407568E+02  0.43837407568E+02  0.00000000000E+00 0.  1.
          6    2    1    2  501    0  0.11750856027E+03  0.16051195377E+02  0.25522980224E+03  0.33111475566E+03  0.17443860483E+03 0.  0.
         24    2    3    3    0    0  0.11554843374E+03  0.13911696733E+02  0.92196255675E+02  0.16798766761E+03  0.78579457008E+02 0.  0.
         -6    2    1    2    0  502 -0.11750856027E+03 -0.16051195377E+02  0.18384381688E+04  0.18502280305E+04  0.17153122684E+03 0.  0.
        -24    2    5    5    0    0 -0.29348394625E+01 -0.42543041379E+02  0.74547289981E+03  0.75094457088E+03  0.79808398862E+02 0.  0.
          5    1    3    3  501    0  0.19601265328E+01  0.21394986443E+01  0.16303354656E+03  0.16312708805E+03  0.47000000000E+01 0. -1.
        -11    1    4    4    0    0  0.10457071477E+02  0.83487507214E+01 -0.13377195143E+02  0.18920923138E+02  0.00000000000E+00 0.  1.
         12    1    4    4    0    0  0.10509136226E+03  0.55629460115E+01  0.10557345082E+03  0.14906674447E+03  0.00000000000E+00 0. -1.
         -5    1    5    5    0  502 -0.11457372081E+03  0.26491846001E+02  0.10929652690E+04  0.10992834596E+04  0.47000000000E+01 0.  1.
         13    1    6    6    0    0  0.62706345511E+01  0.95961604900E+01  0.48548637515E+03  0.48562169186E+03  0.00000000000E+00 0. -1.
        -14    1    6    6    0    0 -0.92054740136E+01 -0.52139201869E+02  0.25998652466E+03  0.26532287902E+03  0.00000000000E+00 0.  1.
</event>
<event>
12    1  0.1593360E-001  0.2099881E+03  0.7818608E-02  0.1141592E+00
         21   -1    0    0  501  502  0.00000000000E+00  0.00000000000E+00  0.62385329189E+03  0.62385329189E+03  0.00000000000E+00 0.  1.
         21   -1    0    0  502  503 -0.00000000000E+00 -0.00000000000E+00 -0.16125682987E+03  0.16125682987E+03  0.00000000000E+00 0.  1.
         -6    2    1    2    0  503 -0.11444657715E+03  0.33423763496E+02 -0.62929786678E+02  0.21921486823E+03  0.17285784163E+03 0.  0.
        -24    2    3    3    0    0 -0.45310951042E+02 -0.28970549177E+02 -0.79670248287E+02  0.12447776828E+03  0.79088503153E+02 0.  0.
          6    2    1    2  501    0  0.11444657715E+03 -0.33423763496E+02  0.52552624871E+03  0.56589525353E+03  0.17275541352E+03 0.  0.
         24    2    5    5    0    0  0.63681991922E+02  0.12750019210E+02  0.13706969293E+03  0.17139601773E+03  0.79815631856E+02 0.  0.
          5    1    5    5  501    0  0.50764585227E+02 -0.46173782706E+02  0.38845655577E+03  0.39449923580E+03  0.47000000000E+01 0. -1.
        -13    1    6    6    0    0  0.24047957084E+02  0.42054093720E+02  0.94808894716E+02  0.10646866936E+03  0.00000000000E+00 0.  1.
         14    1    6    6    0    0  0.39634034837E+02 -0.29304074510E+02  0.42260798218E+02  0.64927348370E+02  0.00000000000E+00 0. -1.
         -5    1    3    3    0  503 -0.69135626106E+02  0.62394312673E+02  0.16740461609E+02  0.94737099945E+02  0.47000000000E+01 0.  1.
         11    1    4    4    0    0 -0.44810851814E+02 -0.27545957764E+02 -0.84894763871E+01  0.53280985715E+02  0.00000000000E+00 0. -1.
        -12    1    4    4    0    0 -0.50009922778E+00 -0.14245914135E+01 -0.71180771900E+02  0.71196782570E+02  0.00000000000E+00 0.  1.
</event>
<event>
12    1  0.1593360E-001  0.1846442E+03  0.7818608E-02  0.1163642E+00
         21   -1    0    0  501  502  0.00000000000E+00  0.00000000000E+00  0.25428211044E+03  0.25428211044E+03  0.00000000000E+00 0. -1.
         21   -1    0    0  502  503 -0.00000000000E+00 -0.00000000000E+00 -0.13328571997E+03  0.13328571997E+03  0.00000000000E+00 0. -1.
         -6    2    1    2    0  503  0.39866362754E+01 -0.63853883775E+02  0.58809000515E+02  0.19273262464E+03  0.17202951583E+03 0.  0.
        -24    2    3    3    0    0  0.49863067803E+02 -0.76667980573E+02  0.59883656990E+01  0.12145178914E+03  0.79689220012E+02 0.  0.
          6    2    1    2  501    0 -0.39866362754E+01  0.63853883775E+02  0.62187389947E+02  0.19483520577E+03  0.17320587230E+03 0.  0.
         24    2    5    5    0    0  0.47045186343E+02  0.77167444799E+02  0.72733262208E+02  0.14084628794E+03  0.79871680220E+02 0.  0.
          5    1    5    5  501    0 -0.51031822618E+02 -0.13313561024E+02 -0.10545872261E+02  0.53988917832E+02  0.47000000000E+01 0. -1.
        -11    1    6    6    0    0  0.26104189712E+02  0.37893708271E+02 -0.98276752843E+01  0.47052577491E+02  0.00000000000E+00 0.  1.
         12    1    6    6    0    0  0.20940996631E+02  0.39273736528E+02  0.82560937493E+02  0.93793710452E+02  0.00000000000E+00 0. -1.
         -5    1    3    3    0  503 -0.45876431528E+02  0.12814096798E+02  0.52820634816E+02  0.71280835495E+02  0.47000000000E+01 0.  1.
         13    1    4    4    0    0  0.40464380039E+02 -0.89088208113E+02 -0.10929695717E+02  0.98455741962E+02  0.00000000000E+00 0. -1.
        -14    1    4    4    0    0  0.93986877639E+01  0.12420227540E+02  0.16918061416E+02  0.22996047180E+02  0.00000000000E+00 0.  1.
</event>
<event>
12    1  0.1593360E-001  0.2328615E+03  0.7818608E-02  0.1124772E+00
         21   -1    0    0  503  502  0.00000000000E+00  0.00000000000E+00  0.11422278833E+03  0.11422278833E+03  0.00000000000E+00 0. -1.
         21   -1    0    0  501  503 -0.00000000000E+00 -0.00000000000E+00 -0.48068148164E+03  0.48068148164E+03  0.00000000000E+00 0. -1.
          6    2    1    2  501    0  0.48434217989E+02 -0.14991880065E+03 -0.14640013056E+03  0.27505901241E+03  0.17147286029E+03 0.  0.
         24    2    3    3    0    0  0.95177638611E+02 -0.92612568737E+02 -0.82164380657E+02  0.17699131562E+03  0.83301077877E+02 0.  0.
         -6    2    1    2    0  502 -0.48434217989E+02  0.14991880065E+03 -0.22005856275E+03  0.31984525757E+03  0.17045145200E+03 0.  0.
        -24    2    5    5    0    0 -0.57976408157E+02  0.15555957185E+02 -0.88232580213E+02  0.13131248384E+03  0.76516197599E+02 0.  0.
          5    1    3    3  501    0 -0.46743420622E+02 -0.57306231918E+02 -0.64235749904E+02  0.98067696790E+02  0.47000000000E+01 0. -1.
        -11    1    4    4    0    0  0.15545897166E+02  0.75778846018E+01 -0.37747960999E+02  0.41521173072E+02  0.00000000000E+00 0.  1.
         12    1    4    4    0    0  0.79631741445E+02 -0.10019045334E+03 -0.44416419658E+02  0.13547014254E+03  0.00000000000E+00 0. -1.
         -5    1    5    5    0  502  0.95421901685E+01  0.13436284347E+03 -0.13182598254E+03  0.18853277373E+03  0.47000000000E+01 0.  1.
         11    1    6    6    0    0 -0.18535969134E+02 -0.27038942531E+02 -0.56062923041E+02  0.64944113705E+02  0.00000000000E+00 0. -1.
        -12    1    6    6    0    0 -0.39440439023E+02  0.42594899717E+02 -0.32169657172E+02  0.66368370138E+02  0.00000000000E+00 0.  1.
</event>
<event>
12    1  0.1593360E-001  0.2458090E+03  0.7818608E-02  0.1116006E+00
         21   -1    0    0  501  502  0.00000000000E+00  0.00000000000E+00  0.50493706328E+03  0.50493706328E+03  0.00000000000E+00 0. -1.
         21   -1    0    0  502  503 -0.00000000000E+00 -0.00000000000E+00 -0.12740395119E+03  0.12740395119E+03  0.00000000000E+00 0.  1.
         -6    2    1    2    0  503 -0.16244941734E+03 -0.68287689682E+02  0.26700540547E+03  0.36282584551E+03  0.17116566790E+03 0.  0.
        -24    2    3    3    0    0 -0.82991145931E+02 -0.76306934046E+02  0.24241481996E+03  0.27913168759E+03  0.80245097001E+02 0.  0.
          6    2    1    2  501    0  0.16244941734E+03  0.68287689682E+02  0.11052770662E+03  0.26951516895E+03  0.17137394962E+03 0.  0.
         24    2    5    5    0    0  0.11079854640E+02  0.12262977657E+01  0.25895469746E+02  0.83518716525E+02  0.78616370252E+02 0.  0.
          5    1    5    5  501    0  0.15136956270E+03  0.67061391917E+02  0.84632236873E+02  0.18599645243E+03  0.47000000000E+01 0. -1.
        -11    1    6    6    0    0  0.31907335296E+02  0.11710429786E+02 -0.14439849893E+02  0.36928599708E+02  0.00000000000E+00 0.  1.
         12    1    6    6    0    0 -0.20827480656E+02 -0.10484132021E+02  0.40335319638E+02  0.46590116817E+02  0.00000000000E+00 0. -1.
         -5    1    3    3    0  503 -0.79458271410E+02  0.80192443639E+01  0.24590585509E+02  0.83694157928E+02  0.47000000000E+01 0.  1.
         11    1    4    4    0    0 -0.58130055894E+02 -0.86331149700E+02  0.14762703008E+03  0.18062643997E+03  0.00000000000E+00 0. -1.
        -12    1    4    4    0    0 -0.24861090037E+02  0.10024215654E+02  0.94787789882E+02  0.98505247617E+02  0.00000000000E+00 0.  1.
</event>
<event>
12    1  0.1593360E-001  0.1917162E+03  0.7818608E-02  0.1157571E+00
         21   -1    0    0  503  502  0.00000000000E+00  0.00000000000E+00  0.12210902316E+03  0.12210902316E+03  0.00000000000E+00 0. -1.
         21   -1    0    0  501  503 -0.00000000000E+00 -0.00000000000E+00 -0.29752026886E+03  0.29752026886E+03  0.00000000000E+00 0.  1.
          6    2    1    2  501    0 -0.63034013321E+02  0.45573192703E+02 -0.75990046798E+02  0.20622700554E+03  0.17522810240E+03 0.  0.
         24    2    3    3    0    0  0.19246066104E+02  0.61750907481E+01 -0.79122334109E+02  0.11482611314E+03  0.80722671516E+02 0.  0.
         -6    2    1    2    0  502  0.63034013321E+02 -0.45573192703E+02 -0.99421198893E+02  0.21340228648E+03  0.17206323942E+03 0.  0.
        -24    2    5    5    0    0 -0.12102206232E+02 -0.10624119963E+02 -0.10393053231E+03  0.13028000751E+03  0.76889462801E+02 0.  0.
          5    1    3    3  501    0 -0.82280079425E+02  0.39398101955E+02  0.31322873113E+01  0.91400892400E+02  0.47000000000E+01 0. -1.
        -11    1    4    4    0    0  0.48319643322E+02 -0.10154799169E+02 -0.41007978062E+02  0.64183815262E+02  0.00000000000E+00 0.  1.
         12    1    4    4    0    0 -0.29073577218E+02  0.16329889917E+02 -0.38114356047E+02  0.50642297873E+02  0.00000000000E+00 0. -1.
         -5    1    5    5    0  502  0.75136219553E+02 -0.34949072740E+02  0.45093334171E+01  0.83122278975E+02  0.47000000000E+01 0.  1.
         11    1    6    6    0    0 -0.36335663694E+01  0.91193524094E+01  0.10193369182E+02  0.14151684289E+02  0.00000000000E+00 0. -1.
        -12    1    6    6    0    0 -0.84686398623E+01 -0.19743472372E+02 -0.11412390149E+03  0.11612832322E+03  0.00000000000E+00 0.  1.
</event>
<event>
12    1  0.1593360E-001  0.2170762E+03  0.7818608E-02  0.1136549E+00
         21   -1    0    0  503  502  0.00000000000E+00  0.00000000000E+00  0.24818399321E+03  0.24818399321E+03  0.00000000000E+00 0.  1.
         21   -1    0    0  501  503 -0.00000000000E+00 -0.00000000000E+00 -0.41223964001E+03  0.41223964001E+03  0.00000000000E+00 0.  1.
          6    2    1    2  501    0  0.13093116554E+03  0.31023444102E+01 -0.32550095310E+03  0.38989328707E+03  0.17003914309E+03 0.  0.
         24    2    3    3    0    0  0.13851857450E+03  0.13605045078E+02 -0.33570622013E+03  0.37274356488E+03  0.82864987720E+02 0.  0.
         -6    2    1    2    0  502 -0.13093116554E+03 -0.31023444102E+01  0.16144530629E+03  0.27053034615E+03  0.17311697379E+03 0.  0.
        -24    2    5    5    0    0 -0.77261194886E+02 -0.31207424625E+02  0.22813157242E+02  0.11916547561E+03  0.82077858447E+02 0.  0.
          5    1    3    3  501    0 -0.75874089630E+01 -0.10502700667E+02  0.10205267032E+02  0.17149722193E+02  0.47000000000E+01 0. -1.
        -11    1    4    4    0    0  0.10894125663E+03  0.42309209278E+02 -0.20841265604E+03  0.23894372096E+03  0.00000000000E+00 0.  1.
         12    1    4    4    0    0  0.29577317868E+02 -0.28704164200E+02 -0.12729356408E+03  0.13379984392E+03  0.00000000000E+00 0. -1.
         -5    1    5    5    0  502 -0.53669970653E+02  0.28105080214E+02  0.13863214905E+03  0.15136487054E+03  0.47000000000E+01 0.  1.
         13    1    6    6    0    0  0.41272601266E+01  0.18677575784E+02  0.13161749299E+02  0.23218909490E+02  0.00000000000E+00 0. -1.
        -14    1    6    6    0    0 -0.81388455012E+02 -0.49885000408E+02  0.96514079432E+01  0.95946566121E+02  0.00000000000E+00 0.  1.
</event>
<event>
12    1  0.1593360E-001  0.2943365E+03  0.7818608E-02  0.1088435E+00
         21   -1    0    0  503  502  0.00000000000E+00  0.00000000000E+00  0.24543658781E+03  0.24543658781E+03  0.00000000000E+00 0. -1.
         21   -1    0    0  501  503 -0.00000000000E+00 -0.00000000000E+00 -0.45156398198E+03  0.45156398198E+03  0.00000000000E+00 0. -1.
          6    2    1    2  501    0  0.23889788613E+03  0.20220387263E+02 -0.26875097905E+03  0.39857380624E+03  0.17074228012E+03 0.  0.
         24    2    3    3    0    0  0.23369968249E+03  0.59082923594E+02 -0.22203834576E+03  0.33740618278E+03  0.80222015257E+02 0.  0.
         -6    2    1    2    0  502 -0.23889788613E+03 -0.20220387263E+02  0.62623584885E+02  0.29842676355E+03  0.16630019771E+03 0.  0.
        -24    2    5    5    0    0 -0.23698216776E+03 -0.52521745272E+02  0.39725063520E+02  0.25850834691E+03  0.79557546395E+02 0.  0.
          5    1    3    3  501    0  0.51982036427E+01 -0.38862536331E+02 -0.46712633288E+02  0.61167623461E+02  0.47000000000E+01 0. -1.
        -11    1    4    4    0    0  0.57769894360E+02 -0.72124070293E+00 -0.98748929933E+02  0.11440818172E+03  0.00000000000E+00 0.  1.
         12    1    4    4    0    0  0.17592978813E+03  0.59804164297E+02 -0.12328941583E+03  0.22299800105E+03  0.00000000000E+00 0. -1.
         -5    1    5    5    0  502 -0.19157183752E+01  0.32301358009E+02  0.22898521366E+02  0.39918416638E+02  0.47000000000E+01 0.  1.
         13    1    6    6    0    0 -0.13618239131E+03 -0.69628006857E+02  0.18233898606E+02  0.15403304224E+03  0.00000000000E+00 0. -1.
        -14    1    6    6    0    0 -0.10079977645E+03  0.17106261586E+02  0.21491164914E+02  0.10447530467E+03  0.00000000000E+00 0.  1.
</event>
<event>
12    1  0.1593360E-001  0.2018186E+03  0.7818608E-02  0.1148735E+00
         21   -1    0    0  501  502  0.00000000000E+00  0.00000000000E+00  0.12612916394E+03  0.12612916394E+03  0.00000000000E+00 0. -1.
         21   -1    0    0  502  503 -0.00000000000E+00 -0.00000000000E+00 -0.32437286549E+03  0.32437286549E+03  0.00000000000E+00 0.  1.
         -6    2    1    2    0  503  0.98156782360E+02  0.39876128382E+02 -0.12760413841E+03  0.23667802259E+03  0.16884552319E+03 0.  0.
        -24    2    3    3    0    0 -0.58561256894E+00  0.18427409112E+02 -0.12000073650E+02  0.83066506409E+02  0.80100751374E+02 0.  0.
          6    2    1    2  501    0 -0.98156782360E+02 -0.39876128382E+02 -0.70639563137E+02  0.21382400683E+03  0.17177281065E+03 0.  0.
         24    2    5    5    0    0 -0.74475460188E+02 -0.91293127446E+02 -0.37048929631E+02  0.14783208709E+03  0.81244529024E+02 0.  0.
          5    1    5    5  501    0 -0.23681322171E+02  0.51416999064E+02 -0.33590633506E+02  0.65991919746E+02  0.47000000000E+01 0. -1.
        -11    1    6    6    0    0 -0.44686799335E+02 -0.80734283358E+02 -0.58843061644E+02  0.10944149326E+03  0.00000000000E+00 0.  1.
         12    1    6    6    0    0 -0.29788660853E+02 -0.10558844088E+02  0.21794132012E+02  0.38390593823E+02  0.00000000000E+00 0. -1.
         -5    1    3    3    0  503  0.98742394929E+02  0.21448719270E+02 -0.11560406476E+03  0.15361151618E+03  0.47000000000E+01 0. -1.
         11    1    4    4    0    0  0.17071122875E+02 -0.24383582042E+02 -0.20287332800E+02  0.36021634910E+02  0.00000000000E+00 0. -1.
        -12    1    4    4    0    0 -0.17656735444E+02  0.42810991154E+02  0.82872591499E+01  0.47044871499E+02  0.00000000000E+00 0.  1.
</event>
<event>
12    1  0.1593360E-001  0.2375598E+03  0.7818608E-02  0.1121689E+00
         21   -1    0    0  503  502  0.00000000000E+00  0.00000000000E+00  0.16378309280E+03  0.16378309280E+03  0.00000000000E+00 0.  1.
         21   -1    0    0  501  503 -0.00000000000E+00 -0.00000000000E+00 -0.11158576080E+04  0.11158576080E+04  0.00000000000E+00 0. -1.
          6    2    1    2  501    0  0.28853214160E+02 -0.15969157677E+03 -0.10092163034E+04  0.10367990250E+04  0.17349571637E+03 0.  0.
         24    2    3    3    0    0  0.61568627468E+02 -0.81254102842E+02 -0.36702615603E+03  0.38899271836E+03  0.78830264551E+02 0.  0.
         -6    2    1    2    0  502 -0.28853214160E+02  0.15969157677E+03  0.57141788219E+02  0.24284167575E+03  0.17138549489E+03 0.  0.
        -24    2    5    5    0    0 -0.66710769963E+02  0.14306416438E+03  0.81464654113E+02  0.19464046021E+03  0.79565928143E+02 0.  0.
          5    1    3    3  501    0 -0.32715413308E+02 -0.78437473930E+02 -0.64219014738E+03  0.64780630668E+03  0.47000000000E+01 0. -1.
        -11    1    4    4    0    0  0.54741216647E+02 -0.18038151532E+02 -0.24148522787E+03  0.24826818361E+03  0.00000000000E+00 0.  1.
         12    1    4    4    0    0  0.68274108209E+01 -0.63215951310E+02 -0.12554092815E+03  0.14072453475E+03  0.00000000000E+00 0. -1.
         -5    1    5    5    0  502  0.37857555803E+02  0.16627412389E+02 -0.24322865894E+02  0.48201215539E+02  0.47000000000E+01 0.  1.
         13    1    6    6    0    0 -0.31752325353E+02  0.46595121387E+02 -0.99036402201E+01  0.57248559737E+02  0.00000000000E+00 0. -1.
        -14    1    6    6    0    0 -0.34958444610E+02  0.96469042995E+02  0.91368294333E+02  0.13739190047E+03  0.00000000000E+00 0.  1.
</event>
<event>
12    1  0.1593360E-001  0.1781444E+03  0.7818608E-02  0.1169797E+00
         21   -1    0    0  501  502  0.00000000000E+00  0.00000000000E+00  0.22623235724E+03  0.22623235724E+03  0.00000000000E+00 0.  1.
         21   -1    0    0  502  503 -0.00000000000E+00 -0.00000000000E+00 -0.22930734614E+03  0.22930734614E+03  0.00000000000E+00 0.  1.
         -6    2    1    2    0  503  0.22132412813E+01  0.43174593788E+02 -0.14393300174E+03  0.22843528056E+03  0.17203785755E+03 0.  0.
        -24    2    3    3    0    0 -0.58285880938E+02 -0.25832899165E+01 -0.99275299423E+02  0.14028581609E+03  0.80128695339E+02 0.  0.
          6    2    1    2  501    0 -0.22132412813E+01 -0.43174593788E+02  0.14085801284E+03  0.22710442282E+03  0.17281925558E+03 0.  0.
         24    2    5    5    0    0 -0.52112996572E+02 -0.65605554587E+02  0.68413277746E+02  0.13620082980E+03  0.82767362305E+02 0.  0.
          5    1    5    5  501    0  0.49899755291E+02  0.22430960799E+02  0.72444735096E+02  0.90903593018E+02  0.47000000000E+01 0. -1.
        -13    1    6    6    0    0 -0.27757203985E+02 -0.76630901677E+02  0.72588876690E+02  0.10914166246E+03  0.00000000000E+00 0.  1.
         14    1    6    6    0    0 -0.24355792587E+02  0.11025347090E+02 -0.41755989432E+01  0.27059167347E+02  0.00000000000E+00 0. -1.
         -5    1    3    3    0  503  0.60499122220E+02  0.45757883704E+02 -0.44657702315E+02  0.88149464471E+02  0.47000000000E+01 0.  1.
         13    1    4    4    0    0 -0.16337287059E+02 -0.18861391661E+02  0.61153202475E+01  0.25691558644E+02  0.00000000000E+00 0. -1.
        -14    1    4    4    0    0 -0.41948593879E+02  0.16278101744E+02 -0.10539061967E+03  0.11459425745E+03  0.00000000000E+00 0.  1.
</event>
<event>
12    1  0.1593360E-001  0.1838485E+03  0.7818608E-02  0.1164760E+00
         21   -1    0    0  501  502  0.00000000000E+00  0.00000000000E+00  0.59210427293E+03  0.59210427293E+03  0.00000000000E+00 0.  1.
         21   -1    0    0  502  503 -0.00000000000E+00 -0.00000000000E+00 -0.98188545033E+02  0.98188545033E+02  0.00000000000E+00 0.  1.
         -6    2    1    2    0  503 -0.58072783768E+02 -0.64609075725E+01  0.22457056195E+02  0.18521503155E+03  0.17431608359E+03 0.  0.
        -24    2    3    3    0    0 -0.66774338121E+02  0.32960482500E+02 -0.36629787579E+02  0.11349956494E+03  0.77428704407E+02 0.  0.
          6    2    1    2  501    0  0.58072783768E+02  0.64609075725E+01  0.47145867171E+03  0.50507778642E+03  0.17151122314E+03 0.  0.
         24    2    5    5    0    0  0.42772918627E+02 -0.55823558123E+01  0.10954056193E+03  0.14260580923E+03  0.80477306442E+02 0.  0.
          5    1    5    5  501    0  0.15299865142E+02  0.12043263385E+02  0.36191810977E+03  0.36247197719E+03  0.47000000000E+01 0. -1.
        -13    1    6    6    0    0  0.61586000845E+02  0.11199841608E+02  0.94178706002E+02  0.11308360012E+03  0.00000000000E+00 0.  1.
         14    1    6    6    0    0 -0.18813082218E+02 -0.16782197420E+02  0.15361855931E+02  0.29522209106E+02  0.00000000000E+00 0. -1.
         -5    1    3    3    0  503  0.87015543527E+01 -0.39421390073E+02  0.59086843774E+02  0.71715466607E+02  0.47000000000E+01 0.  1.
         13    1    4    4    0    0  0.73377710832E+01  0.28278713951E+02  0.29265413027E+01  0.29361423521E+02  0.00000000000E+00 0. -1.
        -14    1    4    4    0    0 -0.74112109204E+02  0.46817685494E+01 -0.39556328882E+02  0.84138141423E+02  0.00000000000E+00 0.  1.
</event>
<event>
12    1  0.1593360E-001  0.2296168E+03  0.7818608E-02  0.1127471E+00
         21   -1    0    0  501  502  0.00000000000E+00  0.00000000000E+00  0.18947865539E+03  0.18947865539E+03  0.00000000000E+00 0. -1.
         21   -1    0    0  502  503 -0.00000000000E+00 -0.00000000000E+00 -0.79406019030E+03  0.79406019030E+03  0.00000000000E+00 0.  1.
         -6    2    1    2    0  503 -0.61762381470E+02 -0.13961596982E+03 -0.69937432645E+03  0.73512474328E+03  0.16726245510E+03 0.  0.
        -24    2    3    3    0    0 -0.57620544277E+02 -0.15002957042E+03 -0.43900615658E+03  0.47447311414E+03  0.81051412080E+02 0.  0.
          6    2    1    2  501    0  0.61762381470E+02  0.13961596982E+03  0.94792791544E+02  0.24841410242E+03  0.17151292126E+03 0.  0.
         24    2    5    5    0    0 -0.18085180592E+02  0.10071637302E+03  0.93646427313E+02  0.15946346471E+03  0.78664360905E+02 0.  0.
          5    1    5    5  501    0  0.79847562062E+02  0.38899596803E+02  0.11463642313E+01  0.88950637713E+02  0.47000000000E+01 0. -1.
        -13    1    6    6    0    0  0.79675728021E+01 -0.37979842714E+01 -0.75916270831E+01  0.11642151977E+02  0.00000000000E+00 0.  1.
         14    1    6    6    0    0 -0.26052753394E+02  0.10451435729E+03  0.10123805440E+03  0.14782131273E+03  0.00000000000E+00 0. -1.
         -5    1    3    3    0  503 -0.41418371925E+01  0.10413600595E+02 -0.26036816987E+03  0.26065162914E+03  0.47000000000E+01 0.  1.
         13    1    4    4    0    0 -0.45540302175E+01  0.21814133952E+01  0.16070737382E+01  0.52990981896E+01  0.00000000000E+00 0. -1.
        -14    1    4    4    0    0 -0.53066514060E+02 -0.15221098381E+03 -0.44061323032E+03  0.46917401595E+03  0.00000000000E+00 0.  1.
</event>
<event>
12    1  0.1593360E-001  0.2005610E+03  0.7818608E-02  0.1149400E+00
         21   -1    0    0  503  502  0.00000000000E+00  0.00000000000E+00  0.82885132700E+03  0.82885132700E+03  0.00000000000E+00 0.  1.
         21   -1    0    0  501  503 -0.00000000000E+00 -0.00000000000E+00 -0.48405089980E+02  0.48405089980E+02  0.00000000000E+00 0.  1.
          6    2    1    2  501    0 -0.89661902314E+02 -0.48036456660E+02  0.40134249097E+03  0.44866523677E+03  0.17285236975E+03 0.  0.
         24    2    3    3    0    0 -0.55439772255E+02  0.22905469345E+02  0.32313273612E+03  0.33756723136E+03  0.77062582776E+02 0.  0.
         -6    2    1    2    0  502  0.89661902314E+02  0.48036456660E+02  0.37910374604E+03  0.42859118021E+03  0.17211621537E+03 0.  0.
        -24    2    5    5    0    0  0.38828366341E+02  0.70034922025E+02  0.34593251950E+03  0.36385787249E+03  0.79439983561E+02 0.  0.
          5    1    3    3  501    0 -0.34222130058E+02 -0.70941926005E+02  0.78209754853E+02  0.11109800541E+03  0.47000000000E+01 0. -1.
        -11    1    4    4    0    0 -0.51637994228E+02  0.47173643042E+02  0.19655825238E+03  0.20863120961E+03  0.00000000000E+00 0.  1.
         12    1    4    4    0    0 -0.38017780275E+01 -0.24268173697E+02  0.12657448374E+03  0.12893602175E+03  0.00000000000E+00 0. -1.
         -5    1    5    5    0  502  0.50833535973E+02 -0.21998465366E+02  0.33171226543E+02  0.64733307720E+02  0.47000000000E+01 0.  1.
         13    1    6    6    0    0  0.27960132817E+02  0.66074751472E+02  0.13739767282E+03  0.15500245903E+03  0.00000000000E+00 0. -1.
        -14    1    6    6    0    0  0.10868233524E+02  0.39601705536E+01  0.20853484668E+03  0.20885541346E+03  0.00000000000E+00 0.  1.
</event>
<event>
12    1  0.1593360E-001  0.1776096E+03  0.7818608E-02  0.1170159E+00
         21   -1    0    0  503  502  0.00000000000E+00  0.00000000000E+00  0.14571729131E+04  0.14571729131E+04  0.00000000000E+00 0.  1.
         21   -1    0    0  501  503 -0.00000000000E+00 -0.00000000000E+00 -0.25513223823E+02  0.25513223823E+02  0.00000000000E+00 0.  1.
          6    2    1    2  501    0 -0.45630074269E+02 -0.39980436064E+01  0.42672254628E+03  0.46217458766E+03  0.17150839613E+03 0.  0.
         24    2    3    3    0    0 -0.78328521428E+01  0.61578298198E+02  0.27124246686E+03  0.28918605711E+03  0.78758233961E+02 0.  0.
         -6    2    1    2    0  502  0.45630074269E+02  0.39980436064E+01  0.10049371430E+04  0.10205115493E+04  0.17160149410E+03 0.  0.
        -24    2    5    5    0    0 -0.40210016004E+02 -0.12342759186E+02  0.53310658066E+03  0.54063478124E+03  0.79461633841E+02 0.  0.
          5    1    3    3  501    0 -0.37797222126E+02 -0.65576341805E+02  0.15548007942E+03  0.17298853055E+03  0.47000000000E+01 0. -1.
        -13    1    4    4    0    0 -0.18869222228E+02  0.24852472180E+02  0.25022708193E+02  0.39997860521E+02  0.00000000000E+00 0.  1.
         14    1    4    4    0    0  0.11036370085E+02  0.36725826018E+02  0.24621975866E+03  0.24918819659E+03  0.00000000000E+00 0. -1.
         -5    1    5    5    0  502  0.85840090273E+02  0.16340802792E+02  0.47183056239E+03  0.47987676807E+03  0.47000000000E+01 0.  1.
         11    1    6    6    0    0  0.17379948976E+02 -0.16287523419E+02  0.69935620023E+02  0.73880558969E+02  0.00000000000E+00 0. -1.
        -12    1    6    6    0    0 -0.57589964980E+02  0.39447642328E+01  0.46317096063E+03  0.46675422227E+03  0.00000000000E+00 0.  1.
</event>
<event>
12    1  0.1593360E-001  0.2980833E+03  0.7818608E-02  0.1086276E+00
         21   -1    0    0  503  502  0.00000000000E+00  0.00000000000E+00  0.15297195302E+04  0.15297195302E+04  0.00000000000E+00 0.  1.
         21   -1    0    0  501  503 -0.00000000000E+00 -0.00000000000E+00 -0.63392024724E+02  0.63392024724E+02  0.00000000000E+00 0.  1.
          6    2    1    2  501    0 -0.13085666861E+02  0.24269727592E+03  0.50089058117E+03  0.58287651269E+03  0.17257013740E+03 0.  0.
         24    2    3    3    0    0  0.11028562381E+02  0.92298241245E+02  0.11277929804E+03  0.16591869255E+03  0.78544560249E+02 0.  0.
         -6    2    1    2    0  502  0.13085666861E+02 -0.24269727592E+03  0.96543692429E+03  0.10102350422E+04  0.17156101927E+03 0.  0.
        -24    2    5    5    0    0 -0.40514554571E+02 -0.22217090480E+03  0.78977530371E+03  0.82537452563E+03  0.80602339541E+02 0.  0.
          5    1    3    3  501    0 -0.24114229242E+02  0.15039903468E+03  0.38811128313E+03  0.41695782014E+03  0.47000000000E+01 0. -1.
        -13    1    4    4    0    0  0.31467303800E+02  0.87825047435E+02  0.11088586085E+03  0.14491067698E+03  0.00000000000E+00 0.  1.
         14    1    4    4    0    0 -0.20438741420E+02  0.44731938106E+01  0.18934371864E+01  0.21008015567E+02  0.00000000000E+00 0. -1.
         -5    1    5    5    0  502  0.53600221432E+02 -0.20526371116E+02  0.17566162058E+03  0.18486051659E+03  0.47000000000E+01 0.  1.
         11    1    6    6    0    0  0.10707888481E+01 -0.51998525550E+01  0.27472311818E-01  0.53090309925E+01  0.00000000000E+00 0. -1.
        -12    1    6    6    0    0 -0.41585343419E+02 -0.21697105225E+03  0.78974783140E+03  0.82006549464E+03  0.00000000000E+00 0.  1.
</event>
<event>
12    1  0.1593360E-001  0.1997767E+03  0.7818608E-02  0.1150468E+00
         21   -1    0    0  503  502  0.00000000000E+00  0.00000000000E+00  0.19148756921E+03  0.19148756921E+03  0.00000000000E+00 0. -1.
         21   -1    0    0  501  503 -0.00000000000E+00 -0.00000000000E+00 -0.20585968627E+03  0.20585968627E+03  0.00000000000E+00 0.  1.
          6    2    1    2  501    0 -0.93959695210E+02  0.21141459873E+02 -0.11050382469E+02  0.20008208157E+03  0.17502954825E+03 0.  0.
         24    2    3    3    0    0 -0.10703989458E+03 -0.21898535351E+02  0.31222558580E+02  0.13817388866E+03  0.78613551369E+02 0.  0.
         -6    2    1    2    0  502  0.93959695210E+02 -0.21141459873E+02 -0.33217345893E+01  0.19726517391E+03  0.17212533012E+03 0.  0.
        -24    2    5    5    0    0  0.10410599758E+03 -0.14364361642E+02  0.50344218665E+02  0.14202930648E+03  0.81199691681E+02 0.  0.
          5    1    3    3  501    0  0.13080199374E+02  0.43039995224E+02 -0.42272941049E+02  0.61908192911E+02  0.47000000000E+01 0. -1.
        -11    1    4    4    0    0 -0.68303173668E+01 -0.10397748604E+02 -0.21137081668E+02  0.24526366075E+02  0.00000000000E+00 0.  1.
         12    1    4    4    0    0 -0.10020957722E+03 -0.11500786747E+02  0.52359640248E+02  0.11364752258E+03  0.00000000000E+00 0. -1.
         -5    1    5    5    0  502 -0.10146302371E+02 -0.67770982302E+01 -0.53665953255E+02  0.55235867432E+02  0.47000000000E+01 0.  1.
         11    1    6    6    0    0  0.32146062386E+02  0.30246607638E+02  0.12447177782E+01  0.44156267085E+02  0.00000000000E+00 0. -1.
        -12    1    6    6    0    0  0.71959935195E+02 -0.44610969281E+02  0.49099500887E+02  0.97873039397E+02  0.00000000000E+00 0.  1.
</event>
<event>
12    1  0.1593360E-001  0.2416770E+03  0.7818608E-02  0.1118828E+00
         21   -1    0    0  501  502  0.00000000000E+00  0.00000000000E+00  0.23859316507E+03  0.23859316507E+03  0.00000000000E+00 0. -1.
         21   -1    0    0  502  503 -0.00000000000E+00 -0.00000000000E+00 -0.25916577777E+03  0.25916577777E+03  0.00000000000E+00 0.  1.
         -6    2    1    2    0  503  0.10857523265E+02  0.16771487121E+03 -0.70709441893E+02  0.25180866940E+03  0.17367100211E+03 0.  0.
        -24    2    3    3    0    0 -0.27888913233E+02  0.80745533602E+02  0.21036052587E+02  0.11950493633E+03  0.80878190021E+02 0.  0.
          6    2    1    2  501    0 -0.10857523265E+02 -0.16771487121E+03  0.50136829196E+02  0.24595027344E+03  0.17242874333E+03 0.  0.
         24    2    5    5    0    0  0.29289640811E+02 -0.74345226966E+02 -0.30208412382E+02  0.11630794588E+03  0.78929679246E+02 0.  0.
          5    1    5    5  501    0 -0.40147164077E+02 -0.93369644245E+02  0.80345241577E+02  0.12964232756E+03  0.47000000000E+01 0. -1.
        -11    1    6    6    0    0 -0.26385924351E+01  0.14461104839E+02  0.50824506831E+01  0.15553682141E+02  0.00000000000E+00 0.  1.
         12    1    6    6    0    0  0.31928233246E+02 -0.88806331804E+02 -0.35290863065E+02  0.10075426374E+03  0.00000000000E+00 0. -1.
         -5    1    3    3    0  503  0.38746436498E+02  0.86969337608E+02 -0.91745494480E+02  0.13230373306E+03  0.47000000000E+01 0.  1.
         11    1    4    4    0    0  0.25208337359E+02  0.50693516811E+02  0.92795465694E+01  0.57370749547E+02  0.00000000000E+00 0. -1.
        -12    1    4    4    0    0 -0.53097250591E+02  0.30052016791E+02  0.11756506018E+02  0.62134186784E+02  0.00000000000E+00 0.  1.
</event>
<event>
12    1  0.1593360E-001  0.1899006E+03  0.7818608E-02  0.1158827E+00
         21   -1    0    0  501  502  0.00000000000E+00  0.00000000000E+00  0.67043191679E+03  0.67043191679E+03  0.00000000000E+00 0. -1.
         21   -1    0    0  502  503 -0.00000000000E+00 -0.00000000000E+00 -0.67389591209E+03  0.67389591209E+03  0.00000000000E+00 0. -1.
         -6    2    1    2    0  503  0.77743090104E+02  0.70625318139E+01 -0.64669172569E+03  0.67399736258E+03  0.17311380440E+03 0.  0.
        -24    2    3    3    0    0  0.82894607836E+02  0.17043010828E+02 -0.65073200417E+03  0.66116919254E+03  0.80812002158E+02 0.  0.
          6    2    1    2  501    0 -0.77743090104E+02 -0.70625318139E+01  0.64322773039E+03  0.67033046630E+03  0.17177646372E+03 0.  0.
         24    2    5    5    0    0 -0.73029254694E+02  0.48533812019E+02  0.53993275710E+03  0.55283529534E+03  0.80066713617E+02 0.  0.
          5    1    5    5  501    0 -0.47138354105E+01 -0.55596343833E+02  0.10329497329E+03  0.11749517096E+03  0.47000000000E+01 0. -1.
        -13    1    6    6    0    0 -0.61382579616E+02  0.51281130820E+02  0.53307698159E+03  0.53904419463E+03  0.00000000000E+00 0.  1.
         14    1    6    6    0    0 -0.11646675078E+02 -0.27473188007E+01  0.68557755105E+01  0.13791100711E+02  0.00000000000E+00 0. -1.
         -5    1    3    3    0  503 -0.51515177320E+01 -0.99804790142E+01  0.40402784779E+01  0.12828170036E+02  0.47000000000E+01 0.  1.
         11    1    4    4    0    0  0.52567517638E+02  0.25673264265E+02 -0.17759041758E+03  0.18697811858E+03  0.00000000000E+00 0. -1.
        -12    1    4    4    0    0  0.30327090198E+02 -0.86302534369E+01 -0.47314158659E+03  0.47419107397E+03  0.00000000000E+00 0.  1.
</event>
<event>
12    1  0.1593360E-001  0.1789868E+03  0.7818608E-02  0.1168834E+00
         21   -1    0    0  503  502  0.00000000000E+00  0.00000000000E+00  0.71941872819E+03  0.71941872819E+03  0.00000000000E+00 0.  1.
         21   -1    0    0  501  503 -0.00000000000E+00 -0.00000000000E+00 -0.50625670087E+02  0.50625670087E+02  0.00000000000E+00 0.  1.
          6    2    1    2  501    0 -0.24527744538E+02  0.43042439974E+02  0.20044129942E+03  0.26872474675E+03  0.17199422407E+03 0.  0.
         24    2    3    3    0    0 -0.79841736883E+02  0.45936003374E+01  0.11878329281E+03  0.16276215400E+03  0.77370821458E+02 0.  0.
         -6    2    1    2    0  502  0.24527744538E+02 -0.43042439974E+02  0.46835175868E+03  0.50131965152E+03  0.17179569625E+03 0.  0.
        -24    2    5    5    0    0  0.38595183266E+02 -0.25807609432E+02  0.46952141715E+03  0.47855146501E+03  0.80034508941E+02 0.  0.
          5    1    3    3  501    0  0.55313992345E+02  0.38448839637E+02  0.81658006609E+02  0.10596259275E+03  0.47000000000E+01 0. -1.
        -13    1    4    4    0    0 -0.50831556628E+02  0.37698967585E+02  0.90530984345E+02  0.11045776764E+03  0.00000000000E+00 0.  1.
         14    1    4    4    0    0 -0.29010180255E+02 -0.33105367248E+02  0.28252308463E+02  0.52304386361E+02  0.00000000000E+00 0. -1.
         -5    1    5    5    0  502 -0.14067438728E+02 -0.17234830541E+02 -0.11696584687E+01  0.22768186513E+02  0.47000000000E+01 0.  1.
         11    1    6    6    0    0  0.30899363336E+01 -0.51980480570E+01 -0.10970397775E+01  0.61458039688E+01  0.00000000000E+00 0. -1.
        -12    1    6    6    0    0  0.35505246932E+02 -0.20609561375E+02  0.47061845693E+03  0.47240566104E+03  0.00000000000E+00 0.  1.
</event>
<event>
12    1  0.1593360E-001  0.2380858E+03  0.7818608E-02  0.1121125E+00
         21   -1    0    0  503  502  0.00000000000E+00  0.00000000000E+00  0.33610833024E+02  0.33610833024E+02  0.00000000000E+00 0. -1.
         21   -1    0    0  501  503 -0.00000000000E+00 -0.00000000000E+00 -0.17219731800E+04  0.17219731800E+04  0.00000000000E+00 0. -1.
          6    2    1    2  501    0 -0.87483872468E+02  0.13866355699E+03 -0.71498312980E+03  0.75358191742E+03  0.17263783013E+03 0.  0.
         24    2    3    3    0    0 -0.93325299147E+02  0.11465563147E+03 -0.70726194839E+03  0.72727204483E+03  0.82762541420E+02 0.  0.
         -6    2    1    2    0  502  0.87483872468E+02 -0.13866355699E+03 -0.97337921723E+03  0.10020020956E+04  0.17222104743E+03 0.  0.
        -24    2    5    5    0    0  0.11104702203E+03 -0.55505147452E+02 -0.69083367259E+03  0.70649470507E+03  0.80444655555E+02 0.  0.
          5    1    3    3  501    0  0.58414266794E+01  0.24007925525E+02 -0.77211814101E+01  0.26309872596E+02  0.47000000000E+01 0. -1.
        -11    1    4    4    0    0 -0.45367290805E+02  0.51381522161E+01 -0.27571787858E+03  0.27947261092E+03  0.00000000000E+00 0.  1.
         12    1    4    4    0    0 -0.47958008342E+02  0.10951747925E+03 -0.43154406980E+03  0.44779943391E+03  0.00000000000E+00 0. -1.
         -5    1    5    5    0  502 -0.23563149566E+02 -0.83158409541E+02 -0.28254554463E+03  0.29550739058E+03  0.47000000000E+01 0.  1.
         11    1    6    6    0    0  0.62296909666E+02 -0.56475154034E+02 -0.26857344538E+03  0.28142857627E+03  0.00000000000E+00 0. -1.
        -12    1    6    6    0    0  0.48750112367E+02  0.97000658193E+00 -0.42226022721E+03  0.42506612880E+03  0.00000000000E+00 0.  1.
</event>
<event>
12    1  0.1593360E-001  0.1993419E+03  0.7818608E-02  0.1150674E+00
         21   -1    0    0  503  502  0.00000000000E+00  0.00000000000E+00  0.35467131263E+03  0.35467131263E+03  0.00000000000E+00 0. -1.
         21   -1    0    0  501  503 -0.00000000000E+00 -0.00000000000E+00 -0.15882232434E+03  0.15882232434E+03  0.00000000000E+00 0. -1.
          6    2    1    2  501    0 -0.99241868324E+02 -0.17885470168E+01 -0.42590398252E+02  0.20384096483E+03  0.17287292902E+03 0.  0.
         24    2    3    3    0    0 -0.22201450963E+01 -0.23794340476E+02 -0.60291433947E+02  0.10268323458E+03  0.79609609806E+02 0.  0.
         -6    2    1    2    0  502  0.99241868324E+02  0.17885470168E+01  0.23843938654E+03  0.30965267214E+03  0.17081946313E+03 0.  0.
        -24    2    5    5    0    0  0.13437878806E+03 -0.16400495128E+02  0.16983956800E+03  0.23032128185E+03  0.76653630670E+02 0.  0.
          5    1    3    3  501    0 -0.97021723228E+02  0.22005793459E+02  0.17701035695E+02  0.10115773025E+03  0.47000000000E+01 0. -1.
        -11    1    4    4    0    0  0.10225034134E+02  0.26992534920E+02 -0.32499535220E+02  0.43466861561E+02  0.00000000000E+00 0.  1.
         12    1    4    4    0    0 -0.12445179231E+02 -0.50786875396E+02 -0.27791898727E+02  0.59216373018E+02  0.00000000000E+00 0. -1.
         -5    1    5    5    0  502 -0.35136919733E+02  0.18189042145E+02  0.68599818537E+02  0.79331390293E+02  0.47000000000E+01 0.  1.
         13    1    6    6    0    0  0.92358465498E+02  0.21909551133E+02  0.12967594500E+03  0.16070459014E+03  0.00000000000E+00 0. -1.
        -14    1    6    6    0    0  0.42020322559E+02 -0.38310046261E+02  0.40163623001E+02  0.69616691713E+02  0.00000000000E+00 0.  1.
</event>
<event>
12    1  0.1593360E-001  0.2201203E+03  0.7818608E-02  0.1133925E+00
         21   -1    0    0  501  502  0.00000000000E+00  0.00000000000E+00  0.53569856157E+03  0.53569856157E+03  0.00000000000E+00 0. -1.
         21   -1    0    0  502  503 -0.00000000000E+00 -0.00000000000E+00 -0.10592512440E+03  0.10592512440E+03  0.00000000000E+00 0. -1.
         -6    2    1    2    0  503 -0.11211237821E+03  0.76808409419E+02  0.90819796467E+02  0.23746711874E+03  0.17226050025E+03 0.  0.
        -24    2    3    3    0    0 -0.33693714376E+02  0.82687988841E+02  0.10298614413E+03  0.15775409404E+03  0.79420642257E+02 0.  0.
          6    2    1    2  501    0  0.11211237821E+03 -0.76808409419E+02  0.33895364070E+03  0.40415656724E+03  0.17315958880E+03 0.  0.
         24    2    5    5    0    0  0.37800011548E+02 -0.87786472170E+02  0.29031119071E+03  0.31454058852E+03  0.74295954165E+02 0.  0.
          5    1    5    5  501    0  0.74312366661E+02  0.10978062752E+02  0.48642449991E+02  0.89615978718E+02  0.47000000000E+01 0. -1.
        -13    1    6    6    0    0  0.10421322463E+02 -0.10950945474E+02  0.24105238440E+01  0.15308095697E+02  0.00000000000E+00 0.  1.
         14    1    6    6    0    0  0.27378689085E+02 -0.76835526697E+02  0.28790066687E+03  0.29923249282E+03  0.00000000000E+00 0. -1.
         -5    1    3    3    0  503 -0.78418663834E+02 -0.58795794222E+01 -0.12166347662E+02  0.79713024701E+02  0.47000000000E+01 0.  1.
         13    1    4    4    0    0  0.99007091035E+01  0.69346738565E+02  0.42228532586E+02  0.81793906587E+02  0.00000000000E+00 0. -1.
        -14    1    4    4    0    0 -0.43594423479E+02  0.13341250276E+02  0.60757611543E+02  0.75960187452E+02  0.00000000000E+00 0.  1.
</event>
<event>
12    1  0.1593360E-001  0.1838318E+03  0.7818608E-02  0.1167142E+00
         21   -1    0    0  501  502  0.00000000000E+00  0.00000000000E+00  0.58618364745E+03  0.58618364745E+03  0.00000000000E+00 0. -1.
         21   -1    0    0  502  503 -0.00000000000E+00 -0.00000000000E+00 -0.78831610214E+02  0.78831610214E+02  0.00000000000E+00 0. -1.
         -6    2    1    2    0  503  0.61976183455E+01  0.15277454805E+02  0.44669703679E+03  0.48304491166E+03  0.18309105087E+03 0.  0.
        -24    2    3    3    0    0 -0.26509405718E+02 -0.58359992502E+02  0.28228179218E+03  0.29988736819E+03  0.78363167951E+02 0.  0.
          6    2    1    2  501    0 -0.61976183455E+01 -0.15277454805E+02  0.60655000445E+02  0.18197034600E+03  0.17076992313E+03 0.  0.
         24    2    5    5    0    0  0.46139043170E+02 -0.32859699670E+02  0.78061227759E+02  0.12388998596E+03  0.77759900813E+02 0.  0.
          5    1    5    5  501    0 -0.52336661516E+02  0.17582244866E+02 -0.17406227313E+02  0.58080360040E+02  0.47000000000E+01 0. -1.
        -11    1    6    6    0    0  0.36649743981E+02 -0.15783467319E+01  0.83079603826E+02  0.90818035016E+02  0.00000000000E+00 0.  1.
         12    1    6    6    0    0  0.94892991887E+01 -0.31281352938E+02 -0.50183760674E+01  0.33071950942E+02  0.00000000000E+00 0. -1.
         -5    1    3    3    0  503  0.32707024064E+02  0.73637447306E+02  0.16441524461E+03  0.18315754347E+03  0.47000000000E+01 0.  1.
         11    1    4    4    0    0  0.25441459846E+02 -0.30138345259E+02  0.14802883997E+03  0.15319309775E+03  0.00000000000E+00 0. -1.
        -12    1    4    4    0    0 -0.51950865564E+02 -0.28221647243E+02  0.13425295221E+03  0.14669427045E+03  0.00000000000E+00 0.  1.
</event>
<event>
12    1  0.1593360E-001  0.1766093E+03  0.7818608E-02  0.1171222E+00
         21   -1    0    0  503  502  0.00000000000E+00  0.00000000000E+00  0.13193846563E+04  0.13193846563E+04  0.00000000000E+00 0.  1.
         21   -1    0    0  501  503 -0.00000000000E+00 -0.00000000000E+00 -0.46275910157E+02  0.46275910157E+02  0.00000000000E+00 0.  1.
          6    2    1    2  501    0 -0.21677459066E+02 -0.30752079662E+02  0.15880209002E+03  0.23750565316E+03  0.17255500239E+03 0.  0.
         24    2    3    3    0    0 -0.49208955798E+02 -0.36663861091E+02  0.24173676873E+02  0.99883590611E+02  0.75010699096E+02 0.  0.
         -6    2    1    2    0  502  0.21677459066E+02  0.30752079662E+02  0.11143066561E+04  0.11281549133E+04  0.17215859518E+03 0.  0.
        -24    2    5    5    0    0 -0.27030543892E+02 -0.89364477893E+01  0.31863062328E+03  0.32998820891E+03  0.80970571969E+02 0.  0.
          5    1    3    3  501    0  0.27531496732E+02  0.59117814297E+01  0.13462841315E+03  0.13762206255E+03  0.47000000000E+01 0. -1.
        -11    1    4    4    0    0 -0.17835320966E+02 -0.56726091300E+02  0.11649304597E+02  0.60594177986E+02  0.00000000000E+00 0.  1.
         12    1    4    4    0    0 -0.31373634832E+02  0.20062230209E+02  0.12524372277E+02  0.39289412626E+02  0.00000000000E+00 0. -1.
         -5    1    5    5    0  502  0.48708002959E+02  0.39688527451E+02  0.79567603284E+03  0.79816670439E+03  0.47000000000E+01 0.  1.
         11    1    6    6    0    0  0.22430811551E+02  0.46252875358E+01  0.35477355974E+02  0.42227684978E+02  0.00000000000E+00 0. -1.
        -12    1    6    6    0    0 -0.49461355444E+02 -0.13561735325E+02  0.28315326731E+03  0.28776052393E+03  0.00000000000E+00 0.  1.
</event>
<event>
12    1  0.1593360E-001  0.3572423E+03  0.7818608E-02  0.1059752E+00
         21   -1    0    0  503  502  0.00000000000E+00  0.00000000000E+00  0.48905595926E+03  0.48905595926E+03  0.00000000000E+00 0.  1.
         21   -1    0    0  501  503 -0.00000000000E+00 -0.00000000000E+00 -0.26056198877E+03  0.26056198877E+03  0.00000000000E+00 0.  1.
          6    2    1    2  501    0  0.30963130446E+03  0.40187894605E+02  0.10611028561E+03  0.37199406297E+03  0.17214406350E+03 0.  0.
         24    2    3    3    0    0  0.30844176595E+03  0.34389449189E+02  0.13065673415E+03  0.34631031116E+03  0.80874546312E+02 0.  0.
         -6    2    1    2    0  502 -0.30963130446E+03 -0.40187894605E+02  0.12238368488E+03  0.37762388506E+03  0.17359556639E+03 0.  0.
        -24    2    5    5    0    0 -0.23622451358E+03 -0.86017835981E+02  0.71191885407E+02  0.27696788272E+03  0.91879456840E+02 0.  0.
          5    1    3    3  501    0  0.11895385127E+01  0.57984454166E+01 -0.24546448538E+02  0.25683751808E+02  0.47000000000E+01 0.  1.
        -11    1    4    4    0    0  0.16504483427E+03  0.27805042612E+02  0.27675082202E+02  0.16964323709E+03  0.00000000000E+00 0.  1.
         12    1    4    4    0    0  0.14339693168E+03  0.65844065763E+01  0.10298165195E+03  0.17666707408E+03  0.00000000000E+00 0. -1.
         -5    1    5    5    0  502 -0.73406790883E+02  0.45829941375E+02  0.51191799476E+02  0.10065600234E+03  0.47000000000E+01 0.  1.
         13    1    6    6    0    0 -0.33897646169E+02 -0.11272944270E+02  0.48285057964E+02  0.60063104406E+02  0.00000000000E+00 0. -1.
        -14    1    6    6    0    0 -0.20232686741E+03 -0.74744891711E+02  0.22906827443E+02  0.21690477832E+03  0.00000000000E+00 0.  1.
</event>
<event>
12    1  0.1593360E-001  0.1832189E+03  0.7818608E-02  0.1165067E+00
         21   -1    0    0  503  502  0.00000000000E+00  0.00000000000E+00  0.23793875559E+03  0.23793875559E+03  0.00000000000E+00 0.  1.
         21   -1    0    0  501  503 -0.00000000000E+00 -0.00000000000E+00 -0.17264889156E+03  0.17264889156E+03  0.00000000000E+00 0.  1.
          6    2    1    2  501    0  0.58031704464E+02  0.20234541477E+02  0.12206152743E+03  0.22015488111E+03  0.17260370739E+03 0.  0.
         24    2    3    3    0    0  0.60630773559E+02  0.61384876341E+02  0.13267891434E+03  0.17731886677E+03  0.79963069319E+02 0.  0.
         -6    2    1    2    0  502 -0.58031704464E+02 -0.20234541477E+02 -0.56771663403E+02  0.19043276604E+03  0.17106870323E+03 0.  0.
        -24    2    5    5    0    0 -0.86066120835E+02  0.29152347465E+02 -0.19856652972E+02  0.12253724855E+03  0.79773768226E+02 0.  0.
          5    1    3    3  501    0 -0.25990690950E+01 -0.41150334864E+02 -0.10617386912E+02  0.42836014339E+02  0.47000000000E+01 0. -1.
        -11    1    4    4    0    0  0.13799594539E+02  0.55162637311E+02  0.29995581557E+02  0.64289036993E+02  0.00000000000E+00 0.  1.
         12    1    4    4    0    0  0.46831179020E+02  0.62222390295E+01  0.10268333279E+03  0.11302982977E+03  0.00000000000E+00 0. -1.
         -5    1    5    5    0  502  0.28034416371E+02 -0.49386888941E+02 -0.36915010432E+02  0.67895517494E+02  0.47000000000E+01 0.  1.
         13    1    6    6    0    0 -0.10519317978E+02 -0.10247574771E+02  0.22902232546E+02  0.27206269406E+02  0.00000000000E+00 0. -1.
        -14    1    6    6    0    0 -0.75546802857E+02  0.39399922236E+02 -0.42758885518E+02  0.95330979145E+02  0.00000000000E+00 0.  1.
</event>
<event>
12    1  0.1593360E-001  0.2245616E+03  0.7818608E-02  0.1130561E+00
         21   -1    0    0  501  502  0.00000000000E+00  0.00000000000E+00  0.37443125939E+02  0.37443125939E+02  0.00000000000E+00 0. -1.
         21   -1    0    0  502  503 -0.00000000000E+00 -0.00000000000E+00 -0.16026646842E+04  0.16026646842E+04  0.00000000000E+00 0. -1.
         -6    2    1    2    0  503 -0.11871503763E+03 -0.82498383684E+02 -0.11112583802E+04  0.11337209014E+04  0.17183902691E+03 0.  0.
        -24    2    3    3    0    0 -0.11194578554E+03  0.18074206756E+01 -0.68490971521E+03  0.69903875824E+03  0.83777931785E+02 0.  0.
          6    2    1    2  501    0  0.11871503763E+03  0.82498383684E+02 -0.45396317804E+03  0.50638690875E+03  0.17159805029E+03 0.  0.
         24    2    5    5    0    0  0.68812273099E+02  0.11589895959E+03 -0.37850909420E+03  0.40984006444E+03  0.80821075595E+02 0.  0.
          5    1    5    5  501    0  0.49902764534E+02 -0.33400575903E+02 -0.75454083835E+02  0.96546844310E+02  0.47000000000E+01 0. -1.
        -11    1    6    6    0    0 -0.64231464602E+01 -0.64298652673E+01 -0.67948986606E+01  0.11347714555E+02  0.00000000000E+00 0.  1.
         12    1    6    6    0    0  0.75235419559E+02  0.12232882485E+03 -0.37171419554E+03  0.39849234988E+03  0.00000000000E+00 0. -1.
         -5    1    3    3    0  503 -0.67692520897E+01 -0.84305804360E+02 -0.42634866498E+03  0.43468214312E+03  0.47000000000E+01 0.  1.
         13    1    4    4    0    0 -0.66304389944E+02 -0.54613968158E+01 -0.58712506848E+03  0.59088234448E+03  0.00000000000E+00 0. -1.
        -14    1    4    4    0    0 -0.45641395600E+02  0.72688174914E+01 -0.97784646731E+02  0.10815641375E+03  0.00000000000E+00 0.  1.
</event>
<event>
12    1  0.1593360E-001  0.1871474E+03  0.7818608E-02  0.1161124E+00
         21   -1    0    0  503  502  0.00000000000E+00  0.00000000000E+00  0.15266425778E+03  0.15266425778E+03  0.00000000000E+00 0. -1.
         21   -1    0    0  501  503 -0.00000000000E+00 -0.00000000000E+00 -0.24204965247E+03  0.24204965247E+03  0.00000000000E+00 0. -1.
          6    2    1    2  501    0  0.65616612822E+02 -0.29944851418E+02 -0.90415467716E+02  0.20784398093E+03  0.17269027073E+03 0.  0.
         24    2    3    3    0    0  0.21808848612E+02 -0.78808100285E+02 -0.86191882014E+02  0.14191473119E+03  0.77617059057E+02 0.  0.
         -6    2    1    2    0  502 -0.65616612822E+02  0.29944851418E+02  0.10300730314E+01  0.18686992931E+03  0.17238641311E+03 0.  0.
        -24    2    5    5    0    0 -0.99702336338E+02 -0.13626300960E+02  0.17354830012E+02  0.12900051116E+03  0.78827088015E+02 0.  0.
          5    1    3    3  501    0  0.43807764211E+02  0.48863248867E+02 -0.42235857020E+01  0.65929249739E+02  0.47000000000E+01 0. -1.
        -11    1    4    4    0    0  0.28643971387E+02 -0.86171498644E+02 -0.48582857301E+02  0.10298688411E+03  0.00000000000E+00 0.  1.
         12    1    4    4    0    0 -0.68351227753E+01  0.73633983587E+01 -0.37609024713E+02  0.38927847084E+02  0.00000000000E+00 0. -1.
         -5    1    5    5    0  502  0.34085723516E+02  0.43571152379E+02 -0.16324756980E+02  0.57869418155E+02  0.47000000000E+01 0.  1.
         11    1    6    6    0    0 -0.90093268322E+02  0.11439373256E+02  0.34499066829E+02  0.97148555674E+02  0.00000000000E+00 0. -1.
        -12    1    6    6    0    0 -0.96090680163E+01 -0.25065674217E+02 -0.17144236817E+02  0.31851955484E+02  0.00000000000E+00 0.  1.
</event>
<event>
12    1  0.1593360E-001  0.1922689E+03  0.7818608E-02  0.1156769E+00
         21   -1    0    0  503  502  0.00000000000E+00  0.00000000000E+00  0.78385690225E+03  0.78385690225E+03  0.00000000000E+00 0.  1.
         21   -1    0    0  501  503 -0.00000000000E+00 -0.00000000000E+00 -0.72028321856E+02  0.72028321856E+02  0.00000000000E+00 0.  1.
          6    2    1    2  501    0  0.83182048589E+02 -0.27241259319E+01  0.10168067693E+03  0.21616043883E+03  0.17163828590E+03 0.  0.
         24    2    3    3    0    0  0.43680944730E+02 -0.58064265848E+02  0.22382224676E+02  0.11159848197E+03  0.81693165543E+02 0.  0.
         -6    2    1    2    0  502 -0.83182048589E+02  0.27241259319E+01  0.61014790347E+03  0.63972478528E+03  0.17332242418E+03 0.  0.
        -24    2    5    5    0    0 -0.42736668644E+02 -0.16236738336E+02  0.17120374494E+03  0.19848855894E+03  0.89425562500E+02 0.  0.
          5    1    3    3  501    0  0.39501103859E+02  0.55340139916E+02  0.79298452255E+02  0.10456195686E+03  0.47000000000E+01 0. -1.
        -13    1    4    4    0    0  0.40169690701E+02  0.16499246245E+00 -0.14356696216E+02  0.42658480983E+02  0.00000000000E+00 0.  1.
         14    1    4    4    0    0  0.35112540288E+01 -0.58229258311E+02  0.36738920892E+02  0.68940000991E+02  0.00000000000E+00 0. -1.
         -5    1    5    5    0  502 -0.40445379945E+02  0.18960864268E+02  0.43894415852E+03  0.44123622634E+03  0.47000000000E+01 0.  1.
         11    1    6    6    0    0 -0.60562475575E+01 -0.49639900162E+02  0.73318068676E+02  0.88748729664E+02  0.00000000000E+00 0. -1.
        -12    1    6    6    0    0 -0.36680421086E+02  0.33403161826E+02  0.97885676268E+02  0.10973982928E+03  0.00000000000E+00 0.  1.
</event>
<event>
12    1  0.1593360E-001  0.3092333E+03  0.7818608E-02  0.1080722E+00
         21   -1    0    0  503  502  0.00000000000E+00  0.00000000000E+00  0.68957863962E+03  0.68957863962E+03  0.00000000000E+00 0.  1.
         21   -1    0    0  501  503 -0.00000000000E+00 -0.00000000000E+00 -0.29627019401E+03  0.29627019401E+03  0.00000000000E+00 0. -1.
          6    2    1    2  501    0 -0.24414403151E+03  0.79669736295E+02 -0.16288002095E+03  0.34950698974E+03  0.17225463609E+03 0.  0.
         24    2    3    3    0    0 -0.17391166684E+03 -0.12911029081E+02 -0.11159362213E+03  0.22240007464E+03  0.81220035474E+02 0.  0.
         -6    2    1    2    0  502  0.24414403151E+03 -0.79669736295E+02  0.55618846656E+03  0.63634184389E+03  0.17213877237E+03 0.  0.
        -24    2    5    5    0    0  0.10541171920E+03 -0.66777757408E+02  0.16785652408E+03  0.22374440674E+03  0.79466014377E+02 0.  0.
          5    1    3    3  501    0 -0.70232364660E+02  0.92580765376E+02 -0.51286398822E+02  0.12710691511E+03  0.47000000000E+01 0. -1.
        -11    1    4    4    0    0 -0.89598901382E+02  0.28511812507E+02 -0.32143983468E+02  0.99368618057E+02  0.00000000000E+00 0.  1.
         12    1    4    4    0    0 -0.84312765463E+02 -0.41422841589E+02 -0.79449638658E+02  0.12303145658E+03  0.00000000000E+00 0. -1.
         -5    1    5    5    0  502  0.13873231231E+03 -0.12891978888E+02  0.38833194248E+03  0.41259743716E+03  0.47000000000E+01 0.  1.
         11    1    6    6    0    0 -0.56582312635E+01 -0.30531405266E+02  0.37704647356E+02  0.48844884284E+02  0.00000000000E+00 0. -1.
        -12    1    6    6    0    0  0.11106995046E+03 -0.36246352142E+02  0.13015187672E+03  0.17489952245E+03  0.00000000000E+00 0.  1.
</event>
<event>
12    1  0.1593360E-001  0.1873890E+03  0.7818608E-02  0.1160876E+00
         21   -1    0    0  503  502  0.00000000000E+00  0.00000000000E+00  0.32845968990E+03  0.32845968990E+03  0.00000000000E+00 0. -1.
         21   -1    0    0  501  503 -0.00000000000E+00 -0.00000000000E+00 -0.25315036429E+03  0.25315036429E+03  0.00000000000E+00 0. -1.
          6    2    1    2  501    0 -0.66589715355E+02 -0.33083917932E+02 -0.18344054995E+03  0.26223097980E+03  0.17200556847E+03 0.  0.
         24    2    3    3    0    0 -0.80681909435E+02 -0.19745170821E+02 -0.20343369853E+03  0.23397627934E+03  0.80375290441E+02 0.  0.
         -6    2    1    2    0  502  0.66589715355E+02  0.33083917932E+02  0.25874987557E+03  0.31937907439E+03  0.17182188230E+03 0.  0.
        -24    2    5    5    0    0  0.92105896053E+02  0.19707407466E+02  0.26269749383E+03  0.28992266253E+03  0.78570344187E+02 0.  0.
          5    1    3    3  501    0  0.14092194081E+02 -0.13338747111E+02  0.19993148578E+02  0.28254700468E+02  0.47000000000E+01 0. -1.
        -13    1    4    4    0    0 -0.60839531205E+02  0.12527221214E+02 -0.62803731477E+02  0.88332828077E+02  0.00000000000E+00 0.  1.
         14    1    4    4    0    0 -0.19842378230E+02 -0.32272392034E+02 -0.14062996705E+03  0.14564345126E+03  0.00000000000E+00 0. -1.
         -5    1    5    5    0  502 -0.25516180699E+02  0.13376510466E+02 -0.39476182671E+01  0.29456411860E+02  0.47000000000E+01 0.  1.
         13    1    6    6    0    0  0.16044930217E+02 -0.22275922597E+02  0.11796217402E+03  0.12111453675E+03  0.00000000000E+00 0. -1.
        -14    1    6    6    0    0  0.76060965837E+02  0.41983330063E+02  0.14473531981E+03  0.16880812578E+03  0.00000000000E+00 0.  1.
</event>
<event>
12    1  0.1593360E-001  0.2372259E+03  0.7818608E-02  0.1121754E+00
         21   -1    0    0  503  502  0.00000000000E+00  0.00000000000E+00  0.14667538032E+03  0.14667538032E+03  0.00000000000E+00 0.  1.
         21   -1    0    0  501  503 -0.00000000000E+00 -0.00000000000E+00 -0.47011590444E+03  0.47011590444E+03  0.00000000000E+00 0. -1.
          6    2    1    2  501    0  0.82997053504E+02  0.14077627131E+03 -0.29451980879E+03  0.37780901986E+03  0.17114692012E+03 0.  0.
         24    2    3    3    0    0  0.15520332510E+02  0.14354091407E+03 -0.23588509235E+03  0.28824970377E+03  0.81248016593E+02 0.  0.
         -6    2    1    2    0  502 -0.82997053504E+02 -0.14077627131E+03 -0.28920715333E+02  0.23898226489E+03  0.17195826733E+03 0.  0.
        -24    2    5    5    0    0 -0.86208134946E+02 -0.67385451763E+02 -0.73296734761E+02  0.15302969345E+03  0.77929674130E+02 0.  0.
          5    1    3    3  501    0  0.67476720994E+02 -0.27646427640E+01 -0.58634716442E+02  0.89559316087E+02  0.47000000000E+01 0. -1.
        -13    1    4    4    0    0 -0.21629771444E+02  0.51594334901E+02 -0.13800160477E+03  0.14891025931E+03  0.00000000000E+00 0.  1.
         14    1    4    4    0    0  0.37150103954E+02  0.91946579172E+02 -0.97883487575E+02  0.13933944447E+03  0.00000000000E+00 0. -1.
         -5    1    5    5    0  502  0.32110814420E+01 -0.73390819546E+02  0.44376019428E+02  0.85952571444E+02  0.47000000000E+01 0.  1.
         13    1    6    6    0    0 -0.68045734071E+02 -0.43504509039E+02 -0.88147401555E+02  0.11955261868E+03  0.00000000000E+00 0. -1.
        -14    1    6    6    0    0 -0.18162400875E+02 -0.23880942724E+02  0.14850666793E+02  0.33477074770E+02  0.00000000000E+00 0.  1.
</event>
<event>
12    1  0.1593360E-001  0.1910445E+03  0.7818608E-02  0.1157813E+00
         21   -1    0    0  501  502  0.00000000000E+00  0.00000000000E+00  0.38077540682E+03  0.38077540682E+03  0.00000000000E+00 0.  1.
         21   -1    0    0  502  503 -0.00000000000E+00 -0.00000000000E+00 -0.14071724461E+03  0.14071724461E+03  0.00000000000E+00 0.  1.
         -6    2    1    2    0  503 -0.60098183710E+02  0.22805323386E+02 -0.27985402085E+02  0.19308337321E+03  0.17990589712E+03 0.  0.
        -24    2    3    3    0    0  0.14923366573E+02 -0.30858570891E+02  0.19326608607E+02  0.89311686744E+02  0.80175440887E+02 0.  0.
          6    2    1    2  501    0  0.60098183710E+02 -0.22805323386E+02  0.26804356430E+03  0.32840927822E+03  0.17853130595E+03 0.  0.
         24    2    5    5    0    0  0.51325930293E+02 -0.83040866543E+02  0.21634747887E+03  0.24841022612E+03  0.73288963633E+02 0.  0.
          5    1    5    5  501    0  0.87722534170E+01  0.60235543157E+02  0.51696085430E+02  0.79999052108E+02  0.47000000000E+01 0. -1.
        -11    1    6    6    0    0  0.25792312514E+02  0.58567566385E+01  0.74655101211E+02  0.79201825231E+02  0.00000000000E+00 0.  1.
         12    1    6    6    0    0  0.25533617778E+02 -0.88897623182E+02  0.14169237766E+03  0.16920840088E+03  0.00000000000E+00 0. -1.
         -5    1    3    3    0  503 -0.75021550283E+02  0.53663894277E+02 -0.47312010693E+02  0.10377168646E+03  0.47000000000E+01 0.  1.
         11    1    4    4    0    0 -0.18711362819E+02 -0.46214779452E+02  0.70645259882E+01  0.50357010096E+02  0.00000000000E+00 0. -1.
        -12    1    4    4    0    0  0.33634729392E+02  0.15356208561E+02  0.12262082619E+02  0.38954676648E+02  0.00000000000E+00 0.  1.
</event>
<event>
12    1  0.1593360E-001  0.2250642E+03  0.7818608E-02  0.1130277E+00
         21   -1    0    0  501  502  0.00000000000E+00  0.00000000000E+00  0.28623481192E+03  0.28623481192E+03  0.00000000000E+00 0.  1.
         21   -1    0    0  502  503 -0.00000000000E+00 -0.00000000000E+00 -0.24389946964E+03  0.24389946964E+03  0.00000000000E+00 0. -1.
         -6    2    1    2    0  503  0.71409161648E+02 -0.12752795238E+03  0.16051878264E+03  0.27592725242E+03  0.17031418627E+03 0.  0.
        -24    2    3    3    0    0  0.13677142957E+01 -0.12466564406E+03  0.11434033901E+03  0.19185266761E+03  0.90500494429E+02 0.  0.
          6    2    1    2  501    0 -0.71409161648E+02  0.12752795238E+03 -0.11818344036E+03  0.25420702914E+03  0.17114684071E+03 0.  0.
         24    2    5    5    0    0 -0.11028960413E+03  0.10046659656E+03 -0.11893521649E+03  0.20659756629E+03  0.79244147227E+02 0.  0.
          5    1    5    5  501    0  0.38880442480E+02  0.27061355812E+02  0.75177613188E+00  0.47609462854E+02  0.47000000000E+01 0. -1.
        -13    1    6    6    0    0 -0.78384961147E+01 -0.86481107212E+01 -0.30717752245E+02  0.32860495178E+02  0.00000000000E+00 0.  1.
         14    1    6    6    0    0 -0.10245110801E+03  0.10911470729E+03 -0.88217464247E+02  0.17373707111E+03  0.00000000000E+00 0. -1.
         -5    1    3    3    0  503  0.70041447352E+02 -0.28623083188E+01  0.46178443627E+02  0.84074584816E+02  0.47000000000E+01 0.  1.
         11    1    4    4    0    0 -0.33869977881E+02 -0.13424366280E+02  0.36577107714E+02  0.51626290012E+02  0.00000000000E+00 0. -1.
        -12    1    4    4    0    0  0.35237692177E+02 -0.11124127778E+03  0.77763231301E+02  0.14022637760E+03  0.00000000000E+00 0.  1.
</event>
<event>
12    1  0.1593360E-001  0.1881935E+03  0.7818608E-02  0.1161812E+00
         21   -1    0    0  503  502  0.00000000000E+00  0.00000000000E+00  0.13856172977E+04  0.13856172977E+04  0.00000000000E+00 0. -1.
         21   -1    0    0  501  503 -0.00000000000E+00 -0.00000000000E+00 -0.25230129421E+02  0.25230129421E+02  0.00000000000E+00 0. -1.
          6    2    1    2  501    0  0.75841155863E+02 -0.50685732261E+01  0.55324399762E+03  0.58205499935E+03  0.16410828746E+03 0.  0.
         24    2    3    3    0    0  0.29124129907E+02  0.23656238978E+02  0.14585014026E+03  0.17095958419E+03  0.80914049638E+02 0.  0.
         -6    2    1    2    0  502 -0.75841155863E+02  0.50685732261E+01  0.80714317070E+03  0.82879242781E+03  0.17216044559E+03 0.  0.
        -24    2    5    5    0    0 -0.89391311560E+02  0.26984812658E+02  0.78430172320E+03  0.79403973015E+03  0.81553132088E+02 0.  0.
          5    1    3    3  501    0  0.46717025956E+02 -0.28724812204E+02  0.40739385736E+03  0.41109541516E+03  0.47000000000E+01 0. -1.
        -13    1    4    4    0    0 -0.19809917672E+02  0.33146479746E+02  0.74640877955E+02  0.84037983195E+02  0.00000000000E+00 0.  1.
         14    1    4    4    0    0  0.48934047579E+02 -0.94902407674E+01  0.71209262301E+02  0.86921600996E+02  0.00000000000E+00 0. -1.
         -5    1    5    5    0  502  0.13550155697E+02 -0.21916239432E+02  0.22841447502E+02  0.34752697654E+02  0.47000000000E+01 0.  1.
         11    1    6    6    0    0 -0.61370355394E+02 -0.23869881604E+02  0.42938124289E+03  0.43440113204E+03  0.00000000000E+00 0. -1.
        -12    1    6    6    0    0 -0.28020956166E+02  0.50854694262E+02  0.35492048031E+03  0.35963859811E+03  0.00000000000E+00 0.  1.
</event>
<event>
12    1  0.1593360E-001  0.2007049E+03  0.7818608E-02  0.1149604E+00
         21   -1    0    0  503  502  0.00000000000E+00  0.00000000000E+00  0.69821754991E+03  0.69821754991E+03  0.00000000000E+00 0.  1.
         21   -1    0    0  501  503 -0.00000000000E+00 -0.00000000000E+00 -0.10838715879E+04  0.10838715879E+04  0.00000000000E+00 0. -1.
          6    2    1    2  501    0  0.98022875662E+02  0.60135260288E+01 -0.10601501139E+04  0.10789813376E+04  0.17503661391E+03 0.  0.
         24    2    3    3    0    0  0.22931481092E+01  0.37832944958E+02 -0.67618907660E+03  0.68196140821E+03  0.80019402157E+02 0.  0.
         -6    2    1    2    0  502 -0.98022875662E+02 -0.60135260288E+01  0.67449607597E+03  0.70310780017E+03  0.17254267739E+03 0.  0.
        -24    2    5    5    0    0 -0.11130871232E+03  0.45500743951E+02  0.47188469559E+03  0.49357571450E+03  0.80510079355E+02 0.  0.
          5    1    3    3  501    0  0.95729727553E+02 -0.31819418930E+02 -0.38396103731E+03  0.39701992939E+03  0.47000000000E+01 0. -1.
        -11    1    4    4    0    0  0.11112541260E+02  0.49646476819E+02 -0.23133576452E+03  0.23686387901E+03  0.00000000000E+00 0.  1.
         12    1    4    4    0    0 -0.88193931506E+01 -0.11813531861E+02 -0.44485331208E+03  0.44509752920E+03  0.00000000000E+00 0. -1.
         -5    1    5    5    0  502  0.13285836654E+02 -0.51514269980E+02  0.20261138037E+03  0.20953208567E+03  0.47000000000E+01 0.  1.
         13    1    6    6    0    0 -0.21052808047E+02  0.44037018897E+02  0.23631689641E+03  0.24130510830E+03  0.00000000000E+00 0. -1.
        -14    1    6    6    0    0 -0.90255904270E+02  0.14637250543E+01  0.23556779918E+03  0.25227060621E+03  0.00000000000E+00 0.  1.
</event>
<event>
12    1  0.1593360E-001  0.2072287E+03  0.7818608E-02  0.1143841E+00
         21   -1    0    0  503  502  0.00000000000E+00  0.00000000000E+00  0.29664482561E+03  0.29664482561E+03  0.00000000000E+00 0.  1.
         21   -1    0    0  501  503 -0.00000000000E+00 -0.00000000000E+00 -0.15634863514E+03  0.15634863514E+03  0.00000000000E+00 0.  1.
          6    2    1    2  501    0  0.87412782757E+02 -0.71911549275E+02  0.13241210551E+03  0.24592013178E+03  0.17358421594E+03 0.  0.
         24    2    3    3    0    0  0.91364110734E+02 -0.71834573415E+02  0.16309486069E+03  0.21462891283E+03  0.77188276130E+02 0.  0.
         -6    2    1    2    0  502 -0.87412782757E+02  0.71911549275E+02  0.78840849694E+01  0.20707332897E+03  0.17321933861E+03 0.  0.
        -24    2    5    5    0    0 -0.39206708849E+02 -0.18218865355E+02  0.42101726878E+02  0.99183319142E+02  0.78712656647E+02 0.  0.
          5    1    3    3  501    0 -0.39513279774E+01 -0.76975860004E-01 -0.30682755179E+02  0.31291218951E+02  0.47000000000E+01 0. -1.
        -13    1    4    4    0    0  0.39783761992E+02 -0.24665481153E+01  0.99872646308E+02  0.10753314400E+03  0.00000000000E+00 0.  1.
         14    1    4    4    0    0  0.51580348742E+02 -0.69368025300E+02  0.63222214379E+02  0.10709576883E+03  0.00000000000E+00 0. -1.
         -5    1    5    5    0  502 -0.48206073908E+02  0.90130414630E+02 -0.34217641909E+02  0.10789000983E+03  0.47000000000E+01 0.  1.
         13    1    6    6    0    0 -0.38531379900E+02  0.12116834153E+02  0.53268361653E+02  0.66850604037E+02  0.00000000000E+00 0. -1.
        -14    1    6    6    0    0 -0.67532894918E+00 -0.30335699509E+02 -0.11166634775E+02  0.32332715105E+02  0.00000000000E+00 0.  1.
</event>
<event>
12    1  0.1593360E-001  0.2130237E+03  0.7818608E-02  0.1141193E+00
         21   -1    0    0  501  502  0.00000000000E+00  0.00000000000E+00  0.17995228001E+03  0.17995228001E+03  0.00000000000E+00 0.  1.
         21   -1    0    0  502  503 -0.00000000000E+00 -0.00000000000E+00 -0.34738053199E+03  0.34738053199E+03  0.00000000000E+00 0. -1.
         -6    2    1    2    0  503  0.25439194784E+02  0.12270169380E+03 -0.22857782016E+03  0.30570619753E+03  0.15970473082E+03 0.  0.
        -24    2    3    3    0    0  0.33050154887E+02  0.69335046092E+02 -0.54069463163E+02  0.12300101845E+03  0.79410845217E+02 0.  0.
          6    2    1    2  501    0 -0.25439194784E+02 -0.12270169380E+03  0.61149568181E+02  0.22162661447E+03  0.17226789677E+03 0.  0.
         24    2    5    5    0    0 -0.45893640258E+02 -0.13310129556E+03  0.89423414283E+02  0.18491099885E+03  0.79833259854E+02 0.  0.
          5    1    5    5  501    0  0.20454445474E+02  0.10399601762E+02 -0.28273846102E+02  0.36715615613E+02  0.47000000000E+01 0. -1.
        -11    1    6    6    0    0  0.10084467862E+02 -0.53189776551E+02  0.24284639828E+01  0.54191754528E+02  0.00000000000E+00 0.  1.
         12    1    6    6    0    0 -0.55978108121E+02 -0.79911519011E+02  0.86994950300E+02  0.13071924433E+03  0.00000000000E+00 0. -1.
         -5    1    3    3    0  503 -0.76109601026E+01  0.53366647707E+02 -0.17450835700E+03  0.18270517908E+03  0.47000000000E+01 0.  1.
         11    1    4    4    0    0  0.46085570739E+02  0.63980243935E+02 -0.67303868822E+02  0.10366852079E+03  0.00000000000E+00 0. -1.
        -12    1    4    4    0    0 -0.13035415853E+02  0.53548021571E+01  0.13234405659E+02  0.19332497659E+02  0.00000000000E+00 0.  1.
</event>
<event>
12    1  0.1593360E-001  0.1963401E+03  0.7818608E-02  0.1153025E+00
         21   -1    0    0  501  502  0.00000000000E+00  0.00000000000E+00  0.74560864729E+03  0.74560864729E+03  0.00000000000E+00 0.  1.
         21   -1    0    0  502  503 -0.00000000000E+00 -0.00000000000E+00 -0.53255760145E+02  0.53255760145E+02  0.00000000000E+00 0.  1.
         -6    2    1    2    0  503 -0.14811074300E+02 -0.92014243208E+02  0.27441638630E+03  0.33742227233E+03  0.17281043927E+03 0.  0.
        -24    2    3    3    0    0 -0.56948631701E+02 -0.11085916206E+03  0.18593761198E+03  0.23751587507E+03  0.79423516000E+02 0.  0.
          6    2    1    2  501    0  0.14811074300E+02  0.92014243208E+02  0.41793650085E+03  0.46144213511E+03  0.17196492792E+03 0.  0.
         24    2    5    5    0    0  0.12431076833E+02  0.10804717167E+03  0.42294520368E+03  0.44383826374E+03  0.79252987728E+02 0.  0.
          5    1    5    5  501    0  0.23799974677E+01 -0.16032928464E+02 -0.50087028314E+01  0.17603871368E+02  0.47000000000E+01 0. -1.
        -11    1    6    6    0    0  0.34540489093E+02  0.17438624372E+02  0.87601641269E+02  0.95766374891E+02  0.00000000000E+00 0.  1.
         12    1    6    6    0    0 -0.22109412260E+02  0.90608547300E+02  0.33534356241E+03  0.34807188885E+03  0.00000000000E+00 0. -1.
         -5    1    3    3    0  503  0.42137557401E+02  0.18844918850E+02  0.88478774314E+02  0.99906397264E+02  0.47000000000E+01 0.  1.
         13    1    4    4    0    0 -0.64770192457E+01 -0.36328642221E+02  0.12106102314E+03  0.12656023604E+03  0.00000000000E+00 0. -1.
        -14    1    4    4    0    0 -0.50471612456E+02 -0.74530519837E+02  0.64876588845E+02  0.11095563902E+03  0.00000000000E+00 0.  1.
</event>
<event>
12    1  0.1593360E-001  0.2162080E+03  0.7818608E-02  0.1137211E+00
         21   -1    0    0  501  502  0.00000000000E+00  0.00000000000E+00  0.11928058473E+04  0.11928058473E+04  0.00000000000E+00 0.  1.
         21   -1    0    0  502  503 -0.00000000000E+00 -0.00000000000E+00 -0.56934469938E+02  0.56934469938E+02  0.00000000000E+00 0. -1.
         -6    2    1    2    0  503 -0.30515902616E+02 -0.12327486173E+03  0.21697185640E+03  0.30630490192E+03  0.17497998351E+03 0.  0.
        -24    2    3    3    0    0 -0.60330570268E+02 -0.66491957598E+02  0.52668698758E+02  0.12986559163E+03  0.77653859694E+02 0.  0.
          6    2    1    2  501    0  0.30515902616E+02  0.12327486173E+03  0.91889952096E+03  0.94343541531E+03  0.17194807760E+03 0.  0.
         24    2    5    5    0    0  0.51900077959E+02  0.14022261329E+03  0.59630680098E+03  0.61965669114E+03  0.77695653759E+02 0.  0.
          5    1    5    5  501    0 -0.21384175343E+02 -0.16947751563E+02  0.32259271998E+03  0.32377872417E+03  0.47000000000E+01 0. -1.
        -13    1    6    6    0    0  0.19047154246E+02 -0.23660256345E+00  0.13458258382E+03  0.13592395644E+03  0.00000000000E+00 0.  1.
         14    1    6    6    0    0  0.32852923714E+02  0.14045921585E+03  0.46172421716E+03  0.48373273471E+03  0.00000000000E+00 0. -1.
         -5    1    3    3    0  503  0.29814667652E+02 -0.56782904127E+02  0.16430315764E+03  0.17643931030E+03  0.47000000000E+01 0.  1.
         11    1    4    4    0    0 -0.40274715649E+02 -0.48933086672E+02 -0.77306839299E+01  0.63845619786E+02  0.00000000000E+00 0. -1.
        -12    1    4    4    0    0 -0.20055854619E+02 -0.17558870926E+02  0.60399382687E+02  0.66019971840E+02  0.00000000000E+00 0.  1.
</event>
<event>
12    1  0.1593360E-001  0.1762383E+03  0.7818608E-02  0.1173033E+00
         21   -1    0    0  501  502  0.00000000000E+00  0.00000000000E+00  0.24143709248E+03  0.24143709248E+03  0.00000000000E+00 0.  1.
         21   -1    0    0  502  503 -0.00000000000E+00 -0.00000000000E+00 -0.22790659500E+03  0.22790659500E+03  0.00000000000E+00 0.  1.
         -6    2    1    2    0  503 -0.42115574504E+01  0.35482790966E+02 -0.15154763408E+03  0.22786754716E+03  0.16637357958E+03 0.  0.
        -24    2    3    3    0    0  0.38743220750E+02 -0.85062372983E+01 -0.35884212824E+02  0.96794038798E+02  0.80672275224E+02 0.  0.
          6    2    1    2  501    0  0.42115574504E+01 -0.35482790966E+02  0.16507813156E+03  0.24147614031E+03  0.17257801468E+03 0.  0.
         24    2    5    5    0    0 -0.39807573646E+02 -0.53485696015E+02  0.16341735139E+03  0.19365735025E+03  0.79703048705E+02 0.  0.
          5    1    5    5  501    0  0.44019131097E+02  0.18002905049E+02  0.16607801689E+01  0.47818790067E+02  0.47000000000E+01 0. -1.
        -13    1    6    6    0    0 -0.84467408692E+01 -0.66193258704E+02  0.83621089392E+02  0.10698308988E+03  0.00000000000E+00 0.  1.
         14    1    6    6    0    0 -0.31360832777E+02  0.12707562689E+02  0.79796261994E+02  0.86674260367E+02  0.00000000000E+00 0. -1.
         -5    1    3    3    0  503 -0.42954778200E+02  0.43989028265E+02 -0.11566342126E+03  0.13107350836E+03  0.47000000000E+01 0.  1.
         11    1    4    4    0    0 -0.20209077361E+02 -0.93340133480E+01  0.76136725951E+01  0.23526551455E+02  0.00000000000E+00 0. -1.
        -12    1    4    4    0    0  0.58952298111E+02  0.82777604971E+00 -0.43497885419E+02  0.73267487344E+02  0.00000000000E+00 0.  1.
</event>
<event>
12    1  0.1593360E-001  0.1758406E+03  0.7818608E-02  0.1172507E+00
         21   -1    0    0  503  502  0.00000000000E+00  0.00000000000E+00  0.84545193100E+03  0.84545193100E+03  0.00000000000E+00 0.  1.
         21   -1    0    0  501  503 -0.00000000000E+00 -0.00000000000E+00 -0.39188533491E+02  0.39188533491E+02  0.00000000000E+00 0.  1.
          6    2    1    2  501    0 -0.34557382042E+02  0.10328100043E+02  0.52542569583E+03  0.55329513882E+03  0.16959500728E+03 0.  0.
         24    2    3    3    0    0 -0.31219368548E+02 -0.63120047330E+01  0.12680153479E+03  0.15428217262E+03  0.81913791204E+02 0.  0.
         -6    2    1    2    0  502  0.34557382042E+02 -0.10328100043E+02  0.28083770168E+03  0.33134532568E+03  0.17210179505E+03 0.  0.
        -24    2    5    5    0    0  0.83381206160E+02 -0.82007592427E+01  0.13845317382E+03  0.18073412040E+03  0.80472746588E+02 0.  0.
          5    1    3    3  501    0 -0.33380134946E+01  0.16640104776E+02  0.39862416105E+03  0.39901296620E+03  0.47000000000E+01 0. -1.
        -13    1    4    4    0    0  0.24747272318E+02 -0.17545439525E+02  0.36623913372E+02  0.47556082324E+02  0.00000000000E+00 0.  1.
         14    1    4    4    0    0 -0.55966640866E+02  0.11233434792E+02  0.90177621413E+02  0.10672609030E+03  0.00000000000E+00 0. -1.
         -5    1    5    5    0  502 -0.48823824117E+02 -0.21273408001E+01  0.14238452786E+03  0.15061120528E+03  0.47000000000E+01 0.  1.
         11    1    6    6    0    0  0.82874779234E+02  0.21450664777E+02  0.11219308380E+03  0.14112281214E+03  0.00000000000E+00 0. -1.
        -12    1    6    6    0    0  0.50642692614E+00 -0.29651424020E+02  0.26260090019E+02  0.39611308264E+02  0.00000000000E+00 0.  1.
</event>
<event>
12    1  0.1593360E-001  0.2304236E+03  0.7818608E-02  0.1126661E+00
         21   -1    0    0  503  502  0.00000000000E+00  0.00000000000E+00  0.24257398757E+03  0.24257398757E+03  0.00000000000E+00 0.  1.
         21   -1    0    0  501  503 -0.00000000000E+00 -0.00000000000E+00 -0.21905355772E+03  0.21905355772E+03  0.00000000000E+00 0.  1.
          6    2    1    2  501    0 -0.48948260218E+02  0.14500500524E+03  0.33137354696E+02  0.23100336398E+03  0.16982957979E+03 0.  0.
         24    2    3    3    0    0 -0.18642745600E+02  0.11493515339E+03  0.84322745411E+02  0.16418529435E+03  0.79302232246E+02 0.  0.
         -6    2    1    2    0  502  0.48948260218E+02 -0.14500500524E+03 -0.96169248453E+01  0.23062418130E+03  0.17225749340E+03 0.  0.
        -24    2    5    5    0    0  0.89645740330E+01 -0.13705317248E+03  0.33622122886E+02  0.17101183313E+03  0.96180373521E+02 0.  0.
          5    1    3    3  501    0 -0.30305514618E+02  0.30069851852E+02 -0.51185390715E+02  0.66818069632E+02  0.47000000000E+01 0. -1.
        -11    1    4    4    0    0 -0.32402930205E+02  0.88393914941E+02  0.24458365889E+02  0.97270991290E+02  0.00000000000E+00 0.  1.
         12    1    4    4    0    0  0.13760184605E+02  0.26541238452E+02  0.59864379522E+02  0.66914303064E+02  0.00000000000E+00 0. -1.
         -5    1    5    5    0  502  0.39983686185E+02 -0.79518327658E+01 -0.43239047731E+02  0.59612348167E+02  0.47000000000E+01 0.  1.
         13    1    6    6    0    0  0.43766536057E+02 -0.26446995568E+02  0.16918719708E+02  0.53862754567E+02  0.00000000000E+00 0. -1.
        -14    1    6    6    0    0 -0.34801962024E+02 -0.11060617691E+03  0.16703403178E+02  0.11714907857E+03  0.00000000000E+00 0.  1.
</event>
<event>
12    1  0.1593360E-001  0.1866586E+03  0.7818608E-02  0.1162111E+00
         21   -1    0    0  503  502  0.00000000000E+00  0.00000000000E+00  0.10622360356E+03  0.10622360356E+03  0.00000000000E+00 0. -1.
         21   -1    0    0  501  503 -0.00000000000E+00 -0.00000000000E+00 -0.32357241944E+03  0.32357241944E+03  0.00000000000E+00 0.  1.
          6    2    1    2  501    0  0.40544971902E+02 -0.60091865075E+02 -0.11164154486E+03  0.21528389957E+03  0.16919927861E+03 0.  0.
         24    2    3    3    0    0 -0.38972379632E+02 -0.43827736806E+02 -0.28718867003E+02  0.99155558644E+02  0.74614573645E+02 0.  0.
         -6    2    1    2    0  502 -0.40544971902E+02  0.60091865075E+02 -0.10570727102E+03  0.21451212343E+03  0.17200725845E+03 0.  0.
        -24    2    5    5    0    0 -0.25045377839E+02 -0.24044303190E+02 -0.10059651767E+02  0.86099938283E+02  0.78144758696E+02 0.  0.
          5    1    3    3  501    0  0.79517351534E+02 -0.16264128269E+02 -0.82922677857E+02  0.11612834093E+03  0.47000000000E+01 0. -1.
        -11    1    4    4    0    0 -0.30593648359E+02 -0.61737538338E+02 -0.61888230861E+01  0.69179451365E+02  0.00000000000E+00 0.  1.
         12    1    4    4    0    0 -0.83787312729E+01  0.17909801532E+02 -0.22530043917E+02  0.29976107279E+02  0.00000000000E+00 0. -1.
         -5    1    5    5    0  502 -0.15499594063E+02  0.84136168265E+02 -0.95647619251E+02  0.12841218515E+03  0.47000000000E+01 0.  1.
         11    1    6    6    0    0  0.27654284487E+02 -0.34485425567E+01  0.30047595936E+01  0.28029992445E+02  0.00000000000E+00 0. -1.
        -12    1    6    6    0    0 -0.52699662326E+02 -0.20595760634E+02 -0.13064411360E+02  0.58069945837E+02  0.00000000000E+00 0.  1.
</event>
<event>
12    1  0.1593360E-001  0.2078696E+03  0.7818608E-02  0.1143595E+00
         21   -1    0    0  503  502  0.00000000000E+00  0.00000000000E+00  0.56503320654E+02  0.56503320654E+02  0.00000000000E+00 0.  1.
         21   -1    0    0  501  503 -0.00000000000E+00 -0.00000000000E+00 -0.91651511364E+03  0.91651511364E+03  0.00000000000E+00 0.  1.
          6    2    1    2  501    0 -0.10636969988E+03 -0.45448468571E+02 -0.63047236460E+03  0.66334421943E+03  0.17073392919E+03 0.  0.
         24    2    3    3    0    0 -0.27250316947E+01 -0.19178120738E+02 -0.40727278774E+03  0.41581141447E+03  0.81564591944E+02 0.  0.
         -6    2    1    2    0  502  0.10636969988E+03  0.45448468571E+02 -0.22953942838E+03  0.30967421486E+03  0.17271274944E+03 0.  0.
        -24    2    5    5    0    0  0.12928211671E+03  0.74102584354E+02 -0.17180107119E+03  0.24110421350E+03  0.80066066433E+02 0.  0.
          5    1    3    3  501    0 -0.10364466819E+03 -0.26270347833E+02 -0.22319957686E+03  0.24753280496E+03  0.47000000000E+01 0. -1.
        -13    1    4    4    0    0 -0.31747640412E+02 -0.37760709664E+02 -0.24589542895E+03  0.25079542628E+03  0.00000000000E+00 0.  1.
         14    1    4    4    0    0  0.29022608717E+02  0.18582588927E+02 -0.16137735879E+03  0.16501598819E+03  0.00000000000E+00 0. -1.
         -5    1    5    5    0  502 -0.22912416830E+02 -0.28654115783E+02 -0.57738357186E+02  0.68570001362E+02  0.47000000000E+01 0.  1.
         11    1    6    6    0    0 -0.62535261539E+01 -0.82438700732E+01 -0.77348459279E+01  0.12918816690E+02  0.00000000000E+00 0. -1.
        -12    1    6    6    0    0  0.13553564287E+03  0.82346454427E+02 -0.16406622527E+03  0.22818539681E+03  0.00000000000E+00 0.  1.
</event>
<event>
12    1  0.1593360E-001  0.2351338E+03  0.7818608E-02  0.1123112E+00
         21   -1    0    0  503  502  0.00000000000E+00  0.00000000000E+00  0.91388341558E+03  0.91388341558E+03  0.00000000000E+00 0. -1.
         21   -1    0    0  501  503 -0.00000000000E+00 -0.00000000000E+00 -0.66743765054E+02  0.66743765054E+02  0.00000000000E+00 0.  1.
          6    2    1    2  501    0 -0.21499179797E+01 -0.16068373746E+03  0.27279126126E+03  0.36001138394E+03  0.17137455679E+03 0.  0.
         24    2    3    3    0    0  0.29116631782E+02 -0.29401831523E+02  0.16146691933E+03  0.18500356964E+03  0.80265240288E+02 0.  0.
         -6    2    1    2    0  502  0.21499179797E+01  0.16068373746E+03  0.57434838927E+03  0.62061579670E+03  0.17165083521E+03 0.  0.
        -24    2    5    5    0    0 -0.52364872865E+02  0.15393732017E+03  0.40256564768E+03  0.44020300094E+03  0.72669133000E+02 0.  0.
          5    1    3    3  501    0 -0.31266549762E+02 -0.13128190593E+03  0.11132434194E+03  0.17500781430E+03  0.47000000000E+01 0. -1.
        -11    1    4    4    0    0  0.52444754163E+02 -0.57884322147E+00  0.82436319197E+02  0.97706366330E+02  0.00000000000E+00 0.  1.
         12    1    4    4    0    0 -0.23328122381E+02 -0.28822988301E+02  0.79030600128E+02  0.87297203306E+02  0.00000000000E+00 0. -1.
         -5    1    5    5    0  502  0.54514790845E+02  0.67464172840E+01  0.17178274159E+03  0.18041279576E+03  0.47000000000E+01 0.  1.
         11    1    6    6    0    0 -0.58694158722E+01  0.50002173606E+02  0.21472107658E+03  0.22054434505E+03  0.00000000000E+00 0. -1.
        -12    1    6    6    0    0 -0.46495456993E+02  0.10393514657E+03  0.18784457110E+03  0.21965865588E+03  0.00000000000E+00 0.  1.
</event>
<event>
12    1  0.1593360E-001  0.2122298E+03  0.7818608E-02  0.1139875E+00
         21   -1    0    0  501  502  0.00000000000E+00  0.00000000000E+00  0.16912710229E+03  0.16912710229E+03  0.00000000000E+00 0.  1.
         21   -1    0    0  502  503 -0.00000000000E+00 -0.00000000000E+00 -0.63923842434E+03  0.63923842434E+03  0.00000000000E+00 0.  1.
         -6    2    1    2    0  503 -0.33992220666E+02  0.11948220744E+03 -0.54400789865E+03  0.58394012091E+03  0.17207557078E+03 0.  0.
        -24    2    3    3    0    0  0.26704481911E+02  0.24995113781E+02 -0.33725338750E+03  0.34860755102E+03  0.80308730417E+02 0.  0.
          6    2    1    2  501    0  0.33992220666E+02 -0.11948220744E+03  0.73896576602E+02  0.22442540571E+03  0.17168165229E+03 0.  0.
         24    2    5    5    0    0  0.23926939506E+02 -0.14628928575E+03  0.90701809453E+02  0.19089280690E+03  0.78994885448E+02 0.  0.
          5    1    5    5  501    0  0.10065281160E+02  0.26807078308E+02 -0.16805232851E+02  0.33532598817E+02  0.47000000000E+01 0. -1.
        -13    1    6    6    0    0  0.24891264355E+02 -0.62433624070E+01  0.34637550630E+01  0.25895022967E+02  0.00000000000E+00 0.  1.
         14    1    6    6    0    0 -0.96432484917E+00 -0.14004592334E+03  0.87238054390E+02  0.16499778393E+03  0.00000000000E+00 0. -1.
         -5    1    3    3    0  503 -0.60696702577E+02  0.94487093661E+02 -0.20675451115E+03  0.23533256990E+03  0.47000000000E+01 0.  1.
         13    1    4    4    0    0  0.43046132307E+02 -0.11511345540E+01 -0.93831656788E+02  0.10324085641E+03  0.00000000000E+00 0. -1.
        -14    1    4    4    0    0 -0.16341650396E+02  0.26146248335E+02 -0.24342173071E+03  0.24536669460E+03  0.00000000000E+00 0.  1.
</event>
<event>
12    1  0.1593360E-001  0.1895855E+03  0.7818608E-02  0.1159470E+00
         21   -1    0    0  503  502  0.00000000000E+00  0.00000000000E+00  0.26187245770E+03  0.26187245770E+03  0.00000000000E+00 0.  1.
         21   -1    0    0  501  503 -0.00000000000E+00 -0.00000000000E+00 -0.15741755759E+03  0.15741755759E+03  0.00000000000E+00 0. -1.
          6    2    1    2  501    0  0.64847897131E+02 -0.39095976301E+02  0.13123931150E+03  0.23057848405E+03  0.17380717849E+03 0.  0.
         24    2    3    3    0    0  0.35966393842E+02 -0.98226286193E+02  0.86682522427E+02  0.15096735271E+03  0.65842973081E+02 0.  0.
         -6    2    1    2    0  502 -0.64847897131E+02  0.39095976301E+02 -0.26784411393E+02  0.18871153124E+03  0.17076560603E+03 0.  0.
        -24    2    5    5    0    0  0.17978898572E+02 -0.10264301331E+02 -0.47871115861E+02  0.89901338446E+02  0.73225748510E+02 0.  0.
          5    1    3    3  501    0  0.28881503289E+02  0.59130309892E+02  0.44556789076E+02  0.79611131338E+02  0.47000000000E+01 0. -1.
        -11    1    4    4    0    0  0.38432262172E+02 -0.16482329104E+02  0.29794093864E+02  0.51345827265E+02  0.00000000000E+00 0.  1.
         12    1    4    4    0    0 -0.24658683300E+01 -0.81743957089E+02  0.56888428563E+02  0.99621525443E+02  0.00000000000E+00 0. -1.
         -5    1    5    5    0  502 -0.82826795703E+02  0.49360277632E+02  0.21086704468E+02  0.98810192792E+02  0.47000000000E+01 0.  1.
         13    1    6    6    0    0  0.33415202202E+02 -0.34071084558E+02 -0.29863438779E+02  0.56295999119E+02  0.00000000000E+00 0. -1.
        -14    1    6    6    0    0 -0.15436303630E+02  0.23806783226E+02 -0.18007677082E+02  0.33605339327E+02  0.00000000000E+00 0.  1.
</event>
<event>
12    1  0.1593360E-001  0.1757723E+03  0.7818608E-02  0.1172264E+00
         21   -1    0    0  501  502  0.00000000000E+00  0.00000000000E+00  0.85601319531E+03  0.85601319531E+03  0.00000000000E+00 0. -1.
         21   -1    0    0  502  503 -0.00000000000E+00 -0.00000000000E+00 -0.42055870224E+02  0.42055870224E+02  0.00000000000E+00 0. -1.
         -6    2    1    2    0  503 -0.17274038469E+02  0.33831494090E+02  0.23317579288E+03  0.29127165353E+03  0.17036802331E+03 0.  0.
        -24    2    3    3    0    0  0.37567907671E+02  0.57590589623E+02  0.10132129846E+03  0.14642749115E+03  0.80293093994E+02 0.  0.
          6    2    1    2  501    0  0.17274038469E+02 -0.33831494090E+02  0.58078153221E+03  0.60679741201E+03  0.17161861398E+03 0.  0.
         24    2    5    5    0    0 -0.50877155482E+01 -0.39276812057E+00  0.11827307618E+03  0.14251909210E+03  0.79354470242E+02 0.  0.
          5    1    5    5  501    0  0.22361754017E+02 -0.33438725969E+02  0.46250845603E+03  0.46427831991E+03  0.47000000000E+01 0. -1.
        -13    1    6    6    0    0 -0.42900339242E+01 -0.38772359681E+02  0.43236117598E+02  0.58232826921E+02  0.00000000000E+00 0.  1.
         14    1    6    6    0    0 -0.79768162399E+00  0.38379591561E+02  0.75036958582E+02  0.84286265178E+02  0.00000000000E+00 0. -1.
         -5    1    3    3    0  503 -0.54841946140E+02 -0.23759095534E+02  0.13185449442E+03  0.14484416238E+03  0.47000000000E+01 0.  1.
         11    1    4    4    0    0  0.38320895587E+02 -0.81993394008E+01  0.29688845971E+02  0.49164497153E+02  0.00000000000E+00 0. -1.
        -12    1    4    4    0    0 -0.75298791577E+00  0.65789929024E+02  0.71632452491E+02  0.97262993999E+02  0.00000000000E+00 0.  1.
</event>
<event>
12    1  0.1593360E-001  0.2172558E+03  0.7818608E-02  0.1136356E+00
         21   -1    0    0  501  502  0.00000000000E+00  0.00000000000E+00  0.94010012927E+02  0.94010012927E+02  0.00000000000E+00 0.  1.
         21   -1    0    0  502  503 -0.00000000000E+00 -0.00000000000E+00 -0.51256760790E+03  0.51256760790E+03  0.00000000000E+00 0. -1.
         -6    2    1    2    0  503  0.52485655818E+02 -0.11823974773E+03 -0.15559465119E+03  0.26547705535E+03  0.17185164948E+03 0.  0.
        -24    2    3    3    0    0  0.47326450825E+02 -0.69736283631E+02 -0.17676418887E+03  0.21209688346E+03  0.81465129383E+02 0.  0.
          6    2    1    2  501    0 -0.52485655818E+02  0.11823974773E+03 -0.26296294378E+03  0.34110056548E+03  0.17454141044E+03 0.  0.
         24    2    5    5    0    0 -0.98646520891E+02  0.79978565289E+02 -0.22667290596E+03  0.27085954903E+03  0.76528308602E+02 0.  0.
          5    1    5    5  501    0  0.46160865073E+02  0.38261182440E+02 -0.36290037827E+02  0.70241016447E+02  0.47000000000E+01 0. -1.
        -13    1    6    6    0    0 -0.52403610059E+02  0.68034201404E+02 -0.82901380305E+02  0.11936259785E+03  0.00000000000E+00 0.  1.
         14    1    6    6    0    0 -0.46242910832E+02  0.11944363885E+02 -0.14377152565E+03  0.15149695119E+03  0.00000000000E+00 0. -1.
         -5    1    3    3    0  503  0.51592049927E+01 -0.48503464098E+02  0.21169537675E+02  0.53380171890E+02  0.47000000000E+01 0.  1.
         13    1    4    4    0    0 -0.12979826288E+02 -0.51512563763E+02 -0.66604838205E+02  0.85195214585E+02  0.00000000000E+00 0. -1.
        -14    1    4    4    0    0  0.60306277113E+02 -0.18223719868E+02 -0.11015935066E+03  0.12690166888E+03  0.00000000000E+00 0.  1.
</event>
<event>
12    1  0.1593360E-001  0.1937943E+03  0.7818608E-02  0.1155095E+00
         21   -1    0    0  501  502  0.00000000000E+00  0.00000000000E+00  0.10064816868E+03  0.10064816868E+03  0.00000000000E+00 0.  1.
         21   -1    0    0  502  503 -0.00000000000E+00 -0.00000000000E+00 -0.38623680249E+03  0.38623680249E+03  0.00000000000E+00 0. -1.
         -6    2    1    2    0  503 -0.87568570511E+02  0.17061170936E+02 -0.18778102014E+03  0.26980764805E+03  0.17197417634E+03 0.  0.
        -24    2    3    3    0    0 -0.46702883322E+02  0.17558893147E+02 -0.20494564689E+03  0.22523224532E+03  0.78977035357E+02 0.  0.
          6    2    1    2  501    0  0.87568570511E+02 -0.17061170936E+02 -0.97807613664E+02  0.21707732311E+03  0.17203748668E+03 0.  0.
         24    2    5    5    0    0  0.25721161695E+02 -0.51705727926E+02 -0.33170976845E+01  0.98857633906E+02  0.80167126586E+02 0.  0.
          5    1    5    5  501    0  0.61847408816E+02  0.34644556990E+02 -0.94490515980E+02  0.11821968921E+03  0.47000000000E+01 0. -1.
        -13    1    6    6    0    0  0.42319052082E+02 -0.41585407783E+02  0.25104018846E+02  0.64424064385E+02  0.00000000000E+00 0.  1.
         14    1    6    6    0    0 -0.16597890387E+02 -0.10120320143E+02 -0.28421116531E+02  0.34433569521E+02  0.00000000000E+00 0. -1.
         -5    1    3    3    0  503 -0.40865687189E+02 -0.49772221126E+00  0.17164626756E+02  0.44575402729E+02  0.47000000000E+01 0.  1.
         11    1    4    4    0    0 -0.68602379441E+02  0.68679080121E+01 -0.14667993467E+03  0.16207546965E+03  0.00000000000E+00 0. -1.
        -12    1    4    4    0    0  0.21899496119E+02  0.10690985135E+02 -0.58265712222E+02  0.63156775679E+02  0.00000000000E+00 0.  1.
</event>
<event>
12    1  0.1593360E-001  0.1745372E+03  0.7818608E-02  0.1173921E+00
         21   -1    0    0  503  502  0.00000000000E+00  0.00000000000E+00  0.34468311464E+02  0.34468311464E+02  0.00000000000E+00 0. -1.
         21   -1    0    0  501  503 -0.00000000000E+00 -0.00000000000E+00 -0.10823596565E+04  0.10823596565E+04  0.00000000000E+00 0. -1.
          6    2    1    2  501    0 -0.20307293393E+01  0.57416362462E+01 -0.76815097591E+03  0.78710396803E+03  0.17157984861E+03 0.  0.
         24    2    3    3    0    0  0.33525015264E+02 -0.46957874047E+02 -0.33850384808E+03  0.35275365571E+03  0.80754677072E+02 0.  0.
         -6    2    1    2    0  502  0.20307293393E+01 -0.57416362462E+01 -0.27974036914E+03  0.32972399995E+03  0.17443093695E+03 0.  0.
        -24    2    5    5    0    0 -0.12762989976E+02  0.65692725063E+02 -0.12598899509E+03  0.15947918467E+03  0.71287835004E+02 0.  0.
          5    1    3    3  501    0 -0.35555744604E+02  0.52699510293E+02 -0.42964712782E+03  0.43435031231E+03  0.47000000000E+01 0. -1.
        -13    1    4    4    0    0  0.35884599437E+02  0.13618655864E+02 -0.14346879474E+03  0.14851419908E+03  0.00000000000E+00 0.  1.
         14    1    4    4    0    0 -0.23595841724E+01 -0.60576529911E+02 -0.19503505334E+03  0.20423945663E+03  0.00000000000E+00 0. -1.
         -5    1    5    5    0  502  0.14793719316E+02 -0.71434361309E+02 -0.15375137405E+03  0.17024481528E+03  0.47000000000E+01 0.  1.
         11    1    6    6    0    0  0.19671365690E+02  0.18266719611E+02 -0.76243579499E+01  0.27906388294E+02  0.00000000000E+00 0. -1.
        -12    1    6    6    0    0 -0.32434355667E+02  0.47426005451E+02 -0.11836463714E+03  0.13157279637E+03  0.00000000000E+00 0.  1.
</event>
<event>
12    1  0.1593360E-001  0.2660216E+03  0.7818608E-02  0.1103714E+00
         21   -1    0    0  501  502  0.00000000000E+00  0.00000000000E+00  0.38324201443E+02  0.38324201443E+02  0.00000000000E+00 0.  1.
         21   -1    0    0  502  503 -0.00000000000E+00 -0.00000000000E+00 -0.18875481981E+04  0.18875481981E+04  0.00000000000E+00 0.  1.
         -6    2    1    2    0  503  0.17571837126E+03  0.10142614880E+03 -0.77353795059E+03  0.81800271080E+03  0.17205599150E+03 0.  0.
        -24    2    3    3    0    0  0.12056111565E+03  0.10302737250E+03 -0.71803214930E+03  0.73959435193E+03  0.79246551269E+02 0.  0.
          6    2    1    2  501    0 -0.17571837126E+03 -0.10142614880E+03 -0.10756860461E+04  0.11078696888E+04  0.17061819329E+03 0.  0.
         24    2    5    5    0    0 -0.18429961109E+03 -0.66098352377E+02 -0.10166709911E+04  0.10383962579E+04  0.79445235926E+02 0.  0.
          5    1    5    5  501    0  0.85812398269E+01 -0.35327796426E+02 -0.59015055028E+02  0.69473430873E+02  0.47000000000E+01 0. -1.
        -11    1    6    6    0    0 -0.11388714031E+03 -0.25445652907E+02 -0.76683422468E+03  0.77566261359E+03  0.00000000000E+00 0.  1.
         12    1    6    6    0    0 -0.70412470772E+02 -0.40652699470E+02 -0.24983676641E+03  0.26273364434E+03  0.00000000000E+00 0. -1.
         -5    1    3    3    0  503  0.55157255608E+02 -0.16012237022E+01 -0.55505801292E+02  0.78408358869E+02  0.47000000000E+01 0.  1.
         13    1    4    4    0    0  0.35407656279E+02  0.82374109352E+02 -0.36260718992E+03  0.37352800457E+03  0.00000000000E+00 0. -1.
        -14    1    4    4    0    0  0.85153459371E+02  0.20653263153E+02 -0.35542495938E+03  0.36606634736E+03  0.00000000000E+00 0.  1.
</event>
<event>
12    1  0.1593360E-001  0.1927260E+03  0.7818608E-02  0.1156311E+00
         21   -1    0    0  501  502  0.00000000000E+00  0.00000000000E+00  0.45562274351E+03  0.45562274351E+03  0.00000000000E+00 0. -1.
         21   -1    0    0  502  503 -0.00000000000E+00 -0.00000000000E+00 -0.18642699218E+03  0.18642699218E+03  0.00000000000E+00 0. -1.
         -6    2    1    2    0  503 -0.72577962517E+02 -0.41042903868E+02 -0.10703483669E+03  0.21932904728E+03  0.17232728779E+03 0.  0.
        -24    2    3    3    0    0 -0.50102915412E+02  0.84551758470E+01  0.97129046747E+00  0.98322431180E+02  0.84169857649E+02 0.  0.
          6    2    1    2  501    0  0.72577962517E+02  0.41042903868E+02  0.37623058801E+03  0.42272068841E+03  0.17375627888E+03 0.  0.
         24    2    5    5    0    0  0.18655603651E+02  0.67277901019E+02  0.11924262454E+03  0.15878736495E+03  0.78232194443E+02 0.  0.
          5    1    5    5  501    0  0.53922358866E+02 -0.26234997151E+02  0.25698796348E+03  0.26393332346E+03  0.47000000000E+01 0. -1.
        -11    1    6    6    0    0  0.29227771798E+02  0.90941020516E+01  0.62299858123E+01  0.31237446433E+02  0.00000000000E+00 0.  1.
         12    1    6    6    0    0 -0.10572168147E+02  0.58183798967E+02  0.11301263873E+03  0.12754991852E+03  0.00000000000E+00 0. -1.
         -5    1    3    3    0  503 -0.22475047105E+02 -0.49498079715E+02 -0.10800612715E+03  0.12100661610E+03  0.47000000000E+01 0.  1.
         13    1    4    4    0    0  0.84767322933E+01  0.30517702534E+02 -0.12913491054E+02  0.34204435524E+02  0.00000000000E+00 0. -1.
        -14    1    4    4    0    0 -0.58579647705E+02 -0.22062526687E+02  0.13884781521E+02  0.64117995656E+02  0.00000000000E+00 0.  1.
</event>
<event>
12    1  0.1593360E-001  0.2456776E+03  0.7818608E-02  0.1116340E+00
         21   -1    0    0  503  502  0.00000000000E+00  0.00000000000E+00  0.75816407332E+03  0.75816407332E+03  0.00000000000E+00 0.  1.
         21   -1    0    0  501  503 -0.00000000000E+00 -0.00000000000E+00 -0.10971849534E+03  0.10971849534E+03  0.00000000000E+00 0.  1.
          6    2    1    2  501    0  0.17508160241E+03  0.81153089106E+01  0.94060126606E+02  0.26149924834E+03  0.16975018034E+03 0.  0.
         24    2    3    3    0    0  0.65784361157E+02 -0.52292487723E+02  0.13996795777E+02  0.11308356257E+03  0.74363266375E+02 0.  0.
         -6    2    1    2    0  502 -0.17508160241E+03 -0.81153089106E+01  0.55438545138E+03  0.60638332032E+03  0.17215712798E+03 0.  0.
        -24    2    5    5    0    0 -0.18166305363E+03 -0.38388574937E+01  0.56102882472E+03  0.59507721815E+03  0.79670267390E+02 0.  0.
          5    1    3    3  501    0  0.10929724125E+03  0.60407796634E+02  0.80063330828E+02  0.14841568577E+03  0.47000000000E+01 0. -1.
        -11    1    4    4    0    0  0.42448132713E+02  0.82291858553E+01 -0.91803142325E+01  0.44202280937E+02  0.00000000000E+00 0.  1.
         12    1    4    4    0    0  0.23336228444E+02 -0.60521673579E+02  0.23177110010E+02  0.68881281631E+02  0.00000000000E+00 0. -1.
         -5    1    5    5    0  502  0.65814512201E+01 -0.42764514169E+01 -0.66433733430E+01  0.11306102169E+02  0.47000000000E+01 0.  1.
         13    1    6    6    0    0 -0.93719398595E+01  0.99984758383E+01  0.12944365512E+03  0.13016705661E+03  0.00000000000E+00 0. -1.
        -14    1    6    6    0    0 -0.17229111377E+03 -0.13837333332E+02  0.43158516960E+03  0.46491016153E+03  0.00000000000E+00 0.  1.
</event>
<event>
12    1  0.1593360E-001  0.1947936E+03  0.7818608E-02  0.1154440E+00
         21   -1    0    0  503  502  0.00000000000E+00  0.00000000000E+00  0.12822666773E+03  0.12822666773E+03  0.00000000000E+00 0.  1.
         21   -1    0    0  501  503 -0.00000000000E+00 -0.00000000000E+00 -0.56231035607E+03  0.56231035607E+03  0.00000000000E+00 0.  1.
          6    2    1    2  501    0 -0.17901295196E+01  0.91943417547E+02 -0.45571410473E+03  0.49560054269E+03  0.17171999323E+03 0.  0.
         24    2    3    3    0    0  0.30177220144E+02 -0.36712249689E+01 -0.13610437112E+03  0.16043410176E+03  0.79313042195E+02 0.  0.
         -6    2    1    2    0  502  0.17901295196E+01 -0.91943417547E+02  0.21630416397E+02  0.19493648110E+03  0.17051557160E+03 0.  0.
        -24    2    5    5    0    0 -0.54633970739E+02 -0.36870401555E+02 -0.21992904689E+02  0.10470455592E+03  0.78326616826E+02 0.  0.
          5    1    3    3  501    0 -0.31967349663E+02  0.95614642516E+02 -0.31960973361E+03  0.33516644093E+03  0.47000000000E+01 0. -1.
        -11    1    4    4    0    0 -0.89751003099E+01  0.23790099539E+02 -0.91752473439E+02  0.95210491249E+02  0.00000000000E+00 0.  1.
         12    1    4    4    0    0  0.39152320454E+02 -0.27461324508E+02 -0.44351897681E+02  0.65223610514E+02  0.00000000000E+00 0. -1.
         -5    1    5    5    0  502  0.56424100258E+02 -0.55073015992E+02  0.43623321086E+02  0.90231925187E+02  0.47000000000E+01 0.  1.
         13    1    6    6    0    0 -0.45808713923E+02 -0.25013897538E+02  0.23228639070E+02  0.57128828226E+02  0.00000000000E+00 0. -1.
        -14    1    6    6    0    0 -0.88252568155E+01 -0.11856504017E+02 -0.45221543759E+02  0.47575727691E+02  0.00000000000E+00 0.  1.
</event>
<event>
12    1  0.1593360E-001  0.1942716E+03  0.7818608E-02  0.1156698E+00
         21   -1    0    0  503  502  0.00000000000E+00  0.00000000000E+00  0.13641147961E+03  0.13641147961E+03  0.00000000000E+00 0.  1.
         21   -1    0    0  501  503 -0.00000000000E+00 -0.00000000000E+00 -0.26497892120E+03  0.26497892120E+03  0.00000000000E+00 0.  1.
          6    2    1    2  501    0 -0.66946232049E+02 -0.27598336397E+02 -0.53221683669E+02  0.20142986323E+03  0.18027195020E+03 0.  0.
         24    2    3    3    0    0  0.27568717718E+02  0.21476346583E+01 -0.59052292692E+02  0.10206193820E+03  0.78516364059E+02 0.  0.
         -6    2    1    2    0  502  0.66946232049E+02  0.27598336397E+02 -0.75345757918E+02  0.19996053759E+03  0.17048098779E+03 0.  0.
        -24    2    5    5    0    0  0.80150565641E+02  0.40629758629E+02  0.18737402506E+01  0.12040481317E+03  0.80118148207E+02 0.  0.
          5    1    3    3  501    0 -0.94514949767E+02 -0.29745971055E+02  0.58306090240E+01  0.99367925031E+02  0.47000000000E+01 0. -1.
        -11    1    4    4    0    0  0.70540648060E+01  0.21682414008E+02 -0.68504081177E+02  0.72199003078E+02  0.00000000000E+00 0.  1.
         12    1    4    4    0    0  0.20514652912E+02 -0.19534779349E+02  0.94517884848E+01  0.29862935119E+02  0.00000000000E+00 0. -1.
         -5    1    5    5    0  502 -0.13204333592E+02 -0.13031422232E+02 -0.77219498169E+02  0.79555724423E+02  0.47000000000E+01 0.  1.
         13    1    6    6    0    0  0.47821955379E+01 -0.55558733103E+01 -0.26557744573E+02  0.27550878737E+02  0.00000000000E+00 0. -1.
        -14    1    6    6    0    0  0.75368370103E+02  0.46185631939E+02  0.28431484823E+02  0.92853934428E+02  0.00000000000E+00 0.  1.
</event>
<event>
12    1  0.1593360E-001  0.2271081E+03  0.7818608E-02  0.1128747E+00
         21   -1    0    0  501  502  0.00000000000E+00  0.00000000000E+00  0.17548255824E+03  0.17548255824E+03  0.00000000000E+00 0.  1.
         21   -1    0    0  502  503 -0.00000000000E+00 -0.00000000000E+00 -0.32626064904E+03  0.32626064904E+03  0.00000000000E+00 0. -1.
         -6    2    1    2    0  503  0.10879375611E+03  0.10128403059E+03  0.41273991665E+01  0.22683631333E+03  0.17129839871E+03 0.  0.
        -24    2    3    3    0    0  0.16770842179E+02  0.10316136248E+03 -0.15251674563E+02  0.13265892983E+03  0.80263629571E+02 0.  0.
          6    2    1    2  501    0 -0.10879375611E+03 -0.10128403059E+03 -0.15490548996E+03  0.27490689395E+03  0.17170775551E+03 0.  0.
         24    2    5    5    0    0 -0.76302775327E+02 -0.84150579644E+01 -0.13356568422E+03  0.17412104565E+03  0.81150599603E+02 0.  0.
          5    1    5    5  501    0 -0.32490980782E+02 -0.92868972623E+02 -0.21339805746E+02  0.10078584830E+03  0.47000000000E+01 0. -1.
        -11    1    6    6    0    0 -0.48676390743E+02  0.11653441393E+02 -0.17319805357E+02  0.52963849650E+02  0.00000000000E+00 0.  1.
         12    1    6    6    0    0 -0.27626384584E+02 -0.20068499358E+02 -0.11624587886E+03  0.12115719600E+03  0.00000000000E+00 0. -1.
         -5    1    3    3    0  503  0.92022913930E+02 -0.18773318909E+01  0.19379073729E+02  0.94177383494E+02  0.47000000000E+01 0.  1.
         13    1    4    4    0    0 -0.77707512751E+01  0.78518672863E+02  0.21783287350E+02  0.81854005224E+02  0.00000000000E+00 0. -1.
        -14    1    4    4    0    0  0.24541593454E+02  0.24642689616E+02 -0.37034961912E+02  0.50804924610E+02  0.00000000000E+00 0.  1.
</event>
<event>
12    1  0.1593360E-001  0.2427268E+03  0.7818608E-02  0.1118272E+00
         21   -1    0    0  503  502  0.00000000000E+00  0.00000000000E+00  0.18072423991E+04  0.18072423991E+04  0.00000000000E+00 0.  1.
         21   -1    0    0  501  503 -0.00000000000E+00 -0.00000000000E+00 -0.33422765136E+02  0.33422765136E+02  0.00000000000E+00 0.  1.
          6    2    1    2  501    0 -0.44161806364E+02 -0.16471249733E+03  0.72661533202E+03  0.76608492793E+03  0.17273043782E+03 0.  0.
         24    2    3    3    0    0 -0.62309942991E+02 -0.14360990421E+03  0.71417894123E+03  0.73523969953E+03  0.77585579049E+02 0.  0.
         -6    2    1    2    0  502  0.44161806364E+02  0.16471249733E+03  0.10472043020E+04  0.10745802363E+04  0.17030960732E+03 0.  0.
        -24    2    5    5    0    0  0.24802252054E+02  0.16334929718E+03  0.10352369052E+04  0.10513002182E+04  0.78857810846E+02 0.  0.
          5    1    3    3  501    0  0.18148136627E+02 -0.21102593118E+02  0.12436390792E+02  0.30845228403E+02  0.47000000000E+01 0. -1.
        -11    1    4    4    0    0 -0.21370367500E+02 -0.12612551378E+03  0.47336089782E+03  0.49034159259E+03  0.00000000000E+00 0.  1.
         12    1    4    4    0    0 -0.40939575492E+02 -0.17484390425E+02  0.24081804341E+03  0.24489810694E+03  0.00000000000E+00 0. -1.
         -5    1    5    5    0  502  0.19359554310E+02  0.13632001477E+01  0.11967396741E+02  0.23280018095E+02  0.47000000000E+01 0.  1.
         11    1    6    6    0    0 -0.21231856268E+02  0.70677064845E+02  0.30681277938E+03  0.31556318037E+03  0.00000000000E+00 0. -1.
        -12    1    6    6    0    0  0.46034108321E+02  0.92672232335E+02  0.72842412583E+03  0.73573703785E+03  0.00000000000E+00 0.  1.
</event>
<event>
12    1  0.1593360E-001  0.1740028E+03  0.7818608E-02  0.1173744E+00
         21   -1    0    0  501  502  0.00000000000E+00  0.00000000000E+00  0.37344750253E+03  0.37344750253E+03  0.00000000000E+00 0. -1.
         21   -1    0    0  502  503 -0.00000000000E+00 -0.00000000000E+00 -0.11288282464E+03  0.11288282464E+03  0.00000000000E+00 0. -1.
         -6    2    1    2    0  503  0.28310405774E+02  0.11537940728E+01  0.11831424574E+01  0.17400677263E+03  0.17168036224E+03 0.  0.
        -24    2    3    3    0    0  0.62500833866E+02 -0.28258974612E+02 -0.40969488571E+02  0.11209529843E+03  0.78625269835E+02 0.  0.
          6    2    1    2  501    0 -0.28310405774E+02 -0.11537940728E+01  0.25938153543E+03  0.31232355455E+03  0.17165200694E+03 0.  0.
         24    2    5    5    0    0  0.11684714727E+02  0.53701198434E+02  0.19817413017E+03  0.22079696647E+03  0.80361453826E+02 0.  0.
          5    1    5    5  501    0 -0.39995120501E+02 -0.54854992507E+02  0.61207405262E+02  0.91526588081E+02  0.47000000000E+01 0. -1.
        -11    1    6    6    0    0 -0.31951011631E+02  0.10383955171E+02  0.48632387356E+02  0.59108398465E+02  0.00000000000E+00 0.  1.
         12    1    6    6    0    0  0.43635726357E+02  0.43317243263E+02  0.14954174281E+03  0.16168856800E+03  0.00000000000E+00 0. -1.
         -5    1    3    3    0  503 -0.34190428092E+02  0.29412768685E+02  0.42152631029E+02  0.61911474198E+02  0.47000000000E+01 0.  1.
         13    1    4    4    0    0 -0.11936173651E+02  0.13219847408E+02 -0.64667266146E+00  0.17822872733E+02  0.00000000000E+00 0. -1.
        -14    1    4    4    0    0  0.74437007517E+02 -0.41478822020E+02 -0.40322815910E+02  0.94272425699E+02  0.00000000000E+00 0.  1.
</event>
<event>
12    1  0.1593360E-001  0.1758287E+03  0.7818608E-02  0.1172874E+00
         21   -1    0    0  503  502  0.00000000000E+00  0.00000000000E+00  0.18505004105E+03  0.18505004105E+03  0.00000000000E+00 0.  1.
         21   -1    0    0  501  503 -0.00000000000E+00 -0.00000000000E+00 -0.37931836860E+03  0.37931836860E+03  0.00000000000E+00 0.  1.
          6    2    1    2  501    0 -0.36855253432E+01  0.64096835931E+01 -0.30955034964E+03  0.35411695983E+03  0.17182181216E+03 0.  0.
         24    2    3    3    0    0 -0.27073347658E+02  0.65967764001E+02 -0.17575400785E+03  0.20573331433E+03  0.79699518882E+02 0.  0.
         -6    2    1    2    0  502  0.36855253432E+01 -0.64096835931E+01  0.11528202209E+03  0.21025144982E+03  0.17567316356E+03 0.  0.
        -24    2    5    5    0    0 -0.42474037144E+02 -0.26797407488E+02  0.11738391992E+02  0.94970324616E+02  0.79746020790E+02 0.  0.
          5    1    3    3  501    0  0.23387822315E+02 -0.59558080408E+02 -0.13379634179E+03  0.14838364550E+03  0.47000000000E+01 0. -1.
        -11    1    4    4    0    0  0.99302600964E+01  0.60662190392E+02 -0.67931175663E+02  0.91614169405E+02  0.00000000000E+00 0.  1.
         12    1    4    4    0    0 -0.37003607754E+02  0.53055736089E+01 -0.10782283219E+03  0.11411914493E+03  0.00000000000E+00 0. -1.
         -5    1    5    5    0  502  0.46159562488E+02  0.20387723894E+02  0.10354363010E+03  0.11528112521E+03  0.47000000000E+01 0.  1.
         11    1    6    6    0    0 -0.37555138817E+02  0.22982368115E+02  0.85091437140E+01  0.44843987584E+02  0.00000000000E+00 0. -1.
        -12    1    6    6    0    0 -0.49188983277E+01 -0.49779775603E+02  0.32292482777E+01  0.50126337032E+02  0.00000000000E+00 0.  1.
</event>
<event>
12    1  0.1593360E-001  0.2599907E+03  0.7818608E-02  0.1107235E+00
         21   -1    0    0  501  502  0.00000000000E+00  0.00000000000E+00  0.37513716116E+03  0.37513716116E+03  0.00000000000E+00 0.  1.
         21   -1    0    0  502  503 -0.00000000000E+00 -0.00000000000E+00 -0.21782457472E+03  0.21782457472E+03  0.00000000000E+00 0.  1.
         -6    2    1    2    0  503 -0.18361262683E+03 -0.66431184025E+02  0.20247489523E+03  0.32907768979E+03  0.17079035035E+03 0.  0.
        -24    2    3    3    0    0 -0.13366100432E+03  0.95385988621E+01  0.71342279721E+02  0.16943926912E+03  0.75257531847E+02 0.  0.
          6    2    1    2  501    0  0.18361262683E+03  0.66431184025E+02 -0.45162308801E+02  0.26388404609E+03  0.17166378972E+03 0.  0.
         24    2    5    5    0    0  0.13140878067E+03 -0.16914622388E+02 -0.60960946554E+02  0.16416718715E+03  0.75367474719E+02 0.  0.
          5    1    5    5  501    0  0.52203846166E+02  0.83345806413E+02  0.15798637753E+02  0.99716858935E+02  0.47000000000E+01 0. -1.
        -13    1    6    6    0    0  0.12786573306E+03  0.38472921040E+00 -0.34646700468E+02  0.13247712090E+03  0.00000000000E+00 0.  1.
         14    1    6    6    0    0  0.35430476046E+01 -0.17299351598E+02 -0.26314246086E+02  0.31690066253E+02  0.00000000000E+00 0. -1.
         -5    1    3    3    0  503 -0.49951622516E+02 -0.75969782887E+02  0.13113261551E+03  0.15963842067E+03  0.47000000000E+01 0.  1.
         13    1    4    4    0    0 -0.10176675368E+03  0.60280994708E+01  0.12886861991E+02  0.10275641756E+03  0.00000000000E+00 0. -1.
        -14    1    4    4    0    0 -0.31894250636E+02  0.35104993913E+01  0.58455417730E+02  0.66682851555E+02  0.00000000000E+00 0.  1.
</event>
<event>
12    1  0.1593360E-001  0.2824051E+03  0.7818608E-02  0.1094432E+00
         21   -1    0    0  501  502  0.00000000000E+00  0.00000000000E+00  0.17253426351E+03  0.17253426351E+03  0.00000000000E+00 0. -1.
         21   -1    0    0  502  503 -0.00000000000E+00 -0.00000000000E+00 -0.51757089607E+03  0.51757089607E+03  0.00000000000E+00 0.  1.
         -6    2    1    2    0  503 -0.22236848454E+03 -0.23592083727E+02 -0.28603720120E+03  0.40195761629E+03  0.17247699990E+03 0.  0.
        -24    2    3    3    0    0 -0.15960296945E+03  0.48555767122E+02 -0.16724853628E+03  0.24938743840E+03  0.79945301112E+02 0.  0.
          6    2    1    2  501    0  0.22236848454E+03  0.23592083727E+02 -0.58999431355E+02  0.28814754329E+03  0.17188293829E+03 0.  0.
         24    2    5    5    0    0  0.21184235827E+03 -0.67568693303E+01 -0.89187861284E+02  0.24381595650E+03  0.81048787794E+02 0.  0.
          5    1    5    5  501    0  0.10526126270E+02  0.30348953057E+02  0.30188429929E+02  0.44331586792E+02  0.47000000000E+01 0. -1.
        -11    1    6    6    0    0  0.12090429655E+03 -0.13220132391E+02 -0.92163572824E+02  0.15259995079E+03  0.00000000000E+00 0.  1.
         12    1    6    6    0    0  0.90938061723E+02  0.64632630604E+01  0.29757115401E+01  0.91216005714E+02  0.00000000000E+00 0. -1.
         -5    1    3    3    0  503 -0.62765515095E+02 -0.72147850848E+02 -0.11878866492E+03  0.15257017789E+03  0.47000000000E+01 0.  1.
         11    1    4    4    0    0 -0.98302558730E+02  0.66096754076E+02 -0.87428441084E+02  0.14722739644E+03  0.00000000000E+00 0. -1.
        -12    1    4    4    0    0 -0.61300410715E+02 -0.17540986954E+02 -0.79820095194E+02  0.10216004196E+03  0.00000000000E+00 0.  1.
</event>
<event>
12    1  0.1593360E-001  0.2922474E+03  0.7818608E-02  0.1089398E+00
         21   -1    0    0  501  502  0.00000000000E+00  0.00000000000E+00  0.46829932650E+03  0.46829932650E+03  0.00000000000E+00 0.  1.
         21   -1    0    0  502  503 -0.00000000000E+00 -0.00000000000E+00 -0.25128349783E+03  0.25128349783E+03  0.00000000000E+00 0. -1.
         -6    2    1    2    0  503 -0.54298332976E+02  0.22749522607E+03 -0.81090288022E+02  0.30328888621E+03  0.17523163766E+03 0.  0.
        -24    2    3    3    0    0 -0.59223603842E+02  0.20171950545E+03 -0.12268031892E+03  0.25388780588E+03  0.72182845586E+02 0.  0.
          6    2    1    2  501    0  0.54298332976E+02 -0.22749522607E+03  0.29810611669E+03  0.41629393813E+03  0.17242679394E+03 0.  0.
         24    2    5    5    0    0  0.18753224173E+02 -0.22879490987E+03  0.29195281203E+03  0.37989205499E+03  0.79892019576E+02 0.  0.
          5    1    5    5  501    0  0.35545108803E+02  0.12996838035E+01  0.61533046551E+01  0.36401883138E+02  0.47000000000E+01 0. -1.
        -11    1    6    6    0    0 -0.10104973929E+01 -0.14471168977E+03  0.23645520398E+03  0.27722474231E+03  0.00000000000E+00 0.  1.
         12    1    6    6    0    0  0.19763721566E+02 -0.84083220105E+02  0.55497608050E+02  0.10266731268E+03  0.00000000000E+00 0. -1.
         -5    1    3    3    0  503  0.49252708659E+01  0.25775720622E+02  0.41590030900E+02  0.49401080321E+02  0.47000000000E+01 0.  1.
         13    1    4    4    0    0  0.48571057303E+00  0.92166829232E+02 -0.79930759101E+02  0.12199953515E+03  0.00000000000E+00 0. -1.
        -14    1    4    4    0    0 -0.59709314415E+02  0.10955267621E+03 -0.42749559820E+02  0.13188827074E+03  0.00000000000E+00 0.  1.
</event>
<event>
12    1  0.1593360E-001  0.1791847E+03  0.7818608E-02  0.1169980E+00
         21   -1    0    0  501  502  0.00000000000E+00  0.00000000000E+00  0.14401147713E+03  0.14401147713E+03  0.00000000000E+00 0.  1.
         21   -1    0    0  502  503 -0.00000000000E+00 -0.00000000000E+00 -0.27416431570E+03  0.27416431570E+03  0.00000000000E+00 0.  1.
         -6    2    1    2    0  503  0.49021352328E+02 -0.10627688004E+02 -0.16215485475E+03  0.24166375105E+03  0.17202072816E+03 0.  0.
        -24    2    3    3    0    0  0.96403291280E+01 -0.62043445621E+02 -0.14046692277E+03  0.17320280223E+03  0.79535710335E+02 0.  0.
          6    2    1    2  501    0 -0.49021352328E+02  0.10627688004E+02  0.32002016181E+02  0.17651204177E+03  0.16618162087E+03 0.  0.
         24    2    5    5    0    0 -0.18150311021E+02  0.68423055289E+02  0.11932668114E+02  0.10782292762E+03  0.80450275746E+02 0.  0.
          5    1    5    5  501    0 -0.30871041308E+02 -0.57795367284E+02  0.20069348066E+02  0.68689114150E+02  0.47000000000E+01 0. -1.
        -13    1    6    6    0    0 -0.44724871041E+02  0.46394412284E+02 -0.12356594102E+02  0.65615859353E+02  0.00000000000E+00 0.  1.
         14    1    6    6    0    0  0.26574560021E+02  0.22028643005E+02  0.24289262216E+02  0.42207068270E+02  0.00000000000E+00 0. -1.
         -5    1    3    3    0  503  0.39381023200E+02  0.51415757617E+02 -0.21687931977E+02  0.68460948818E+02  0.47000000000E+01 0.  1.
         11    1    4    4    0    0 -0.22632210777E+02  0.11930861003E+00 -0.71140747071E+02  0.74654116384E+02  0.00000000000E+00 0. -1.
        -12    1    4    4    0    0  0.32272539905E+02 -0.62162754231E+02 -0.69326175702E+02  0.98548685851E+02  0.00000000000E+00 0.  1.
</event>
<event>
12    1  0.1593360E-001  0.1912736E+03  0.7818608E-02  0.1157322E+00
         21   -1    0    0  501  502  0.00000000000E+00  0.00000000000E+00  0.23062760553E+03  0.23062760553E+03  0.00000000000E+00 0. -1.
         21   -1    0    0  502  503 -0.00000000000E+00 -0.00000000000E+00 -0.39807899612E+03  0.39807899612E+03  0.00000000000E+00 0. -1.
         -6    2    1    2    0  503  0.79630221662E+02 -0.25116350093E+02 -0.32753698014E+03  0.37929678791E+03  0.17208653844E+03 0.  0.
        -24    2    3    3    0    0  0.14042340617E+02 -0.72335851691E+02 -0.21039043060E+03  0.23689996371E+03  0.80173541458E+02 0.  0.
          6    2    1    2  501    0 -0.79630221662E+02  0.25116350093E+02  0.16008558955E+03  0.24940981375E+03  0.17206410425E+03 0.  0.
         24    2    5    5    0    0  0.67070783774E+00  0.57089336463E+02  0.48370616855E+02  0.10808452847E+03  0.77992990279E+02 0.  0.
          5    1    5    5  501    0 -0.80300929500E+02 -0.31972986370E+02  0.11171497269E+03  0.14132528528E+03  0.47000000000E+01 0. -1.
        -11    1    6    6    0    0  0.24791422386E+01  0.60834945135E+01 -0.20976209700E+02  0.21980819483E+02  0.00000000000E+00 0.  1.
         12    1    6    6    0    0 -0.18084344009E+01  0.51005841949E+02  0.69346826555E+02  0.86103708986E+02  0.00000000000E+00 0. -1.
         -5    1    3    3    0  503  0.65587881046E+02  0.47219501598E+02 -0.11714654954E+03  0.14239682420E+03  0.47000000000E+01 0.  1.
         11    1    4    4    0    0  0.64368129607E+01 -0.73841841865E+02 -0.91492114874E+02  0.11774912847E+03  0.00000000000E+00 0. -1.
        -12    1    4    4    0    0  0.76055276561E+01  0.15059901734E+01 -0.11889831572E+03  0.11915083524E+03  0.00000000000E+00 0.  1.
</event>
<event>
12    1  0.1593360E-001  0.2784748E+03  0.7818608E-02  0.1096645E+00
         21   -1    0    0  501  502  0.00000000000E+00  0.00000000000E+00  0.33789371496E+03  0.33789371496E+03  0.00000000000E+00 0. -1.
         21   -1    0    0  502  503 -0.00000000000E+00 -0.00000000000E+00 -0.39546839243E+03  0.39546839243E+03  0.00000000000E+00 0. -1.
         -6    2    1    2    0  503 -0.14264839352E+03  0.16597018234E+03 -0.26681675469E+03  0.38503687423E+03  0.17078509400E+03 0.  0.
        -24    2    3    3    0    0 -0.43412004555E+02  0.14639427288E+03 -0.19804636202E+03  0.26263371237E+03  0.80238519997E+02 0.  0.
          6    2    1    2  501    0  0.14264839352E+03 -0.16597018234E+03  0.20924207721E+03  0.34832523316E+03  0.17220207774E+03 0.  0.
         24    2    5    5    0    0  0.86690969273E+02 -0.14971952745E+02  0.82118491674E+02  0.14310780049E+03  0.77439733755E+02 0.  0.
          5    1    5    5  501    0  0.55957424247E+02 -0.15099822960E+03  0.12712358554E+03  0.20521743267E+03  0.47000000000E+01 0. -1.
        -13    1    6    6    0    0  0.25176174569E+02 -0.34102754221E+02  0.62957166808E+02  0.75897578775E+02  0.00000000000E+00 0.  1.
         14    1    6    6    0    0  0.61514794703E+02  0.19130801476E+02  0.19161324866E+02  0.67210221716E+02  0.00000000000E+00 0. -1.
         -5    1    3    3    0  503 -0.99236388965E+02  0.19575909463E+02 -0.68770392668E+02  0.12240316186E+03  0.47000000000E+01 0.  1.
         11    1    4    4    0    0  0.97021736299E+01  0.88551238085E+02 -0.73943717919E+02  0.11577187637E+03  0.00000000000E+00 0. -1.
        -12    1    4    4    0    0 -0.53114178185E+02  0.57843034793E+02 -0.12410264410E+03  0.14686183599E+03  0.00000000000E+00 0.  1.
</event>
<event>
12    1  0.1593360E-001  0.3006633E+03  0.7818608E-02  0.1084915E+00
         21   -1    0    0  503  502  0.00000000000E+00  0.00000000000E+00  0.10701317471E+03  0.10701317471E+03  0.00000000000E+00 0.  1.
         21   -1    0    0  501  503 -0.00000000000E+00 -0.00000000000E+00 -0.92825787819E+03  0.92825787819E+03  0.00000000000E+00 0.  1.
          6    2    1    2  501    0 -0.17602420340E+03  0.17254643894E+03 -0.56601859213E+03  0.64091769682E+03  0.17216751639E+03 0.  0.
         24    2    3    3    0    0 -0.70940891667E+02  0.35039706531E+02 -0.11652586805E+03  0.15923688668E+03  0.74281336899E+02 0.  0.
         -6    2    1    2    0  502  0.17602420340E+03 -0.17254643894E+03 -0.25522611135E+03  0.39435335607E+03  0.17209708817E+03 0.  0.
        -24    2    5    5    0    0  0.85938169357E+01 -0.54848429268E+02 -0.48874260361E+02  0.10368355682E+03  0.72659361035E+02 0.  0.
          5    1    3    3  501    0 -0.10508331173E+03  0.13750673241E+03 -0.44949272407E+03  0.48168081014E+03  0.47000000000E+01 0. -1.
        -11    1    4    4    0    0 -0.70824029374E+02  0.36506370248E+02 -0.12631051428E+03  0.14934223858E+03  0.00000000000E+00 0.  1.
         12    1    4    4    0    0 -0.11686229244E+00 -0.14666637172E+01  0.97846462310E+01  0.98946481050E+01  0.00000000000E+00 0. -1.
         -5    1    5    5    0  502  0.16743038646E+03 -0.11769800967E+03 -0.20635185099E+03  0.29066979926E+03  0.47000000000E+01 0.  1.
         13    1    6    6    0    0 -0.19960074057E+02  0.76406843212E+01 -0.19613667556E+02  0.29008284477E+02  0.00000000000E+00 0. -1.
        -14    1    6    6    0    0  0.28553890993E+02 -0.62489113589E+02 -0.29260592805E+02  0.74675272342E+02  0.00000000000E+00 0.  1.
</event>
<event>
12    1  0.1593360E-001  0.1834702E+03  0.7818608E-02  0.1166007E+00
         21   -1    0    0  503  502  0.00000000000E+00  0.00000000000E+00  0.42206817033E+02  0.42206817033E+02  0.00000000000E+00 0. -1.
         21   -1    0    0  501  503 -0.00000000000E+00 -0.00000000000E+00 -0.13460139394E+04  0.13460139394E+04  0.00000000000E+00 0. -1.
          6    2    1    2  501    0  0.35449561255E+02 -0.26470918753E+02 -0.11123645286E+04  0.11273935169E+04  0.17805593693E+03 0.  0.
         24    2    3    3    0    0 -0.14544296706E+02 -0.52592400843E+02 -0.96410936508E+03  0.96870072831E+03  0.76790207717E+02 0.  0.
         -6    2    1    2    0  502 -0.35449561255E+02  0.26470918753E+02 -0.19144259378E+03  0.26082723948E+03  0.17153192475E+03 0.  0.
        -24    2    5    5    0    0 -0.29525618149E+02  0.45012884370E+02 -0.21282381809E+03  0.23153313864E+03  0.73591404780E+02 0.  0.
          5    1    3    3  501    0  0.49993857961E+02  0.26121482090E+02 -0.14825516349E+03  0.15869278863E+03  0.47000000000E+01 0. -1.
        -11    1    4    4    0    0  0.30007482086E+02 -0.17677162993E+02 -0.26041463629E+03  0.26273316095E+03  0.00000000000E+00 0.  1.
         12    1    4    4    0    0 -0.44551778791E+02 -0.34915237850E+02 -0.70369472880E+03  0.70596756736E+03  0.00000000000E+00 0. -1.
         -5    1    5    5    0  502 -0.59239431056E+01 -0.18541965618E+02  0.21381224308E+02  0.29294100836E+02  0.47000000000E+01 0.  1.
         11    1    6    6    0    0 -0.14959906528E+02 -0.69051515250E+01 -0.13974919864E+03  0.14071715759E+03  0.00000000000E+00 0. -1.
        -12    1    6    6    0    0 -0.14565711622E+02  0.51918035895E+02 -0.73074619450E+02  0.90815981050E+02  0.00000000000E+00 0.  1.
</event>
<event>
12    1  0.1593360E-001  0.1968406E+03  0.7818608E-02  0.1153648E+00
         21   -1    0    0  503  502  0.00000000000E+00  0.00000000000E+00  0.61119686737E+02  0.61119686737E+02  0.00000000000E+00 0. -1.
         21   -1    0    0  501  503 -0.00000000000E+00 -0.00000000000E+00 -0.16334113090E+04  0.16334113090E+04  0.00000000000E+00 0. -1.
          6    2    1    2  501    0 -0.91345813672E+02  0.18137475366E+02 -0.14505009938E+04  0.14630592204E+04  0.16708118861E+03 0.  0.
         24    2    3    3    0    0 -0.42977259577E+02 -0.53243267753E+02 -0.81869228036E+03  0.82537664424E+03  0.79420806677E+02 0.  0.
         -6    2    1    2    0  502  0.91345813672E+02 -0.18137475366E+02 -0.12179062845E+03  0.23147177536E+03  0.17341626199E+03 0.  0.
        -24    2    5    5    0    0  0.10549502947E+03 -0.48110313557E+02 -0.13092819517E+03  0.19677081769E+03  0.90181810194E+02 0.  0.
          5    1    3    3  501    0 -0.48368554095E+02  0.71380743119E+02 -0.63180871346E+03  0.63768257614E+03  0.47000000000E+01 0. -1.
        -13    1    4    4    0    0  0.48061572748E+01 -0.11378012938E+02 -0.51320035061E+03  0.51334896337E+03  0.00000000000E+00 0.  1.
         14    1    4    4    0    0 -0.47783416852E+02 -0.41865254815E+02 -0.30549192974E+03  0.31202768086E+03  0.00000000000E+00 0. -1.
         -5    1    5    5    0  502 -0.14149215801E+02  0.29972838191E+02  0.91375667293E+01  0.34700957663E+02  0.47000000000E+01 0.  1.
         11    1    6    6    0    0  0.22144753523E+02 -0.11338278530E+02  0.11730036833E+02  0.27505280089E+02  0.00000000000E+00 0. -1.
        -12    1    6    6    0    0  0.83350275949E+02 -0.36772035027E+02 -0.14265823201E+03  0.16926553760E+03  0.00000000000E+00 0.  1.
</event>
<event>
12    1  0.1593360E-001  0.2583387E+03  0.7818608E-02  0.1108195E+00
         21   -1    0    0  501  502  0.00000000000E+00  0.00000000000E+00  0.11552481939E+03  0.11552481939E+03  0.00000000000E+00 0. -1.
         21   -1    0    0  502  503 -0.00000000000E+00 -0.00000000000E+00 -0.58791212881E+03  0.58791212881E+03  0.00000000000E+00 0.  1.
         -6    2    1    2    0  503 -0.16340409804E+03 -0.10156460593E+03 -0.18834664175E+03  0.31970824545E+03  0.17240254150E+03 0.  0.
        -24    2    3    3    0    0 -0.12459848032E+03 -0.77185258697E+02 -0.50690718768E+02  0.17454808677E+03  0.80094570139E+02 0.  0.
          6    2    1    2  501    0  0.16340409804E+03  0.10156460593E+03 -0.28404066767E+03  0.38372870274E+03  0.17190796369E+03 0.  0.
         24    2    5    5    0    0  0.13535056987E+03  0.62332837723E+01 -0.19327481769E+03  0.24906025450E+03  0.79480970234E+02 0.  0.
          5    1    5    5  501    0  0.28053528175E+02  0.95331322162E+02 -0.90765849983E+02  0.13466844824E+03  0.47000000000E+01 0. -1.
        -13    1    6    6    0    0  0.10908994207E+03  0.68240779784E+01 -0.19412223012E+03  0.22277931620E+03  0.00000000000E+00 0.  1.
         14    1    6    6    0    0  0.26260627797E+02 -0.59079420611E+00  0.84741242889E+00  0.26280938300E+02  0.00000000000E+00 0. -1.
         -5    1    3    3    0  503 -0.38805617719E+02 -0.24379347237E+02 -0.13765592298E+03  0.14516015868E+03  0.47000000000E+01 0.  1.
         11    1    4    4    0    0  0.31407217874E+01 -0.30292518812E+01  0.12988594499E+02  0.13701973849E+02  0.00000000000E+00 0. -1.
        -12    1    4    4    0    0 -0.12773920211E+03 -0.74156006816E+02 -0.63679313266E+02  0.16084611292E+03  0.00000000000E+00 0.  1.
</event>
<event>
12    1  0.1593360E-001  0.1896770E+03  0.7818608E-02  0.1158906E+00
         21   -1    0    0  503  502  0.00000000000E+00  0.00000000000E+00  0.56196380837E+03  0.56196380837E+03  0.00000000000E+00 0.  1.
         21   -1    0    0  501  503 -0.00000000000E+00 -0.00000000000E+00 -0.11626384624E+03  0.11626384624E+03  0.00000000000E+00 0.  1.
          6    2    1    2  501    0 -0.26081372630E+02 -0.69437450960E+02 -0.51845329247E+01  0.18907102571E+03  0.17383663535E+03 0.  0.
         24    2    3    3    0    0 -0.61973438369E+02 -0.78211257319E+02 -0.44086761153E+02  0.13521293976E+03  0.79882343080E+02 0.  0.
         -6    2    1    2    0  502  0.26081372630E+02  0.69437450960E+02  0.45088449505E+03  0.48915662889E+03  0.17457256976E+03 0.  0.
        -24    2    5    5    0    0 -0.31018137789E+02  0.26905483915E+02  0.35430519632E+03  0.36907759968E+03  0.94868711978E+02 0.  0.
          5    1    3    3  501    0  0.35892065739E+02  0.87738063592E+01  0.38902228228E+02  0.53858085950E+02  0.47000000000E+01 0. -1.
        -11    1    4    4    0    0 -0.47546688595E+02 -0.28535225794E+02 -0.59404621909E+02  0.81264111461E+02  0.00000000000E+00 0.  1.
         12    1    4    4    0    0 -0.14426749774E+02 -0.49676031526E+02  0.15317860756E+02  0.53948828304E+02  0.00000000000E+00 0. -1.
         -5    1    5    5    0  502  0.57099510418E+02  0.42531967046E+02  0.96579298735E+02  0.12007902921E+03  0.47000000000E+01 0.  1.
         11    1    6    6    0    0 -0.30723154267E+01 -0.17768353012E+02  0.26330506185E+03  0.26392178593E+03  0.00000000000E+00 0. -1.
        -12    1    6    6    0    0 -0.27945822362E+02  0.44673836927E+02  0.91000134466E+02  0.10515581375E+03  0.00000000000E+00 0.  1.
</event>
<event>
12    1  0.1593360E-001  0.2519439E+03  0.7818608E-02  0.1112818E+00
         21   -1    0    0  503  502  0.00000000000E+00  0.00000000000E+00  0.35880697767E+03  0.35880697767E+03  0.00000000000E+00 0.  1.
         21   -1    0    0  501  503 -0.00000000000E+00 -0.00000000000E+00 -0.18296672031E+03  0.18296672031E+03  0.00000000000E+00 0. -1.
          6    2    1    2  501    0  0.95982635733E+02 -0.15725220804E+03  0.27589507164E+02  0.25345000774E+03  0.17185692369E+03 0.  0.
         24    2    3    3    0    0  0.86368847285E+02 -0.18147201263E+03  0.42582053101E+01  0.21815888267E+03  0.84755510893E+02 0.  0.
         -6    2    1    2    0  502 -0.95982635733E+02  0.15725220804E+03  0.14825075019E+03  0.28832369024E+03  0.16495860731E+03 0.  0.
        -24    2    5    5    0    0 -0.57683057555E+02  0.95348293982E+02  0.15667251932E+02  0.13699812639E+03  0.78130605763E+02 0.  0.
          5    1    3    3  501    0  0.96137884480E+01  0.24219804587E+02  0.23331301854E+02  0.35291125070E+02  0.47000000000E+01 0. -1.
        -11    1    4    4    0    0  0.48068412461E+02 -0.19909002922E+02 -0.94056485005E+00  0.52036769078E+02  0.00000000000E+00 0.  1.
         12    1    4    4    0    0  0.38300434824E+02 -0.16156300971E+03  0.51987701602E+01  0.16612211359E+03  0.00000000000E+00 0. -1.
         -5    1    5    5    0  502 -0.38299578178E+02  0.61903914061E+02  0.13258349826E+03  0.15132556385E+03  0.47000000000E+01 0.  1.
         13    1    6    6    0    0 -0.75741876261E+02  0.62936886356E+02  0.60203677927E+01  0.98661686141E+02  0.00000000000E+00 0. -1.
        -14    1    6    6    0    0  0.18058818706E+02  0.32411407625E+02  0.96468841390E+01  0.38336440248E+02  0.00000000000E+00 0.  1.
</event>
<event>
12    1  0.1593360E-001  0.1810867E+03  0.7818608E-02  0.1167113E+00
         21   -1    0    0  503  502  0.00000000000E+00  0.00000000000E+00  0.57440123773E+03  0.57440123773E+03  0.00000000000E+00 0.  1.
         21   -1    0    0  501  503 -0.00000000000E+00 -0.00000000000E+00 -0.58476204863E+02  0.58476204863E+02  0.00000000000E+00 0.  1.
          6    2    1    2  501    0 -0.50745127107E+02 -0.26520543326E+02  0.31327013188E+03  0.36110286988E+03  0.17023131311E+03 0.  0.
         24    2    3    3    0    0 -0.16543364812E+01  0.28182210440E+02  0.75686517264E+02  0.11236533566E+03  0.78105991761E+02 0.  0.
         -6    2    1    2    0  502  0.50745127107E+02  0.26520543326E+02  0.20265490099E+03  0.27177457271E+03  0.17179639791E+03 0.  0.
        -24    2    5    5    0    0  0.75212903516E+02  0.40960636047E+02  0.21145921240E+03  0.24166154796E+03  0.79690342535E+02 0.  0.
          5    1    3    3  501    0 -0.49090790626E+02 -0.54702753767E+02  0.23758361461E+03  0.24873753421E+03  0.47000000000E+01 0. -1.
        -13    1    4    4    0    0  0.44295157381E+01  0.51930524927E+02  0.69873152236E+02  0.87170278376E+02  0.00000000000E+00 0.  1.
         14    1    4    4    0    0 -0.60838522193E+01 -0.23748314487E+02  0.58133650281E+01  0.25195057288E+02  0.00000000000E+00 0. -1.
         -5    1    5    5    0  502 -0.24467776408E+02 -0.14440092720E+02 -0.88043114134E+01  0.30113024750E+02  0.47000000000E+01 0.  1.
         11    1    6    6    0    0  0.66431135592E+01  0.11384086531E+02  0.13185797322E+03  0.13251510663E+03  0.00000000000E+00 0. -1.
        -12    1    6    6    0    0  0.68569789956E+02  0.29576549516E+02  0.79601239184E+02  0.10914644133E+03  0.00000000000E+00 0.  1.
</event>
<event>
12    1  0.1593360E-001  0.1794872E+03  0.7818608E-02  0.1168604E+00
         21   -1    0    0  503  502  0.00000000000E+00  0.00000000000E+00  0.58250832658E+02  0.58250832658E+02  0.00000000000E+00 0.  1.
         21   -1    0    0  501  503 -0.00000000000E+00 -0.00000000000E+00 -0.60354342393E+03  0.60354342393E+03  0.00000000000E+00 0.  1.
          6    2    1    2  501    0  0.38510173680E+00  0.49652319132E+02 -0.37105264684E+03  0.41164386979E+03  0.17118734681E+03 0.  0.
         24    2    3    3    0    0 -0.24701895691E+02  0.59709976344E+02 -0.11703947155E+03  0.15615356248E+03  0.80686010240E+02 0.  0.
         -6    2    1    2    0  502 -0.38510173680E+00 -0.49652319132E+02 -0.17423994443E+03  0.25015038680E+03  0.17248233730E+03 0.  0.
        -24    2    5    5    0    0 -0.22243517347E+01 -0.99164297633E+02 -0.13843551396E+03  0.18884079459E+03  0.81596253037E+02 0.  0.
          5    1    3    3  501    0  0.25086997428E+02 -0.10057657211E+02 -0.25401317529E+03  0.25549030731E+03  0.47000000000E+01 0. -1.
        -11    1    4    4    0    0 -0.44440064980E+02  0.16975470663E+02 -0.90176429330E+02  0.10195525679E+03  0.00000000000E+00 0.  1.
         12    1    4    4    0    0  0.19738169289E+02  0.42734505680E+02 -0.26863042221E+02  0.54198305693E+02  0.00000000000E+00 0. -1.
         -5    1    5    5    0  502  0.18392499979E+01  0.49511978501E+02 -0.35804430468E+02  0.61309592209E+02  0.47000000000E+01 0.  1.
         11    1    6    6    0    0 -0.73582693188E+01 -0.86967315810E+02 -0.14847683691E+03  0.17222900234E+03  0.00000000000E+00 0. -1.
        -12    1    6    6    0    0  0.51339175841E+01 -0.12196981823E+02  0.10041322948E+02  0.16611792254E+02  0.00000000000E+00 0.  1.
</event>
<event>
12    1  0.1593360E-001  0.2311637E+03  0.7818608E-02  0.1126159E+00
         21   -1    0    0  503  502  0.00000000000E+00  0.00000000000E+00  0.25942284514E+03  0.25942284514E+03  0.00000000000E+00 0.  1.
         21   -1    0    0  501  503 -0.00000000000E+00 -0.00000000000E+00 -0.27703675276E+03  0.27703675276E+03  0.00000000000E+00 0. -1.
          6    2    1    2  501    0 -0.30232210504E+02  0.15111878098E+03 -0.14628874615E+03  0.27356365214E+03  0.17229568192E+03 0.  0.
         24    2    3    3    0    0 -0.50436744524E+02  0.88088961842E+02 -0.19895504195E+02  0.13081098874E+03  0.80075922051E+02 0.  0.
         -6    2    1    2    0  502  0.30232210504E+02 -0.15111878098E+03  0.12867483854E+03  0.26289594575E+03  0.16972386899E+03 0.  0.
        -24    2    5    5    0    0 -0.22107519435E+02 -0.18397419351E+02  0.61798643450E+02  0.10526053529E+03  0.80209104869E+02 0.  0.
          5    1    3    3  501    0  0.20204534020E+02  0.63029819133E+02 -0.12639324196E+03  0.14275266340E+03  0.47000000000E+01 0. -1.
        -13    1    4    4    0    0 -0.30756472979E+02 -0.13340247411E+01 -0.24182641939E+02  0.39147674557E+02  0.00000000000E+00 0.  1.
         14    1    4    4    0    0 -0.19680271545E+02  0.89422986583E+02  0.42871377446E+01  0.91663314186E+02  0.00000000000E+00 0. -1.
         -5    1    5    5    0  502  0.52339729939E+02 -0.13272136162E+03  0.66876195086E+02  0.15763541046E+03  0.47000000000E+01 0.  1.
         11    1    6    6    0    0  0.41453184256E+01 -0.43159999334E+02  0.14401007547E+02  0.45687615671E+02  0.00000000000E+00 0. -1.
        -12    1    6    6    0    0 -0.26252837861E+02  0.24762579983E+02  0.47397635904E+02  0.59572919623E+02  0.00000000000E+00 0.  1.
</event>
<event>
12    1  0.1593360E-001  0.2445969E+03  0.7818608E-02  0.1116874E+00
         21   -1    0    0  503  502  0.00000000000E+00  0.00000000000E+00  0.27879824865E+04  0.27879824865E+04  0.00000000000E+00 0. -1.
         21   -1    0    0  501  503 -0.00000000000E+00 -0.00000000000E+00 -0.44119951181E+02  0.44119951181E+02  0.00000000000E+00 0.  1.
          6    2    1    2  501    0  0.72298680545E+02 -0.15781969058E+03  0.35669590032E+03  0.43250387450E+03  0.17231796832E+03 0.  0.
         24    2    3    3    0    0  0.56311511140E+02 -0.93798501314E+02  0.99945490017E+02  0.16736774823E+03  0.77805636281E+02 0.  0.
         -6    2    1    2    0  502 -0.72298680545E+02  0.15781969058E+03  0.23871666350E+04  0.23995985632E+04  0.17139010252E+03 0.  0.
        -24    2    5    5    0    0 -0.46073238708E+02  0.82498312529E+02  0.20218818998E+04  0.20256786365E+04  0.80242175927E+02 0.  0.
          5    1    3    3  501    0  0.15987169406E+02 -0.64021189271E+02  0.25675041030E+03  0.26513612627E+03  0.47000000000E+01 0. -1.
        -11    1    4    4    0    0  0.30587508739E+02  0.46604651162E+01  0.34666757444E+02  0.46466113434E+02  0.00000000000E+00 0.  1.
         12    1    4    4    0    0  0.25724002401E+02 -0.98458966430E+02  0.65278732573E+02  0.12090163480E+03  0.00000000000E+00 0. -1.
         -5    1    5    5    0  502 -0.26225441838E+02  0.75321378056E+02  0.36528473521E+03  0.37391992668E+03  0.47000000000E+01 0.  1.
         13    1    6    6    0    0  0.19793863428E+02  0.22884338401E+01  0.37590163833E+03  0.37642937672E+03  0.00000000000E+00 0. -1.
        -14    1    6    6    0    0 -0.65867102136E+02  0.80209878689E+02  0.16459802614E+04  0.16492492598E+04  0.00000000000E+00 0.  1.
</event>
<event>
12    1  0.1593360E-001  0.1967305E+03  0.7818608E-02  0.1152552E+00
         21   -1    0    0  501  502  0.00000000000E+00  0.00000000000E+00  0.28747799993E+03  0.28747799993E+03  0.00000000000E+00 0. -1.
         21   -1    0    0  502  503 -0.00000000000E+00 -0.00000000000E+00 -0.20254276358E+03  0.20254276358E+03  0.00000000000E+00 0.  1.
         -6    2    1    2    0  503  0.77740346701E+02 -0.52202183357E+02 -0.99496076880E+02  0.22035841441E+03  0.17288647152E+03 0.  0.
        -24    2    3    3    0    0  0.34674025830E+02 -0.99401232997E+02 -0.46221384163E+02  0.13703530138E+03  0.74561144591E+02 0.  0.
          6    2    1    2  501    0 -0.77740346701E+02  0.52202183357E+02  0.18443131323E+03  0.26966234910E+03  0.17301515474E+03 0.  0.
         24    2    5    5    0    0 -0.11081671560E+03  0.61659146651E+02  0.10673025304E+03  0.18455638521E+03  0.81163523749E+02 0.  0.
          5    1    5    5  501    0  0.33076368897E+02 -0.94569632942E+01  0.77701060196E+02  0.85105963891E+02  0.47000000000E+01 0. -1.
        -13    1    6    6    0    0 -0.57547663862E+02  0.20481587156E+02  0.33388079312E+01  0.61174967649E+02  0.00000000000E+00 0.  1.
         14    1    6    6    0    0 -0.53269051735E+02  0.41177559495E+02  0.10339144510E+03  0.12338141756E+03  0.00000000000E+00 0. -1.
         -5    1    3    3    0  503  0.43066320871E+02  0.47199049640E+02 -0.53274692717E+02  0.83323113026E+02  0.47000000000E+01 0.  1.
         11    1    4    4    0    0 -0.79419366804E+01  0.22531780837E+01  0.10269836039E+02  0.13176520860E+02  0.00000000000E+00 0. -1.
        -12    1    4    4    0    0  0.42615962510E+02 -0.10165441108E+03 -0.56491220201E+02  0.12385878052E+03  0.00000000000E+00 0.  1.
</event>
<event>
12    1  0.1593360E-001  0.5104194E+03  0.7818608E-02  0.1011096E+00
         21   -1    0    0  501  502  0.00000000000E+00  0.00000000000E+00  0.98895985413E+03  0.98895985413E+03  0.00000000000E+00 0.  1.
         21   -1    0    0  502  503 -0.00000000000E+00 -0.00000000000E+00 -0.55478735878E+03  0.55478735878E+03  0.00000000000E+00 0. -1.
         -6    2    1    2    0  503  0.16578820540E+02 -0.48030101070E+03 -0.34229005190E+03  0.61454213804E+03  0.17185936584E+03 0.  0.
        -24    2    3    3    0    0  0.48841863300E+02 -0.21100169473E+03 -0.98260069336E+02  0.24966442167E+03  0.75960775631E+02 0.  0.
          6    2    1    2  501    0 -0.16578820540E+02  0.48030101070E+03  0.77646254725E+03  0.92920507487E+03  0.17194204173E+03 0.  0.
         24    2    5    5    0    0  0.28209343127E+02  0.44548907563E+03  0.69549983419E+03  0.83023588101E+03  0.79468957518E+02 0.  0.
          5    1    5    5  501    0 -0.44788163667E+02  0.34811935069E+02  0.80962713057E+02  0.98969193861E+02  0.47000000000E+01 0. -1.
        -13    1    6    6    0    0  0.48937775127E+02  0.31768469728E+03  0.45477899557E+03  0.55690430734E+03  0.00000000000E+00 0.  1.
         14    1    6    6    0    0 -0.20728432000E+02  0.12780437835E+03  0.24072083862E+03  0.27333157367E+03  0.00000000000E+00 0. -1.
         -5    1    3    3    0  503 -0.32263042760E+02 -0.26929931597E+03 -0.24402998257E+03  0.36487771637E+03  0.47000000000E+01 0.  1.
         11    1    4    4    0    0  0.32931718489E+02 -0.20031994244E+03 -0.10597673909E+03  0.22900577864E+03  0.00000000000E+00 0. -1.
        -12    1    4    4    0    0  0.15910144811E+02 -0.10681752283E+02  0.77166697538E+01  0.20658643030E+02  0.00000000000E+00 0.  1.
</event>
<event>
12    1  0.1593360E-001  0.2037416E+03  0.7818608E-02  0.1146746E+00
         21   -1    0    0  503  502  0.00000000000E+00  0.00000000000E+00  0.71921556450E+03  0.71921556450E+03  0.00000000000E+00 0.  1.
         21   -1    0    0  501  503 -0.00000000000E+00 -0.00000000000E+00 -0.14208064912E+03  0.14208064912E+03  0.00000000000E+00 0. -1.
          6    2    1    2  501    0  0.20968576433E+02  0.10558299910E+03 -0.43441145327E+02  0.20832128145E+03  0.17298315611E+03 0.  0.
         24    2    3    3    0    0  0.23141999808E+02 -0.21847944087E+02  0.38348173210E+01  0.72304827678E+02  0.64810473427E+02 0.  0.
         -6    2    1    2    0  502 -0.20968576433E+02 -0.10558299910E+03  0.62057606071E+03  0.65297493217E+03  0.17226190530E+03 0.  0.
        -24    2    5    5    0    0 -0.18746509064E+01  0.15061867093E+02  0.29367754029E+03  0.30396992593E+03  0.76947020984E+02 0.  0.
          5    1    3    3  501    0 -0.21734233744E+01  0.12743094319E+03 -0.47275962648E+02  0.13601645377E+03  0.47000000000E+01 0. -1.
        -11    1    4    4    0    0 -0.18832201357E+02 -0.21098690530E+02 -0.66122767919E+01  0.29043566489E+02  0.00000000000E+00 0.  1.
         12    1    4    4    0    0  0.41974201164E+02 -0.74925355623E+00  0.10447094113E+02  0.43261261189E+02  0.00000000000E+00 0. -1.
         -5    1    5    5    0  502 -0.19093925527E+02 -0.12064486620E+03  0.32689852042E+03  0.34900500624E+03  0.47000000000E+01 0.  1.
         13    1    6    6    0    0 -0.38371890315E+02 -0.94225192071E+00  0.15478491815E+03  0.15947307199E+03  0.00000000000E+00 0. -1.
        -14    1    6    6    0    0  0.36497239409E+02  0.16004119014E+02  0.13889262215E+03  0.14449685393E+03  0.00000000000E+00 0.  1.
</event>
<event>
12    1  0.1593360E-001  0.2057389E+03  0.7818608E-02  0.1145109E+00
         21   -1    0    0  503  502  0.00000000000E+00  0.00000000000E+00  0.37311469255E+02  0.37311469255E+02  0.00000000000E+00 0.  1.
         21   -1    0    0  501  503 -0.00000000000E+00 -0.00000000000E+00 -0.14756076488E+04  0.14756076488E+04  0.00000000000E+00 0.  1.
          6    2    1    2  501    0  0.74854979970E+02 -0.81222088991E+02 -0.10838346780E+04  0.11030759293E+04  0.17285427648E+03 0.  0.
         24    2    3    3    0    0  0.27514853379E+02 -0.89000917181E+02 -0.98921525179E+03  0.99688495247E+03  0.80960259775E+02 0.  0.
         -6    2    1    2    0  502 -0.74854979970E+02  0.81222088991E+02 -0.35446150157E+03  0.40984318874E+03  0.17357473172E+03 0.  0.
        -24    2    5    5    0    0 -0.14843716619E+02 -0.14457363850E+02 -0.20682962009E+03  0.22390456485E+03  0.83219055025E+02 0.  0.
          5    1    3    3  501    0  0.47340126591E+02  0.77788281899E+01 -0.94619426191E+02  0.10619097686E+03  0.47000000000E+01 0. -1.
        -13    1    4    4    0    0 -0.21378563230E+02 -0.64929713968E+02 -0.50256765394E+03  0.50719538396E+03  0.00000000000E+00 0.  1.
         14    1    4    4    0    0  0.48893416609E+02 -0.24071203213E+02 -0.48664759785E+03  0.48968956851E+03  0.00000000000E+00 0. -1.
         -5    1    5    5    0  502 -0.60011263351E+02  0.95679452841E+02 -0.14763188148E+03  0.18593862389E+03  0.47000000000E+01 0.  1.
         13    1    6    6    0    0 -0.40173098086E+02  0.17696842987E+02 -0.90527166688E+02  0.10060926384E+03  0.00000000000E+00 0. -1.
        -14    1    6    6    0    0  0.25329381468E+02 -0.32154206838E+02 -0.11630245340E+03  0.12329530101E+03  0.00000000000E+00 0.  1.
</event>
<event>
12    1  0.1593360E-001  0.2025570E+03  0.7818608E-02  0.1147788E+00
         21   -1    0    0  503  502  0.00000000000E+00  0.00000000000E+00  0.10662564503E+03  0.10662564503E+03  0.00000000000E+00 0. -1.
         21   -1    0    0  501  503 -0.00000000000E+00 -0.00000000000E+00 -0.54026750394E+03  0.54026750394E+03  0.00000000000E+00 0. -1.
          6    2    1    2  501    0  0.63963577748E+02 -0.82680812619E+02 -0.39163102177E+03  0.44091289331E+03  0.17349889401E+03 0.  0.
         24    2    3    3    0    0  0.96943083715E+02 -0.15726774448E+02 -0.28225037072E+03  0.30841116553E+03  0.76202902410E+02 0.  0.
         -6    2    1    2    0  502 -0.63963577748E+02  0.82680812619E+02 -0.42010837142E+02  0.20598025567E+03  0.17243984236E+03 0.  0.
        -24    2    5    5    0    0 -0.74402657979E+02 -0.75382343951E+01 -0.33231254279E+02  0.11461493448E+03  0.80247656995E+02 0.  0.
          5    1    3    3  501    0 -0.32979505968E+02 -0.66954038171E+02 -0.10938065105E+03  0.13250172778E+03  0.47000000000E+01 0. -1.
        -13    1    4    4    0    0  0.55993362107E+01  0.13544102000E+02 -0.57457454576E+01  0.15741945746E+02  0.00000000000E+00 0.  1.
         14    1    4    4    0    0  0.91343747505E+02 -0.29270876448E+02 -0.27650462526E+03  0.29266921978E+03  0.00000000000E+00 0. -1.
         -5    1    5    5    0  502  0.10439080231E+02  0.90219047014E+02 -0.87795828637E+01  0.91365321186E+02  0.47000000000E+01 0.  1.
         13    1    6    6    0    0  0.32705500912E+01 -0.19983382951E+02 -0.29604809003E+02  0.35867489572E+02  0.00000000000E+00 0. -1.
        -14    1    6    6    0    0 -0.77673208070E+02  0.12445148556E+02 -0.36264452760E+01  0.78747444910E+02  0.00000000000E+00 0.  1.
</event>
<event>
12    1  0.1593360E-001  0.1872427E+03  0.7818608E-02  0.1161039E+00
         21   -1    0    0  503  502  0.00000000000E+00  0.00000000000E+00  0.87109746488E+03  0.87109746488E+03  0.00000000000E+00 0.  1.
         21   -1    0    0  501  503 -0.00000000000E+00 -0.00000000000E+00 -0.46421281612E+02  0.46421281612E+02  0.00000000000E+00 0.  1.
          6    2    1    2  501    0 -0.58831008364E+02  0.42258760768E+02  0.58076667167E+03  0.61020467602E+03  0.17266420967E+03 0.  0.
         24    2    3    3    0    0  0.35999256563E+02  0.33279683447E+02  0.25369828216E+03  0.26951533895E+03  0.76630384010E+02 0.  0.
         -6    2    1    2    0  502  0.58831008364E+02 -0.42258760768E+02  0.24390951159E+03  0.30731407047E+03  0.17234615649E+03 0.  0.
        -24    2    5    5    0    0  0.78504470149E+02 -0.15406858188E+01  0.23529572942E+03  0.26103995276E+03  0.81316979219E+02 0.  0.
          5    1    3    3  501    0 -0.94830264927E+02  0.89790773214E+01  0.32706838951E+03  0.34068933707E+03  0.47000000000E+01 0. -1.
        -11    1    4    4    0    0  0.26054744004E+02  0.98818353824E+01  0.23802140317E+03  0.23964700858E+03  0.00000000000E+00 0.  1.
         12    1    4    4    0    0  0.99445125588E+01  0.23397848064E+02  0.15676878997E+02  0.29868330371E+02  0.00000000000E+00 0. -1.
         -5    1    5    5    0  502 -0.19673461785E+02 -0.40718074949E+02  0.86137821709E+01  0.46274117706E+02  0.47000000000E+01 0.  1.
         11    1    6    6    0    0  0.62472582059E+02 -0.36514164499E+01  0.65917292743E+02  0.90891395818E+02  0.00000000000E+00 0. -1.
        -12    1    6    6    0    0  0.16031888090E+02  0.21107306311E+01  0.16937843668E+03  0.17014855695E+03  0.00000000000E+00 0.  1.
</event>
<event>
12    1  0.1593360E-001  0.2342708E+03  0.7818608E-02  0.1123825E+00
         21   -1    0    0  501  502  0.00000000000E+00  0.00000000000E+00  0.17702987897E+03  0.17702987897E+03  0.00000000000E+00 0.  1.
         21   -1    0    0  502  503 -0.00000000000E+00 -0.00000000000E+00 -0.36983748885E+03  0.36983748885E+03  0.00000000000E+00 0. -1.
         -6    2    1    2    0  503 -0.15499765447E+03 -0.33351605854E+02 -0.20730632304E+03  0.31214836333E+03  0.17124277110E+03 0.  0.
        -24    2    3    3    0    0 -0.13958148733E+03  0.30870228831E+02 -0.17300231697E+03  0.23757653828E+03  0.77954135412E+02 0.  0.
          6    2    1    2  501    0  0.15499765447E+03  0.33351605854E+02  0.14498713171E+02  0.23471900449E+03  0.17247085517E+03 0.  0.
         24    2    5    5    0    0  0.19908808599E+02  0.51848775956E+02  0.32016011902E+02  0.97168696113E+02  0.73021053527E+02 0.  0.
          5    1    5    5  501    0  0.13508884587E+03 -0.18497170102E+02 -0.17517298731E+02  0.13755030838E+03  0.47000000000E+01 0. -1.
        -13    1    6    6    0    0  0.44299063043E+02  0.13604612890E+02  0.17649303368E+02  0.49588208152E+02  0.00000000000E+00 0.  1.
         14    1    6    6    0    0 -0.24390254444E+02  0.38244163066E+02  0.14366708534E+02  0.47580487961E+02  0.00000000000E+00 0. -1.
         -5    1    3    3    0  503 -0.15416167135E+02 -0.64221834685E+02 -0.34304006073E+02  0.74571825055E+02  0.47000000000E+01 0.  1.
         11    1    4    4    0    0 -0.98555753858E+02 -0.15080669834E+02 -0.90787343480E+02  0.13484437310E+03  0.00000000000E+00 0. -1.
        -12    1    4    4    0    0 -0.41025733474E+02  0.45950898664E+02 -0.82214973492E+02  0.10273216517E+03  0.00000000000E+00 0.  1.
</event>
<event>
12    1  0.1593360E-001  0.2321395E+03  0.7818608E-02  0.1125817E+00
         21   -1    0    0  503  502  0.00000000000E+00  0.00000000000E+00  0.68732939602E+03  0.68732939602E+03  0.00000000000E+00 0. -1.
         21   -1    0    0  501  503 -0.00000000000E+00 -0.00000000000E+00 -0.77869677816E+02  0.77869677816E+02  0.00000000000E+00 0. -1.
          6    2    1    2  501    0 -0.11970034217E+03 -0.91289574482E+02  0.26443434789E+03  0.34934903102E+03  0.17163118251E+03 0.  0.
         24    2    3    3    0    0 -0.82214991650E+01 -0.66040179582E+02  0.83731116156E+02  0.13547801303E+03  0.83153435492E+02 0.  0.
         -6    2    1    2    0  502  0.11970034217E+03  0.91289574482E+02  0.34502537032E+03  0.41585004281E+03  0.17671104555E+03 0.  0.
        -24    2    5    5    0    0  0.54696437695E+02 -0.23609315931E+02  0.16736755491E+03  0.19446428900E+03  0.79090841220E+02 0.  0.
          5    1    3    3  501    0 -0.11147884300E+03 -0.25249394900E+02  0.18070323173E+03  0.21387101799E+03  0.47000000000E+01 0. -1.
        -13    1    4    4    0    0  0.23834125183E+02 -0.89409591321E+01 -0.42447340292E+01  0.25807441571E+02  0.00000000000E+00 0.  1.
         14    1    4    4    0    0 -0.32055624348E+02 -0.57099220450E+02  0.87975850186E+02  0.10967057146E+03  0.00000000000E+00 0. -1.
         -5    1    5    5    0  502  0.65003904474E+02  0.11489889041E+03  0.17765781541E+03  0.22138575381E+03  0.47000000000E+01 0.  1.
         13    1    6    6    0    0  0.10030217930E+02  0.68122273928E+01 -0.55236160579E+01  0.13323740020E+02  0.00000000000E+00 0. -1.
        -14    1    6    6    0    0  0.44666219765E+02 -0.30421543324E+02  0.17289117097E+03  0.18114054898E+03  0.00000000000E+00 0.  1.
</event>
<event>
12    1  0.1593360E-001  0.1719531E+03  0.7818608E-02  0.1178422E+00
         21   -1    0    0  501  502  0.00000000000E+00  0.00000000000E+00  0.10791525417E+03  0.10791525417E+03  0.00000000000E+00 0.  1.
         21   -1    0    0  502  503 -0.00000000000E+00 -0.00000000000E+00 -0.48177774453E+03  0.48177774453E+03  0.00000000000E+00 0.  1.
         -6    2    1    2    0  503  0.78686159411E+00 -0.71608962254E+01 -0.39049971165E+03  0.42668241608E+03  0.17180210071E+03 0.  0.
        -24    2    3    3    0    0  0.57567219834E+02  0.27922181006E+02 -0.21706266755E+03  0.24078639769E+03  0.82269403022E+02 0.  0.
          6    2    1    2  501    0 -0.78686159411E+00  0.71608962254E+01  0.16637221296E+02  0.16301058262E+03  0.16199924484E+03 0.  0.
         24    2    5    5    0    0 -0.52731528910E+02  0.18816697028E+02 -0.18027171770E+02  0.99309591253E+02  0.80017084205E+02 0.  0.
          5    1    5    5  501    0  0.51944667316E+02 -0.11655800803E+02  0.34664393066E+02  0.63700991370E+02  0.47000000000E+01 0. -1.
        -13    1    6    6    0    0  0.32017377244E+01  0.38215159458E+02 -0.47994762089E+01  0.38648214819E+02  0.00000000000E+00 0.  1.
         14    1    6    6    0    0 -0.55933266634E+02 -0.19398462430E+02 -0.13227695561E+02  0.60661376434E+02  0.00000000000E+00 0. -1.
         -5    1    3    3    0  503 -0.56780358240E+02 -0.35083077232E+02 -0.17343704410E+03  0.18589601839E+03  0.47000000000E+01 0.  1.
         13    1    4    4    0    0  0.25915144390E+02  0.56098355873E+02 -0.12511345397E+03  0.13954209617E+03  0.00000000000E+00 0. -1.
        -14    1    4    4    0    0  0.31652075443E+02 -0.28176174866E+02 -0.91949213587E+02  0.10124430152E+03  0.00000000000E+00 0.  1.
</event>
<event>
12    1  0.1593360E-001  0.2321981E+03  0.7818608E-02  0.1125204E+00
         21   -1    0    0  503  502  0.00000000000E+00  0.00000000000E+00  0.15085623650E+03  0.15085623650E+03  0.00000000000E+00 0. -1.
         21   -1    0    0  501  503 -0.00000000000E+00 -0.00000000000E+00 -0.41082486612E+03  0.41082486612E+03  0.00000000000E+00 0.  1.
          6    2    1    2  501    0  0.15329336330E+03  0.24471590433E+02 -0.23196384801E+03  0.32780032679E+03  0.17189564710E+03 0.  0.
         24    2    3    3    0    0  0.11786853702E+03 -0.18591500161E+02 -0.23339283991E+03  0.27182283036E+03  0.71949965156E+02 0.  0.
         -6    2    1    2    0  502 -0.15329336330E+03 -0.24471590433E+02 -0.28004781608E+02  0.23388077583E+03  0.17267957476E+03 0.  0.
        -24    2    5    5    0    0 -0.71698908248E+02 -0.38216725167E+02  0.45745829790E+02  0.12294013177E+03  0.80127046177E+02 0.  0.
          5    1    3    3  501    0  0.35424826276E+02  0.43063090594E+02  0.14289919048E+01  0.55977496425E+02  0.47000000000E+01 0. -1.
        -11    1    4    4    0    0  0.71350664677E+02 -0.37615923482E+02 -0.95203318805E+02  0.12477799069E+03  0.00000000000E+00 0.  1.
         12    1    4    4    0    0  0.46517872343E+02  0.19024423321E+02 -0.13818952111E+03  0.14704483967E+03  0.00000000000E+00 0. -1.
         -5    1    5    5    0  502 -0.81594455048E+02  0.13745134735E+02 -0.73750611398E+02  0.11094064406E+03  0.47000000000E+01 0.  1.
         13    1    6    6    0    0 -0.12400836201E+02  0.20648236104E+02  0.29045775595E+02  0.37733108441E+02  0.00000000000E+00 0. -1.
        -14    1    6    6    0    0 -0.59298072047E+02 -0.58864961271E+02  0.16700054195E+02  0.85207023326E+02  0.00000000000E+00 0.  1.
</event>
<event>
12    1  0.1593360E-001  0.2864460E+03  0.7818608E-02  0.1092376E+00
         21   -1    0    0  501  502  0.00000000000E+00  0.00000000000E+00  0.31481435906E+03  0.31481435906E+03  0.00000000000E+00 0.  1.
         21   -1    0    0  502  503 -0.00000000000E+00 -0.00000000000E+00 -0.29696729202E+03  0.29696729202E+03  0.00000000000E+00 0.  1.
         -6    2    1    2    0  503  0.10469902615E+02 -0.22900926591E+03 -0.99651059664E+02  0.30217360182E+03  0.16977540814E+03 0.  0.
        -24    2    3    3    0    0 -0.14700778181E+01 -0.10212578059E+03 -0.11537396789E+03  0.17367736910E+03  0.80130143398E+02 0.  0.
          6    2    1    2  501    0 -0.10469902615E+02  0.22900926591E+03  0.11749812670E+03  0.30960804926E+03  0.17174536865E+03 0.  0.
         24    2    5    5    0    0  0.22318791315E+02  0.18315299160E+03  0.14458582012E+03  0.24688859870E+03  0.77496929049E+02 0.  0.
          5    1    5    5  501    0 -0.32788693930E+02  0.45856274314E+02 -0.27087693417E+02  0.62719450558E+02  0.47000000000E+01 0. -1.
        -13    1    6    6    0    0  0.23326708347E+02  0.97152126995E+02  0.31396299895E+02  0.10473012341E+03  0.00000000000E+00 0.  1.
         14    1    6    6    0    0 -0.10079170316E+01  0.86000864603E+02  0.11318952022E+03  0.14215847529E+03  0.00000000000E+00 0. -1.
         -5    1    3    3    0  503  0.11939980433E+02 -0.12688348532E+03  0.15722908221E+02  0.12849623272E+03  0.47000000000E+01 0.  1.
         13    1    4    4    0    0  0.25783764442E+02 -0.25812007305E+01 -0.16302830693E+02  0.30614496478E+02  0.00000000000E+00 0. -1.
        -14    1    4    4    0    0 -0.27253842260E+02 -0.99544579863E+02 -0.99071137192E+02  0.14306287262E+03  0.00000000000E+00 0.  1.
</event>
<event>
12    1  0.1593360E-001  0.1810529E+03  0.7818608E-02  0.1167136E+00
         21   -1    0    0  503  502  0.00000000000E+00  0.00000000000E+00  0.56990695869E+02  0.56990695869E+02  0.00000000000E+00 0.  1.
         21   -1    0    0  501  503 -0.00000000000E+00 -0.00000000000E+00 -0.81073386323E+03  0.81073386323E+03  0.00000000000E+00 0.  1.
          6    2    1    2  501    0 -0.51938096991E+02  0.12247729133E+02 -0.61405314836E+03  0.64018858816E+03  0.17301036559E+03 0.  0.
         24    2    3    3    0    0 -0.67812188593E+02  0.60164993953E+02 -0.33116625662E+03  0.35279489551E+03  0.81085321458E+02 0.  0.
         -6    2    1    2    0  502  0.51938096991E+02 -0.12247729133E+02 -0.13969001900E+03  0.22753597094E+03  0.17149852442E+03 0.  0.
        -24    2    5    5    0    0 -0.33349636181E+02 -0.12069634768E+02 -0.10390011520E+03  0.13492368039E+03  0.78430168141E+02 0.  0.
          5    1    3    3  501    0  0.15874091602E+02 -0.47917264821E+02 -0.28288689175E+03  0.28739369265E+03  0.47000000000E+01 0. -1.
        -11    1    4    4    0    0 -0.46510061812E+02  0.79755965830E+02 -0.26318625674E+03  0.27891074857E+03  0.00000000000E+00 0.  1.
         12    1    4    4    0    0 -0.21302126781E+02 -0.19590971876E+02 -0.67979999879E+02  0.73884146933E+02  0.00000000000E+00 0. -1.
         -5    1    5    5    0  502  0.85287733172E+02 -0.17809436433E+00 -0.35789903796E+02  0.92612290550E+02  0.47000000000E+01 0.  1.
         11    1    6    6    0    0  0.11412877548E+02  0.44490762039E+01 -0.81140969498E+02  0.82060374018E+02  0.00000000000E+00 0. -1.
        -12    1    6    6    0    0 -0.44762513729E+02 -0.16518710972E+02 -0.22759145703E+02  0.52863306373E+02  0.00000000000E+00 0.  1.
</event>
<event>
12    1  0.1593360E-001  0.2157311E+03  0.7818608E-02  0.1137718E+00
         21   -1    0    0  503  502  0.00000000000E+00  0.00000000000E+00  0.17939397402E+03  0.17939397402E+03  0.00000000000E+00 0.  1.
         21   -1    0    0  501  503 -0.00000000000E+00 -0.00000000000E+00 -0.26234754681E+03  0.26234754681E+03  0.00000000000E+00 0. -1.
          6    2    1    2  501    0 -0.11083777316E+03 -0.81392814334E+02 -0.77128820700E+02  0.22910422981E+03  0.16622301571E+03 0.  0.
         24    2    3    3    0    0 -0.13135013145E+03 -0.83960685492E+02 -0.33497091179E+02  0.18059476037E+03  0.84794803000E+02 0.  0.
         -6    2    1    2    0  502  0.11083777316E+03  0.81392814334E+02 -0.58247520902E+01  0.21263729102E+03  0.16208296521E+03 0.  0.
        -24    2    5    5    0    0  0.34534927349E+02  0.99516171778E+02 -0.37015666257E+01  0.13404226395E+03  0.82810007101E+02 0.  0.
          5    1    3    3  501    0  0.20512358284E+02  0.25678711575E+01 -0.43631729521E+02  0.48509469443E+02  0.47000000000E+01 0. -1.
        -11    1    4    4    0    0 -0.43247925072E+02 -0.73604055866E+02  0.11041329355E+01  0.85376572738E+02  0.00000000000E+00 0.  1.
         12    1    4    4    0    0 -0.88102206377E+02 -0.10356629626E+02 -0.34601224114E+02  0.95218187632E+02  0.00000000000E+00 0. -1.
         -5    1    5    5    0  502  0.76302845816E+02 -0.18123357444E+02 -0.21231854646E+01  0.78595027076E+02  0.47000000000E+01 0.  1.
         11    1    6    6    0    0  0.20055799964E+02 -0.42014394940E+01 -0.19317244808E+02  0.28161021874E+02  0.00000000000E+00 0. -1.
        -12    1    6    6    0    0  0.14479127385E+02  0.10371761127E+03  0.15615678182E+02  0.10588124207E+03  0.00000000000E+00 0.  1.
</event>
<event>
12    1  0.1593360E-001  0.1728929E+03  0.7818608E-02  0.1175028E+00
         21   -1    0    0  501  502  0.00000000000E+00  0.00000000000E+00  0.59284194741E+03  0.59284194741E+03  0.00000000000E+00 0. -1.
         21   -1    0    0  502  503 -0.00000000000E+00 -0.00000000000E+00 -0.58195393924E+02  0.58195393924E+02  0.00000000000E+00 0. -1.
         -6    2    1    2    0  503 -0.89210058575E+01 -0.29946052744E+00  0.14649795174E+03  0.22612405487E+03  0.17201966255E+03 0.  0.
        -24    2    3    3    0    0  0.34304387515E+02 -0.30270352327E+02  0.14624718441E+03  0.17331456830E+03  0.80972930078E+02 0.  0.
          6    2    1    2  501    0  0.89210058575E+01  0.29946052744E+00  0.38814860175E+03  0.42491328647E+03  0.17266235825E+03 0.  0.
         24    2    5    5    0    0 -0.12157910715E+02 -0.45555209098E+01  0.74974408038E+02  0.11095778456E+03  0.80758284598E+02 0.  0.
          5    1    5    5  501    0  0.21078916573E+02  0.48549814373E+01  0.31317419371E+03  0.31395550190E+03  0.47000000000E+01 0. -1.
        -13    1    6    6    0    0 -0.23139256486E+02 -0.38182841154E+02  0.30228889914E+02  0.53917903657E+02  0.00000000000E+00 0.  1.
         14    1    6    6    0    0  0.10981345771E+02  0.33627320245E+02  0.44745518124E+02  0.57039880908E+02  0.00000000000E+00 0. -1.
         -5    1    3    3    0  503 -0.43225393373E+02  0.29970891799E+02  0.25076733254E+00  0.52809486569E+02  0.47000000000E+01 0.  1.
         13    1    4    4    0    0 -0.59528904851E+01 -0.61560754876E+01  0.11847748284E+03  0.11878656536E+03  0.00000000000E+00 0. -1.
        -14    1    4    4    0    0  0.40257278000E+02 -0.24114276839E+02  0.27769701571E+02  0.54528002942E+02  0.00000000000E+00 0.  1.
</event>
<event>
12    1  0.1593360E-001  0.4158488E+03  0.7818608E-02  0.1038455E+00
         21   -1    0    0  503  502  0.00000000000E+00  0.00000000000E+00  0.31444835825E+03  0.31444835825E+03  0.00000000000E+00 0.  1.
         21   -1    0    0  501  503 -0.00000000000E+00 -0.00000000000E+00 -0.60749594316E+03  0.60749594316E+03  0.00000000000E+00 0. -1.
          6    2    1    2  501    0 -0.36177397523E+03  0.11121512202E+03 -0.28903125228E+03  0.50642796166E+03  0.17228175479E+03 0.  0.
         24    2    3    3    0    0 -0.29874482279E+03  0.89178308023E+02 -0.29745528725E+03  0.43896427073E+03  0.83718237554E+02 0.  0.
         -6    2    1    2    0  502  0.36177397523E+03 -0.11121512202E+03 -0.40163326311E+01  0.41551633975E+03  0.17143070073E+03 0.  0.
        -24    2    5    5    0    0  0.35407719695E+03 -0.13534608199E+03 -0.13598069651E+02  0.38803101077E+03  0.81816468466E+02 0.  0.
          5    1    3    3  501    0 -0.63029152437E+02  0.22036813996E+02  0.84240349690E+01  0.67463690924E+02  0.47000000000E+01 0. -1.
        -13    1    4    4    0    0 -0.38753536959E+02 -0.93272893125E+01 -0.66466517571E+02  0.77502470353E+02  0.00000000000E+00 0.  1.
         14    1    4    4    0    0 -0.25999128583E+03  0.98505597335E+02 -0.23098876968E+03  0.36146180038E+03  0.00000000000E+00 0. -1.
         -5    1    5    5    0  502  0.76967782801E+01  0.24130959967E+02  0.95817370197E+01  0.27485328980E+02  0.47000000000E+01 0.  1.
         13    1    6    6    0    0  0.17246962319E+03 -0.51459388936E+02  0.32122786366E+02  0.18282700303E+03  0.00000000000E+00 0. -1.
        -14    1    6    6    0    0  0.18160757376E+03 -0.83886693049E+02 -0.45720856017E+02  0.20520400774E+03  0.00000000000E+00 0.  1.
</event>
<event>
12    1  0.1593360E-001  0.1729178E+03  0.7818608E-02  0.1175191E+00
         21   -1    0    0  503  502  0.00000000000E+00  0.00000000000E+00  0.51606997161E+03  0.51606997161E+03  0.00000000000E+00 0.  1.
         21   -1    0    0  501  503 -0.00000000000E+00 -0.00000000000E+00 -0.12447335335E+03  0.12447335335E+03  0.00000000000E+00 0.  1.
          6    2    1    2  501    0  0.88785352538E+01  0.13450894082E+01 -0.39523992120E+02  0.17603762081E+03  0.17130808601E+03 0.  0.
         24    2    3    3    0    0  0.15443157403E+02  0.55649358689E+02 -0.60432467220E+02  0.11728983569E+03  0.82276851107E+02 0.  0.
         -6    2    1    2    0  502 -0.88785352538E+01 -0.13450894082E+01  0.43112061038E+03  0.46450570414E+03  0.17268448347E+03 0.  0.
        -24    2    5    5    0    0 -0.44411826960E+02 -0.54253474000E+02  0.30021804871E+03  0.31883661808E+03  0.81302290541E+02 0.  0.
          5    1    3    3  501    0 -0.65646221493E+01 -0.54304269280E+02  0.20908475100E+02  0.58747785125E+02  0.47000000000E+01 0. -1.
        -11    1    4    4    0    0 -0.43214428446E+01 -0.14197127591E+02  0.85702963411E+01  0.17137189952E+02  0.00000000000E+00 0.  1.
         12    1    4    4    0    0  0.19764600248E+02  0.69846486279E+02 -0.69002763561E+02  0.10015264573E+03  0.00000000000E+00 0. -1.
         -5    1    5    5    0  502  0.35533291707E+02  0.52908384591E+02  0.13090256168E+03  0.14566908606E+03  0.47000000000E+01 0.  1.
         13    1    6    6    0    0  0.33056759609E+01 -0.40941774209E+01 -0.41453839581E+01  0.66988051526E+01  0.00000000000E+00 0. -1.
        -14    1    6    6    0    0 -0.47717502921E+02 -0.50159296579E+02  0.30436343266E+03  0.31213781293E+03  0.00000000000E+00 0.  1.
</event>
<event>
12    1  0.1593360E-001  0.2388946E+03  0.7818608E-02  0.1120746E+00
         21   -1    0    0  501  502  0.00000000000E+00  0.00000000000E+00  0.28255458609E+03  0.28255458609E+03  0.00000000000E+00 0.  1.
         21   -1    0    0  502  503 -0.00000000000E+00 -0.00000000000E+00 -0.20743036671E+03  0.20743036671E+03  0.00000000000E+00 0.  1.
         -6    2    1    2    0  503 -0.16313850032E+03  0.16936693590E+02  0.80930067710E+02  0.25101985991E+03  0.17193101038E+03 0.  0.
        -24    2    3    3    0    0 -0.18865537279E+03 -0.52903546592E+01  0.75533946662E+02  0.21643141419E+03  0.74285546482E+02 0.  0.
          6    2    1    2  501    0  0.16313850032E+03 -0.16936693590E+02 -0.58058483332E+01  0.23896509289E+03  0.17369394310E+03 0.  0.
         24    2    5    5    0    0  0.16329443361E+03 -0.31749620854E+02  0.42589452365E+02  0.18813555169E+03  0.76863605715E+02 0.  0.
          5    1    5    5  501    0 -0.15593328844E+00  0.14812927264E+02 -0.48395300698E+02  0.50829541203E+02  0.47000000000E+01 0. -1.
        -13    1    6    6    0    0  0.13412876946E+03 -0.55104292498E+02  0.41197065755E+02  0.15074550765E+03  0.00000000000E+00 0.  1.
         14    1    6    6    0    0  0.29165664149E+02  0.23354671644E+02  0.13923866096E+01  0.37390044040E+02  0.00000000000E+00 0. -1.
         -5    1    3    3    0  503  0.25516872471E+02  0.22227048249E+02  0.53961210486E+01  0.34588445714E+02  0.47000000000E+01 0.  1.
         11    1    4    4    0    0 -0.17814709851E+02 -0.25044569675E+02  0.14035822322E+02  0.33787551931E+02  0.00000000000E+00 0. -1.
        -12    1    4    4    0    0 -0.17084066294E+03  0.19754215016E+02  0.61498124340E+02  0.18264386226E+03  0.00000000000E+00 0.  1.
</event>
<event>
12    1  0.1593360E-001  0.1967302E+03  0.7818608E-02  0.1154403E+00
         21   -1    0    0  503  502  0.00000000000E+00  0.00000000000E+00  0.21869541522E+03  0.21869541522E+03  0.00000000000E+00 0.  1.
         21   -1    0    0  501  503 -0.00000000000E+00 -0.00000000000E+00 -0.34246914327E+03  0.34246914327E+03  0.00000000000E+00 0. -1.
          6    2    1    2  501    0  0.44096971194E+02 -0.58782307695E+02 -0.26064443420E+03  0.32150573083E+03  0.17329313694E+03 0.  0.
         24    2    3    3    0    0  0.51977904061E+02  0.29843313908E+02 -0.14130966366E+03  0.17257793838E+03  0.78882177158E+02 0.  0.
         -6    2    1    2    0  502 -0.44096971194E+02  0.58782307695E+02  0.13687070615E+03  0.23965882765E+03  0.18249071457E+03 0.  0.
        -24    2    5    5    0    0  0.33315809610E+02 -0.68859712881E+01  0.34629887265E+02  0.95504963524E+02  0.82247244302E+02 0.  0.
          5    1    3    3  501    0 -0.78809328671E+01 -0.88625621604E+02 -0.11933477054E+03  0.14892779246E+03  0.47000000000E+01 0. -1.
        -13    1    4    4    0    0  0.25713228963E+02  0.32860396991E+02 -0.16287796077E+02  0.44791384609E+02  0.00000000000E+00 0.  1.
         14    1    4    4    0    0  0.26264675098E+02 -0.30170830831E+01 -0.12502186759E+03  0.12778655377E+03  0.00000000000E+00 0. -1.
         -5    1    5    5    0  502 -0.77412780804E+02  0.65668278983E+02  0.10224081889E+03  0.14415386413E+03  0.47000000000E+01 0.  1.
         11    1    6    6    0    0  0.46997093046E+02  0.25038850583E+02  0.13819791997E+02  0.55015065611E+02  0.00000000000E+00 0. -1.
        -12    1    6    6    0    0 -0.13681283437E+02 -0.31924821871E+02  0.20810095268E+02  0.40489897913E+02  0.00000000000E+00 0.  1.
</event>
<event>
12    1  0.1593360E-001  0.1992441E+03  0.7818608E-02  0.1150522E+00
         21   -1    0    0  503  502  0.00000000000E+00  0.00000000000E+00  0.17639712349E+03  0.17639712349E+03  0.00000000000E+00 0. -1.
         21   -1    0    0  501  503 -0.00000000000E+00 -0.00000000000E+00 -0.22615516021E+03  0.22615516021E+03  0.00000000000E+00 0. -1.
          6    2    1    2  501    0  0.77245228641E+02  0.61225137021E+02 -0.66145496337E+01  0.19935390245E+03  0.17315566235E+03 0.  0.
         24    2    3    3    0    0  0.10553185115E+03  0.12827045439E+02  0.23746787127E+02  0.13542887564E+03  0.80470900071E+02 0.  0.
         -6    2    1    2    0  502 -0.77245228641E+02 -0.61225137021E+02 -0.43143487083E+02  0.20319838126E+03  0.17237424087E+03 0.  0.
        -24    2    5    5    0    0 -0.38600905798E+02 -0.11024125532E+02  0.41052387000E+02  0.97725349371E+02  0.79078341909E+02 0.  0.
          5    1    3    3  501    0 -0.28286622506E+02  0.48398091582E+02 -0.30361336761E+02  0.63925026801E+02  0.47000000000E+01 0. -1.
        -11    1    4    4    0    0  0.76005225015E+02 -0.28560891491E+02  0.53805546188E+01  0.81372410069E+02  0.00000000000E+00 0.  1.
         12    1    4    4    0    0  0.29526626132E+02  0.41387936929E+02  0.18366232508E+02  0.54056465576E+02  0.00000000000E+00 0. -1.
         -5    1    5    5    0  502 -0.38644322843E+02 -0.50201011489E+02 -0.84195874083E+02  0.10547303189E+03  0.47000000000E+01 0.  1.
         13    1    6    6    0    0 -0.37595442276E+02 -0.19021253334E+02 -0.12201795091E+02  0.43864668719E+02  0.00000000000E+00 0. -1.
        -14    1    6    6    0    0 -0.10054635215E+01  0.79971278021E+01  0.53254182092E+02  0.53860680652E+02  0.00000000000E+00 0.  1.
</event>
<event>
12    1  0.1593360E-001  0.1862915E+03  0.7818608E-02  0.1161893E+00
         21   -1    0    0  503  502  0.00000000000E+00  0.00000000000E+00  0.18385429168E+03  0.18385429168E+03  0.00000000000E+00 0. -1.
         21   -1    0    0  501  503 -0.00000000000E+00 -0.00000000000E+00 -0.27482974490E+03  0.27482974490E+03  0.00000000000E+00 0. -1.
          6    2    1    2  501    0  0.70331877420E+02 -0.10207174684E+02 -0.17399085863E+03  0.25490650923E+03  0.17220264273E+03 0.  0.
         24    2    3    3    0    0  0.11465129057E+03 -0.12035663776E+02 -0.14414315704E+03  0.20123594891E+03  0.80180307928E+02 0.  0.
         -6    2    1    2    0  502 -0.70331877420E+02  0.10207174684E+02  0.83015405415E+02  0.20377752736E+03  0.17199698754E+03 0.  0.
        -24    2    5    5    0    0 -0.98036911882E+02  0.25615249589E+02  0.16819332294E+02  0.13023170624E+03  0.80062664638E+02 0.  0.
          5    1    3    3  501    0 -0.44319413153E+02  0.18284890926E+01 -0.29847701593E+02  0.53670560320E+02  0.47000000000E+01 0. -1.
        -13    1    4    4    0    0  0.62942834329E+02 -0.34517357221E+01 -0.19443554134E+02  0.65967921525E+02  0.00000000000E+00 0.  1.
         14    1    4    4    0    0  0.51708456244E+02 -0.85839280542E+01 -0.12469960290E+03  0.13526802738E+03  0.00000000000E+00 0. -1.
         -5    1    5    5    0  502  0.27705034462E+02 -0.15408074905E+02  0.66196073121E+02  0.73545821115E+02  0.47000000000E+01 0.  1.
         13    1    6    6    0    0 -0.38425182658E+02  0.17476961463E+02  0.46787987230E+02  0.63016304187E+02  0.00000000000E+00 0. -1.
        -14    1    6    6    0    0 -0.59611729224E+02  0.81382881255E+01 -0.29968654937E+02  0.67215402055E+02  0.00000000000E+00 0.  1.
</event>
<event>
12    1  0.1593360E-001  0.2357752E+03  0.7818608E-02  0.1123812E+00
         21   -1    0    0  503  502  0.00000000000E+00  0.00000000000E+00  0.52880107374E+03  0.52880107374E+03  0.00000000000E+00 0. -1.
         21   -1    0    0  501  503 -0.00000000000E+00 -0.00000000000E+00 -0.10259775195E+03  0.10259775195E+03  0.00000000000E+00 0.  1.
          6    2    1    2  501    0 -0.17502689046E+02  0.15962597506E+03  0.23760440848E+03  0.33473243090E+03  0.17263588656E+03 0.  0.
         24    2    3    3    0    0 -0.44537952781E+02  0.35698919147E+02  0.15510190951E+03  0.18334691967E+03  0.79381663846E+02 0.  0.
         -6    2    1    2    0  502  0.17502689046E+02 -0.15962597506E+03  0.18859891331E+03  0.29666639478E+03  0.16326237673E+03 0.  0.
        -24    2    5    5    0    0  0.32772978291E+02 -0.36831288403E+02  0.37152329183E+02  0.10103951870E+03  0.79987979491E+02 0.  0.
          5    1    3    3  501    0  0.27035263736E+02  0.12392705591E+03  0.82502498975E+02  0.15138551122E+03  0.47000000000E+01 0. -1.
        -11    1    4    4    0    0  0.87582490011E+01  0.20355212381E+02  0.41707960082E+01  0.22548550640E+02  0.00000000000E+00 0.  1.
         12    1    4    4    0    0 -0.53296201782E+02  0.15343706766E+02  0.15093111350E+03  0.16079836903E+03  0.00000000000E+00 0. -1.
         -5    1    5    5    0  502 -0.15270289246E+02 -0.12279468665E+03  0.15144658413E+03  0.19562687609E+03  0.47000000000E+01 0.  1.
         13    1    6    6    0    0 -0.10693253595E+01 -0.35268903362E+02  0.52973265906E+02  0.63649084061E+02  0.00000000000E+00 0. -1.
        -14    1    6    6    0    0  0.33842303651E+02 -0.15623850412E+01 -0.15820936723E+02  0.37390434635E+02  0.00000000000E+00 0.  1.
</event>
<event>
12    1  0.1593360E-001  0.2903159E+03  0.7818608E-02  0.1091143E+00
         21   -1    0    0  501  502  0.00000000000E+00  0.00000000000E+00  0.69348910626E+03  0.69348910626E+03  0.00000000000E+00 0. -1.
         21   -1    0    0  502  503 -0.00000000000E+00 -0.00000000000E+00 -0.17925009396E+03  0.17925009396E+03  0.00000000000E+00 0. -1.
         -6    2    1    2    0  503  0.14651416085E+02 -0.23241799167E+03  0.51325882109E+03  0.58967611789E+03  0.17335085736E+03 0.  0.
        -24    2    3    3    0    0  0.12203812350E+01 -0.13600384515E+03  0.17729133275E+03  0.23985856035E+03  0.87185876602E+02 0.  0.
          6    2    1    2  501    0 -0.14651416085E+02  0.23241799167E+03  0.98019120443E+00  0.28306308232E+03  0.16090668400E+03 0.  0.
         24    2    5    5    0    0 -0.94508534212E+00  0.15493426733E+03 -0.58890788155E+02  0.18407714792E+03  0.80067166046E+02 0.  0.
          5    1    5    5  501    0 -0.13706330743E+02  0.77483724340E+02  0.59870979359E+02  0.98985934402E+02  0.47000000000E+01 0. -1.
        -13    1    6    6    0    0 -0.29358970691E+02  0.24607818463E+02 -0.27182864731E+02  0.46972353833E+02  0.00000000000E+00 0.  1.
         14    1    6    6    0    0  0.28413885349E+02  0.13032644886E+03 -0.31707923424E+02  0.13710479409E+03  0.00000000000E+00 0. -1.
         -5    1    3    3    0  503  0.13431034850E+02 -0.96414146514E+02  0.33596748834E+03  0.34981755754E+03  0.47000000000E+01 0.  1.
         13    1    4    4    0    0  0.27822969503E+01 -0.10574037671E+03  0.18068015719E+03  0.20936591806E+03  0.00000000000E+00 0. -1.
        -14    1    4    4    0    0 -0.15619157154E+01 -0.30263468446E+02 -0.33888244364E+01  0.30492642296E+02  0.00000000000E+00 0.  1.
</event>
<event>
12    1  0.1593360E-001  0.3124676E+03  0.7818608E-02  0.1079211E+00
         21   -1    0    0  501  502  0.00000000000E+00  0.00000000000E+00  0.24477698283E+03  0.24477698283E+03  0.00000000000E+00 0.  1.
         21   -1    0    0  502  503 -0.00000000000E+00 -0.00000000000E+00 -0.47389579035E+03  0.47389579035E+03  0.00000000000E+00 0. -1.
         -6    2    1    2    0  503 -0.26069564498E+03 -0.26879016526E+01 -0.25801413805E+03  0.40522497704E+03  0.17223978188E+03 0.  0.
        -24    2    3    3    0    0 -0.23202481797E+03 -0.23834726965E+02 -0.27148823955E+03  0.36684730185E+03  0.80420571356E+02 0.  0.
          6    2    1    2  501    0  0.26069564498E+03  0.26879016526E+01  0.28895330533E+02  0.31344779614E+03  0.17159585267E+03 0.  0.
         24    2    5    5    0    0  0.26815639610E+03  0.27111420312E+02  0.42597701214E+02  0.28408768658E+03  0.79046616861E+02 0.  0.
          5    1    5    5  501    0 -0.74607511227E+01 -0.24423518659E+02 -0.13702370681E+02  0.29360109559E+02  0.47000000000E+01 0. -1.
        -13    1    6    6    0    0  0.11868997530E+02  0.15137185712E+02 -0.10746352147E+02  0.22033873425E+02  0.00000000000E+00 0.  1.
         14    1    6    6    0    0  0.25628739857E+03  0.11974234600E+02  0.53344053361E+02  0.26205381316E+03  0.00000000000E+00 0. -1.
         -5    1    3    3    0  503 -0.28670827013E+02  0.21146825312E+02  0.13474101499E+02  0.38377675198E+02  0.47000000000E+01 0.  1.
         13    1    4    4    0    0 -0.68643451997E+02  0.25558065119E+02 -0.57473418273E+02  0.93103877484E+02  0.00000000000E+00 0. -1.
        -14    1    4    4    0    0 -0.16338136597E+03 -0.49392792084E+02 -0.21401482127E+03  0.27374342436E+03  0.00000000000E+00 0.  1.
</event>
<event>
12    1  0.1593360E-001  0.2334487E+03  0.7818608E-02  0.1124994E+00
         21   -1    0    0  503  502  0.00000000000E+00  0.00000000000E+00  0.95861702978E+03  0.95861702978E+03  0.00000000000E+00 0. -1.
         21   -1    0    0  501  503 -0.00000000000E+00 -0.00000000000E+00 -0.59766778506E+02  0.59766778506E+02  0.00000000000E+00 0. -1.
          6    2    1    2  501    0  0.13912924425E+03  0.56371636975E+02  0.32214928022E+03  0.39784223260E+03  0.17878359889E+03 0.  0.
         24    2    3    3    0    0  0.43756102069E+02  0.74036678617E+02  0.25287590115E+03  0.27855694015E+03  0.79067827070E+02 0.  0.
         -6    2    1    2    0  502 -0.13912924425E+03 -0.56371636975E+02  0.57670097105E+03  0.62054157568E+03  0.17306972317E+03 0.  0.
        -24    2    5    5    0    0 -0.29481918568E+02 -0.62055647883E+02  0.17863052141E+03  0.20758029798E+03  0.80378044089E+02 0.  0.
          5    1    3    3  501    0  0.95373142183E+02 -0.17665041642E+02  0.69273379076E+02  0.11928529245E+03  0.47000000000E+01 0. -1.
        -11    1    4    4    0    0  0.41079778148E+02  0.44260061303E+00  0.11707073440E+03  0.12406974217E+03  0.00000000000E+00 0.  1.
         12    1    4    4    0    0  0.26763239216E+01  0.73594078004E+02  0.13580516675E+03  0.15448719799E+03  0.00000000000E+00 0. -1.
         -5    1    5    5    0  502 -0.10964732568E+03  0.56840109076E+01  0.39807044964E+03  0.41296127770E+03  0.47000000000E+01 0.  1.
         13    1    6    6    0    0 -0.36995520620E+02  0.57977396026E+01  0.65390418765E+02  0.75353760335E+02  0.00000000000E+00 0. -1.
        -14    1    6    6    0    0  0.75136020524E+01 -0.67853387485E+02  0.11324010265E+03  0.13222653764E+03  0.00000000000E+00 0.  1.
</event>
<event>
12    1  0.1593360E-001  0.1885098E+03  0.7818608E-02  0.1159873E+00
         21   -1    0    0  501  502  0.00000000000E+00  0.00000000000E+00  0.36658233910E+02  0.36658233910E+02  0.00000000000E+00 0.  1.
         21   -1    0    0  502  503 -0.00000000000E+00 -0.00000000000E+00 -0.11523704909E+04  0.11523704909E+04  0.00000000000E+00 0.  1.
         -6    2    1    2    0  503 -0.76875599383E+02  0.11111902845E+02 -0.79597338453E+03  0.81799117129E+03  0.17176319530E+03 0.  0.
        -24    2    3    3    0    0 -0.11179187612E+03 -0.24847070486E+02 -0.56383652707E+03  0.58045842673E+03  0.76847611733E+02 0.  0.
          6    2    1    2  501    0  0.76875599383E+02 -0.11111902845E+02 -0.31973887243E+03  0.37103755349E+03  0.17147182682E+03 0.  0.
         24    2    5    5    0    0  0.13373483986E+02 -0.39365441618E+02 -0.80807502815E+02  0.12215792295E+03  0.81634659065E+02 0.  0.
          5    1    5    5  501    0  0.63502115397E+02  0.28253538773E+02 -0.23893136961E+03  0.24887963054E+03  0.47000000000E+01 0. -1.
        -13    1    6    6    0    0 -0.30780912364E+02 -0.25305943270E+02 -0.58365050603E+02  0.70670605365E+02  0.00000000000E+00 0.  1.
         14    1    6    6    0    0  0.44154396350E+02 -0.14059498348E+02 -0.22442452212E+02  0.51487317585E+02  0.00000000000E+00 0. -1.
         -5    1    3    3    0  503  0.34916276735E+02  0.35958973331E+02 -0.23213685747E+03  0.23753274456E+03  0.47000000000E+01 0.  1.
         11    1    4    4    0    0  0.56521427283E+01 -0.53644749098E+01 -0.54182476832E+01  0.94911388377E+01  0.00000000000E+00 0. -1.
        -12    1    4    4    0    0 -0.11744401885E+03 -0.19482595576E+02 -0.55841827938E+03  0.57096728789E+03  0.00000000000E+00 0.  1.
</event>
<event>
12    1  0.1593360E-001  0.3532568E+03  0.7818608E-02  0.1061288E+00
         21   -1    0    0  503  502  0.00000000000E+00  0.00000000000E+00  0.19273742237E+03  0.19273742237E+03  0.00000000000E+00 0.  1.
         21   -1    0    0  501  503 -0.00000000000E+00 -0.00000000000E+00 -0.81609271998E+03  0.81609271998E+03  0.00000000000E+00 0. -1.
          6    2    1    2  501    0 -0.27142987456E+03  0.14597988504E+03 -0.82369732076E+02  0.36273292043E+03  0.17264441828E+03 0.  0.
         24    2    3    3    0    0 -0.21057621775E+03  0.85385123135E+02 -0.11892390405E+03  0.26928138108E+03  0.82076820790E+02 0.  0.
         -6    2    1    2    0  502  0.27142987456E+03 -0.14597988504E+03 -0.54098556553E+03  0.64609722192E+03  0.17260340210E+03 0.  0.
        -24    2    5    5    0    0  0.12563310186E+03 -0.14323649484E+03 -0.31797417655E+03  0.37960070274E+03  0.81784759153E+02 0.  0.
          5    1    3    3  501    0 -0.60853656814E+02  0.60594761903E+02  0.36554171975E+02  0.93451539348E+02  0.47000000000E+01 0. -1.
        -11    1    4    4    0    0 -0.11503463255E+03  0.66369104568E+02 -0.27376169815E+02  0.13559970280E+03  0.00000000000E+00 0.  1.
         12    1    4    4    0    0 -0.95541585200E+02  0.19016018567E+02 -0.91547734236E+02  0.13368167828E+03  0.00000000000E+00 0. -1.
         -5    1    5    5    0  502  0.14579677270E+03 -0.27433901977E+01 -0.22301138898E+03  0.26649651918E+03  0.47000000000E+01 0.  1.
         11    1    6    6    0    0  0.50225386843E+02 -0.79662306999E+02 -0.22560268011E+03  0.24446930669E+03  0.00000000000E+00 0. -1.
        -12    1    6    6    0    0  0.75407715022E+02 -0.63574187841E+02 -0.92371496444E+02  0.13513139605E+03  0.00000000000E+00 0.  1.
</event>
<event>
12    1  0.1593360E-001  0.1803029E+03  0.7818608E-02  0.1167775E+00
         21   -1    0    0  501  502  0.00000000000E+00  0.00000000000E+00  0.80575462299E+03  0.80575462299E+03  0.00000000000E+00 0. -1.
         21   -1    0    0  502  503 -0.00000000000E+00 -0.00000000000E+00 -0.46287420381E+02  0.46287420381E+02  0.00000000000E+00 0.  1.
         -6    2    1    2    0  503  0.38930353578E+02  0.35744769344E+02  0.22300558046E+03  0.28609134170E+03  0.17124107543E+03 0.  0.
        -24    2    3    3    0    0  0.89803128856E+02  0.28049503111E+02  0.18139799486E+03  0.21975479396E+03  0.80842812614E+02 0.  0.
          6    2    1    2  501    0 -0.38930353578E+02 -0.35744769344E+02  0.53646162214E+03  0.56595070167E+03  0.17238289856E+03 0.  0.
         24    2    5    5    0    0 -0.38056811557E+02 -0.69775592715E+02  0.51068965931E+03  0.52299556131E+03  0.80021714397E+02 0.  0.
          5    1    5    5  501    0 -0.87354202081E+00  0.34030823371E+02  0.25771962835E+02  0.42955140360E+02  0.47000000000E+01 0. -1.
        -11    1    6    6    0    0  0.18014147452E+02 -0.23113396754E+02  0.64015413312E+02  0.70403918637E+02  0.00000000000E+00 0.  1.
         12    1    6    6    0    0 -0.56070959009E+02 -0.46662195961E+02  0.44667424600E+03  0.45259164267E+03  0.00000000000E+00 0. -1.
         -5    1    3    3    0  503 -0.50872775278E+02  0.76952662337E+01  0.41607585602E+02  0.66336547744E+02  0.47000000000E+01 0.  1.
         11    1    4    4    0    0  0.40541061317E+01  0.21501811796E+02  0.96355205505E+02  0.98808346383E+02  0.00000000000E+00 0. -1.
        -12    1    4    4    0    0  0.85749022724E+02  0.65476913141E+01  0.85042789353E+02  0.12094644757E+03  0.00000000000E+00 0.  1.
</event>
<event>
12    1  0.1593360E-001  0.1905050E+03  0.7818608E-02  0.1161585E+00
         21   -1    0    0  503  502  0.00000000000E+00  0.00000000000E+00  0.13673235531E+04  0.13673235531E+04  0.00000000000E+00 0. -1.
         21   -1    0    0  501  503 -0.00000000000E+00 -0.00000000000E+00 -0.22228066673E+03  0.22228066673E+03  0.00000000000E+00 0.  1.
          6    2    1    2  501    0  0.18972198218E+02  0.29150262997E+02 -0.17982310017E+03  0.25111177649E+03  0.17178793554E+03 0.  0.
         24    2    3    3    0    0 -0.37781999614E+02  0.10117410519E+02 -0.16176041989E+03  0.18840899454E+03  0.88327086955E+02 0.  0.
         -6    2    1    2    0  502 -0.18972198218E+02 -0.29150262997E+02  0.13248659865E+04  0.13384924433E+04  0.18730311378E+03 0.  0.
        -24    2    5    5    0    0 -0.51290962069E+02  0.39038451818E+02  0.98599164582E+03  0.99128629114E+03  0.79462078114E+02 0.  0.
          5    1    3    3  501    0  0.56754197832E+02  0.19032852478E+02 -0.18062680282E+02  0.62702781948E+02  0.47000000000E+01 0. -1.
        -11    1    4    4    0    0 -0.58728547188E+02  0.15753180867E+01 -0.59275688750E+02  0.83457361321E+02  0.00000000000E+00 0.  1.
         12    1    4    4    0    0  0.20946547573E+02  0.85420924321E+01 -0.10248473114E+03  0.10495163322E+03  0.00000000000E+00 0. -1.
         -5    1    5    5    0  502  0.32318763852E+02 -0.68188714815E+02  0.33887434069E+03  0.34720615217E+03  0.47000000000E+01 0.  1.
         13    1    6    6    0    0  0.93172337143E+01 -0.10888078574E+02  0.37441920876E+03  0.37469334793E+03  0.00000000000E+00 0. -1.
        -14    1    6    6    0    0 -0.60608195784E+02  0.49926530392E+02  0.61157243707E+03  0.61659294321E+03  0.00000000000E+00 0.  1.
</event>
<event>
12    1  0.1593360E-001  0.1730806E+03  0.7818608E-02  0.1176159E+00
         21   -1    0    0  503  502  0.00000000000E+00  0.00000000000E+00  0.11418961158E+03  0.11418961158E+03  0.00000000000E+00 0.  1.
         21   -1    0    0  501  503 -0.00000000000E+00 -0.00000000000E+00 -0.43107841270E+03  0.43107841270E+03  0.00000000000E+00 0.  1.
          6    2    1    2  501    0  0.24896951914E+02 -0.73973064181E+01 -0.33172990538E+03  0.37155232586E+03  0.16532338725E+03 0.  0.
         24    2    3    3    0    0 -0.10170104248E+02 -0.45297701083E+02 -0.29230906042E+03  0.30641991180E+03  0.79330087612E+02 0.  0.
         -6    2    1    2    0  502 -0.24896951914E+02  0.73973064181E+01  0.14841104262E+02  0.17371569843E+03  0.17112073851E+03 0.  0.
        -24    2    5    5    0    0 -0.74252628451E+02 -0.24882458435E+02  0.21736458800E+02  0.11415394946E+03  0.80162715569E+02 0.  0.
          5    1    3    3  501    0  0.35067056162E+02  0.37900394665E+02 -0.39420844960E+02  0.65132414058E+02  0.47000000000E+01 0. -1.
        -13    1    4    4    0    0 -0.14291365749E+02 -0.33941378867E+02 -0.29202247670E+03  0.29433550114E+03  0.00000000000E+00 0.  1.
         14    1    4    4    0    0  0.41212615018E+01 -0.11356322216E+02 -0.28658371518E+00  0.12084410654E+02  0.00000000000E+00 0. -1.
         -5    1    5    5    0  502  0.49355676537E+02  0.32279764853E+02 -0.68953545382E+01  0.59561748964E+02  0.47000000000E+01 0.  1.
         13    1    6    6    0    0 -0.30586862569E+02  0.94380218509E+01 -0.25750081680E+02  0.41081615412E+02  0.00000000000E+00 0. -1.
        -14    1    6    6    0    0 -0.43665765882E+02 -0.34320480286E+02  0.47486540480E+02  0.73072334053E+02  0.00000000000E+00 0.  1.
</event>
<event>
12    1  0.1593360E-001  0.1940092E+03  0.7818608E-02  0.1154937E+00
         21   -1    0    0  501  502  0.00000000000E+00  0.00000000000E+00  0.14724603822E+03  0.14724603822E+03  0.00000000000E+00 0. -1.
         21   -1    0    0  502  503 -0.00000000000E+00 -0.00000000000E+00 -0.25561624303E+03  0.25561624303E+03  0.00000000000E+00 0. -1.
         -6    2    1    2    0  503 -0.78509981706E+02 -0.42207379349E+02 -0.47921422636E+02  0.19984000186E+03  0.17232029334E+03 0.  0.
        -24    2    3    3    0    0 -0.44484045045E+02 -0.66162975208E+02  0.24962273800E+02  0.11578193774E+03  0.80162163398E+02 0.  0.
          6    2    1    2  501    0  0.78509981706E+02  0.42207379349E+02 -0.60448782178E+02  0.20302227939E+03  0.17210087322E+03 0.  0.
         24    2    5    5    0    0  0.38115015288E+02 -0.98784681904E+01 -0.89696025783E+02  0.13075762631E+03  0.86613170326E+02 0.  0.
          5    1    5    5  501    0  0.40394966418E+02  0.52085847539E+02  0.29247243605E+02  0.72264653076E+02  0.47000000000E+01 0. -1.
        -11    1    6    6    0    0 -0.10344026457E+02 -0.16758796444E+02  0.81803552021E+01  0.21325439101E+02  0.00000000000E+00 0.  1.
         12    1    6    6    0    0  0.48459041745E+02  0.68803282535E+01 -0.97876380985E+02  0.10943218721E+03  0.00000000000E+00 0. -1.
         -5    1    3    3    0  503 -0.34025936661E+02  0.23955595859E+02 -0.72883696436E+02  0.84058064127E+02  0.47000000000E+01 0.  1.
         13    1    4    4    0    0 -0.63958771732E+02 -0.29183023347E+02  0.83071899192E+01  0.70791120470E+02  0.00000000000E+00 0. -1.
        -14    1    4    4    0    0  0.19474726687E+02 -0.36979951860E+02  0.16655083881E+02  0.44990817265E+02  0.00000000000E+00 0.  1.
</event>
<event>
12    1  0.1593360E-001  0.1840758E+03  0.7818608E-02  0.1166166E+00
         21   -1    0    0  501  502  0.00000000000E+00  0.00000000000E+00  0.42325476898E+03  0.42325476898E+03  0.00000000000E+00 0. -1.
         21   -1    0    0  502  503 -0.00000000000E+00 -0.00000000000E+00 -0.14811002880E+03  0.14811002880E+03  0.00000000000E+00 0. -1.
         -6    2    1    2    0  503  0.49941267299E+02 -0.59662556291E+02 -0.63487790174E+02  0.18593528830E+03  0.15648476326E+03 0.  0.
        -24    2    3    3    0    0 -0.27696703155E+02 -0.16944614108E+02 -0.41175098769E+02  0.94434341649E+02  0.78538072366E+02 0.  0.
          6    2    1    2  501    0 -0.49941267299E+02  0.59662556291E+02  0.33863253035E+03  0.38542950947E+03  0.16682375537E+03 0.  0.
         24    2    5    5    0    0 -0.43329988108E+01  0.53851602363E+02  0.84045286585E+02  0.12668129976E+03  0.77883063341E+02 0.  0.
          5    1    5    5  501    0 -0.45608268488E+02  0.58109539284E+01  0.25458724377E+03  0.25874820971E+03  0.47000000000E+01 0. -1.
        -11    1    6    6    0    0 -0.38549112543E+01  0.65321108277E+02  0.91868348877E+02  0.11278963185E+03  0.00000000000E+00 0.  1.
         12    1    6    6    0    0 -0.47808755655E+00 -0.11469505915E+02 -0.78230622923E+01  0.13891667908E+02  0.00000000000E+00 0. -1.
         -5    1    3    3    0  503  0.77637970454E+02 -0.42717942183E+02 -0.22312691404E+02  0.91500946652E+02  0.47000000000E+01 0.  1.
         11    1    4    4    0    0  0.56879085019E+01 -0.32535506130E+02 -0.46676175580E+02  0.57180213614E+02  0.00000000000E+00 0. -1.
        -12    1    4    4    0    0 -0.33384611657E+02  0.15590892022E+02  0.55010768102E+01  0.37254128034E+02  0.00000000000E+00 0.  1.
</event>
<event>
12    1  0.1593360E-001  0.2217988E+03  0.7818608E-02  0.1132689E+00
         21   -1    0    0  503  502  0.00000000000E+00  0.00000000000E+00  0.41856986465E+03  0.41856986465E+03  0.00000000000E+00 0. -1.
         21   -1    0    0  501  503 -0.00000000000E+00 -0.00000000000E+00 -0.11967661286E+03  0.11967661286E+03  0.00000000000E+00 0.  1.
          6    2    1    2  501    0 -0.13336711299E+02  0.13470618992E+03  0.11044181638E+03  0.24777426083E+03  0.17570163361E+03 0.  0.
         24    2    3    3    0    0 -0.29300844937E+02  0.44832307152E+02 -0.89606370743E+01  0.97404036856E+02  0.80862711433E+02 0.  0.
         -6    2    1    2    0  502  0.13336711299E+02 -0.13470618992E+03  0.18845143541E+03  0.29047221669E+03  0.17474707348E+03 0.  0.
        -24    2    5    5    0    0 -0.24484075932E+02 -0.15350800613E+03  0.12852572816E+03  0.21700725478E+03  0.80056904182E+02 0.  0.
          5    1    3    3  501    0  0.15964133638E+02  0.89873882768E+02  0.11940245345E+03  0.15037022397E+03  0.47000000000E+01 0. -1.
        -11    1    4    4    0    0 -0.18581425372E+02  0.46415894913E+02 -0.40317486792E+02  0.64227754209E+02  0.00000000000E+00 0.  1.
         12    1    4    4    0    0 -0.10719419565E+02 -0.15835877615E+01  0.31356849718E+02  0.33176282647E+02  0.00000000000E+00 0. -1.
         -5    1    5    5    0  502  0.37820787232E+02  0.18801816208E+02  0.59925707249E+02  0.73464961912E+02  0.47000000000E+01 0.  1.
         13    1    6    6    0    0  0.28154948039E+02 -0.38850806113E+02  0.44375931294E+02  0.65355256200E+02  0.00000000000E+00 0. -1.
        -14    1    6    6    0    0 -0.52639023972E+02 -0.11465720001E+03  0.84149796870E+02  0.15165199858E+03  0.00000000000E+00 0.  1.
</event>
<event>
12    1  0.1593360E-001  0.2490684E+03  0.7818608E-02  0.1113954E+00
         21   -1    0    0  503  502  0.00000000000E+00  0.00000000000E+00  0.13018241077E+03  0.13018241077E+03  0.00000000000E+00 0. -1.
         21   -1    0    0  501  503 -0.00000000000E+00 -0.00000000000E+00 -0.47587107970E+03  0.47587107970E+03  0.00000000000E+00 0.  1.
          6    2    1    2  501    0  0.59850723105E+02  0.16973923820E+03 -0.16947197010E+03  0.30095125390E+03  0.17163155461E+03 0.  0.
         24    2    3    3    0    0 -0.32069986175E+02  0.52322433545E+02 -0.51271286415E+02  0.11061046891E+03  0.76418649268E+02 0.  0.
         -6    2    1    2    0  502 -0.59850723105E+02 -0.16973923820E+03 -0.17621669884E+03  0.30510223656E+03  0.17216716228E+03 0.  0.
        -24    2    5    5    0    0  0.30297365504E+02 -0.11242414714E+03 -0.96136701816E+02  0.17151109365E+03  0.81342919735E+02 0.  0.
          5    1    3    3  501    0  0.91920709281E+02  0.11741680465E+03 -0.11820068368E+03  0.19034078500E+03  0.47000000000E+01 0. -1.
        -13    1    4    4    0    0 -0.51002769709E+02  0.36418363106E+02 -0.11406457546E+02  0.63699976162E+02  0.00000000000E+00 0.  1.
         14    1    4    4    0    0  0.18932783534E+02  0.15904070439E+02 -0.39864828869E+02  0.46910492745E+02  0.00000000000E+00 0. -1.
         -5    1    5    5    0  502 -0.90148088609E+02 -0.57315091057E+02 -0.80079997019E+02  0.13359114291E+03  0.47000000000E+01 0.  1.
         11    1    6    6    0    0  0.51606165662E+02 -0.50592540187E+02 -0.29249357180E+02  0.77963621981E+02  0.00000000000E+00 0. -1.
        -12    1    6    6    0    0 -0.21308800158E+02 -0.61831606954E+02 -0.66887344636E+02  0.93547471667E+02  0.00000000000E+00 0.  1.
</event>
<event>
12    1  0.1593360E-001  0.2007068E+03  0.7818608E-02  0.1149158E+00
         21   -1    0    0  503  502  0.00000000000E+00  0.00000000000E+00  0.53195374582E+02  0.53195374582E+02  0.00000000000E+00 0. -1.
         21   -1    0    0  501  503 -0.00000000000E+00 -0.00000000000E+00 -0.13605731268E+04  0.13605731268E+04  0.00000000000E+00 0. -1.
          6    2    1    2  501    0 -0.42313642757E+02  0.96025213251E+02 -0.11244393105E+04  0.11421995471E+04  0.17101098376E+03 0.  0.
         24    2    3    3    0    0 -0.42400995759E+02  0.12524218391E+03 -0.73523861752E+03  0.75187544025E+03  0.85190397912E+02 0.  0.
         -6    2    1    2    0  502  0.42313642757E+02 -0.96025213251E+02 -0.18293844176E+03  0.27156895427E+03  0.17109043664E+03 0.  0.
        -24    2    5    5    0    0  0.64198068208E+02 -0.10570106330E+03 -0.84456528424E+02  0.17011291746E+03  0.80693201377E+02 0.  0.
          5    1    3    3  501    0  0.87353002307E-01 -0.29216970663E+02 -0.38920069296E+03  0.39032410687E+03  0.47000000000E+01 0. -1.
        -11    1    4    4    0    0  0.23639408706E+02  0.12785851988E+02 -0.12732890891E+03  0.13013435634E+03  0.00000000000E+00 0.  1.
         12    1    4    4    0    0 -0.66040404465E+02  0.11245633193E+03 -0.60790970861E+03  0.62174108392E+03  0.00000000000E+00 0. -1.
         -5    1    5    5    0  502 -0.21884425451E+02  0.96758500514E+01 -0.98481913335E+02  0.10145603681E+03  0.47000000000E+01 0.  1.
         11    1    6    6    0    0  0.72703642048E+02 -0.81534375101E+02 -0.92623545883E+02  0.14322288624E+03  0.00000000000E+00 0. -1.
        -12    1    6    6    0    0 -0.85055738406E+01 -0.24166688202E+02  0.81670174590E+01  0.26890031223E+02  0.00000000000E+00 0.  1.
</event>
<event>
12    1  0.1593360E-001  0.1766461E+03  0.7818608E-02  0.1171378E+00
         21   -1    0    0  501  502  0.00000000000E+00  0.00000000000E+00  0.12409653934E+03  0.12409653934E+03  0.00000000000E+00 0.  1.
         21   -1    0    0  502  503 -0.00000000000E+00 -0.00000000000E+00 -0.27991622805E+03  0.27991622805E+03  0.00000000000E+00 0.  1.
         -6    2    1    2    0  503  0.37801807040E+02 -0.29754825454E+01 -0.14394135373E+03  0.22696778280E+03  0.17134010332E+03 0.  0.
        -24    2    3    3    0    0  0.26640592343E+02 -0.35970500304E+02 -0.14155063929E+02  0.92506580479E+02  0.79708867415E+02 0.  0.
          6    2    1    2  501    0 -0.37801807040E+02  0.29754825454E+01 -0.11878334976E+02  0.17704498459E+03  0.17252826323E+03 0.  0.
         24    2    5    5    0    0 -0.72195449831E+02 -0.39587041306E+02  0.14517278434E+02  0.11610805401E+03  0.80566817092E+02 0.  0.
          5    1    5    5  501    0  0.34393642791E+02  0.42562523851E+02 -0.26395613410E+02  0.60936930579E+02  0.47000000000E+01 0. -1.
        -11    1    6    6    0    0 -0.84621683971E+02 -0.12745898546E+02  0.94045543442E+01  0.86091422164E+02  0.00000000000E+00 0.  1.
         12    1    6    6    0    0  0.12426234140E+02 -0.26841142760E+02  0.51127240902E+01  0.30016631842E+02  0.00000000000E+00 0. -1.
         -5    1    3    3    0  503  0.11161214696E+02  0.32995017759E+02 -0.12978628980E+03  0.13446120233E+03  0.47000000000E+01 0.  1.
         11    1    4    4    0    0 -0.19877413347E+02  0.43688716559E+01 -0.22536652334E+02  0.30366087982E+02  0.00000000000E+00 0. -1.
        -12    1    4    4    0    0  0.46518005691E+02 -0.40339371960E+02  0.83815884054E+01  0.62140492497E+02  0.00000000000E+00 0.  1.
</event>
<event>
12    1  0.1593360E-001  0.1845796E+03  0.7818608E-02  0.1164160E+00
         21   -1    0    0  503  502  0.00000000000E+00  0.00000000000E+00  0.35313019660E+03  0.35313019660E+03  0.00000000000E+00 0.  1.
         21   -1    0    0  501  503 -0.00000000000E+00 -0.00000000000E+00 -0.97436690406E+02  0.97436690406E+02  0.00000000000E+00 0.  1.
          6    2    1    2  501    0 -0.54194981434E+02  0.24630306308E+02  0.90458059571E+02  0.20283241140E+03  0.17150678870E+03 0.  0.
         24    2    3    3    0    0 -0.66881527041E+02  0.71822151348E+02  0.35072092510E+02  0.12882083106E+03  0.75717862872E+02 0.  0.
         -6    2    1    2    0  502  0.54194981434E+02 -0.24630306308E+02  0.16523544662E+03  0.24773447560E+03  0.17471654066E+03 0.  0.
        -24    2    5    5    0    0  0.33519052109E+02  0.45914863952E+02  0.13617466527E+03  0.16854650863E+03  0.81441294956E+02 0.  0.
          5    1    3    3  501    0  0.12686545606E+02 -0.47191845039E+02  0.55385967061E+02  0.74011580343E+02  0.47000000000E+01 0. -1.
        -11    1    4    4    0    0 -0.82328244898E+02  0.48387527550E+02  0.22748952046E+02  0.98167242752E+02  0.00000000000E+00 0.  1.
         12    1    4    4    0    0  0.15446717857E+02  0.23434623797E+02  0.12323140465E+02  0.30653588305E+02  0.00000000000E+00 0. -1.
         -5    1    5    5    0  502  0.20675929325E+02 -0.70545170260E+02  0.29060781349E+02  0.79187966972E+02  0.47000000000E+01 0.  1.
         13    1    6    6    0    0  0.36442172090E+02  0.21522455774E+02  0.14993928592E+02  0.44900622532E+02  0.00000000000E+00 0. -1.
        -14    1    6    6    0    0 -0.29231199811E+01  0.24392408178E+02  0.12118073668E+03  0.12364588610E+03  0.00000000000E+00 0.  1.
</event>
<event>
12    1  0.1593360E-001  0.2149801E+03  0.7818608E-02  0.1137791E+00
         21   -1    0    0  503  502  0.00000000000E+00  0.00000000000E+00  0.12159418447E+03  0.12159418447E+03  0.00000000000E+00 0. -1.
         21   -1    0    0  501  503 -0.00000000000E+00 -0.00000000000E+00 -0.73886841111E+03  0.73886841111E+03  0.00000000000E+00 0. -1.
          6    2    1    2  501    0  0.12858136163E+03 -0.11820090621E+01 -0.60864797025E+03  0.64530954047E+03  0.17157356332E+03 0.  0.
         24    2    3    3    0    0  0.13453839264E+03 -0.21109831277E+02 -0.33268612745E+03  0.36852508824E+03  0.81144791527E+02 0.  0.
         -6    2    1    2    0  502 -0.12858136163E+03  0.11820090621E+01 -0.86262563840E+01  0.21515305511E+03  0.17228424512E+03 0.  0.
        -24    2    5    5    0    0 -0.53632550265E+02  0.54542539506E+02 -0.40503633489E+02  0.11767009400E+03  0.79714287508E+02 0.  0.
          5    1    3    3  501    0 -0.59570310100E+01  0.19927822215E+02 -0.27596184281E+03  0.27678445224E+03  0.47000000000E+01 0. -1.
        -13    1    4    4    0    0 -0.43913787982E+01  0.49252457760E+01  0.47881399464E+00  0.66160045756E+01  0.00000000000E+00 0.  1.
         14    1    4    4    0    0  0.13892977144E+03 -0.26035077053E+02 -0.33316494144E+03  0.36190908366E+03  0.00000000000E+00 0. -1.
         -5    1    5    5    0  502 -0.74948811366E+02 -0.53360530444E+02  0.31877377105E+02  0.97482961104E+02  0.47000000000E+01 0.  1.
         11    1    6    6    0    0 -0.72245064443E+02  0.26918153998E+02 -0.30234655152E+02  0.82813469455E+02  0.00000000000E+00 0. -1.
        -12    1    6    6    0    0  0.18612514178E+02  0.27624385508E+02 -0.10268978337E+02  0.34856624547E+02  0.00000000000E+00 0.  1.
</event>
<event>
12    1  0.1593360E-001  0.1907348E+03  0.7818608E-02  0.1158030E+00
         21   -1    0    0  501  502  0.00000000000E+00  0.00000000000E+00  0.34779865486E+02  0.34779865486E+02  0.00000000000E+00 0. -1.
         21   -1    0    0  502  503 -0.00000000000E+00 -0.00000000000E+00 -0.10509921414E+04  0.10509921414E+04  0.00000000000E+00 0. -1.
         -6    2    1    2    0  503  0.78939123268E+02  0.20083500975E+02 -0.56122905158E+03  0.59242679484E+03  0.17133804806E+03 0.  0.
        -24    2    3    3    0    0  0.22988799070E+02  0.12165549979E+02 -0.11160523843E+03  0.13924162730E+03  0.79094981126E+02 0.  0.
          6    2    1    2  501    0 -0.78939123268E+02 -0.20083500975E+02 -0.45498322438E+03  0.49334521209E+03  0.17246747993E+03 0.  0.
         24    2    5    5    0    0 -0.14539759364E+02 -0.37996797284E+02 -0.39185850683E+03  0.40128553459E+03  0.76300915402E+02 0.  0.
          5    1    5    5  501    0 -0.64399363904E+02  0.17913296309E+02 -0.63124717549E+02  0.92059677501E+02  0.47000000000E+01 0. -1.
        -11    1    6    6    0    0 -0.23093084050E+01  0.20364256070E+02 -0.18104163603E+03  0.18219799617E+03  0.00000000000E+00 0.  1.
         12    1    6    6    0    0 -0.12230450959E+02 -0.58361053354E+02 -0.21081687079E+03  0.21908753842E+03  0.00000000000E+00 0. -1.
         -5    1    3    3    0  503  0.55950324198E+02  0.79179509956E+01 -0.44962381315E+03  0.45318516754E+03  0.47000000000E+01 0.  1.
         11    1    4    4    0    0  0.52092476875E+02  0.99600264834E+01 -0.61085111911E+02  0.80896348321E+02  0.00000000000E+00 0. -1.
        -12    1    4    4    0    0 -0.29103677805E+02  0.22055234959E+01 -0.50520126523E+02  0.58345278982E+02  0.00000000000E+00 0.  1.
</event>
<event>
12    1  0.1593360E-001  0.2504184E+03  0.7818608E-02  0.1113154E+00
         21   -1    0    0  503  502  0.00000000000E+00  0.00000000000E+00  0.13359679037E+03  0.13359679037E+03  0.00000000000E+00 0.  1.
         21   -1    0    0  501  503 -0.00000000000E+00 -0.00000000000E+00 -0.54693881550E+03  0.54693881550E+03  0.00000000000E+00 0.  1.
          6    2    1    2  501    0 -0.17947216098E+03  0.26113202813E+02 -0.33615567699E+03  0.41917777296E+03  0.17267660595E+03 0.  0.
         24    2    3    3    0    0 -0.20383077485E+03  0.30441770695E+02 -0.32125949151E+03  0.38991918599E+03  0.79722170955E+02 0.  0.
         -6    2    1    2    0  502  0.17947216098E+03 -0.26113202813E+02 -0.77186348136E+02  0.26135783290E+03  0.17163341328E+03 0.  0.
        -24    2    5    5    0    0  0.13053905118E+03 -0.39152338894E+02 -0.11679152436E+03  0.19689754832E+03  0.80963169697E+02 0.  0.
          5    1    3    3  501    0  0.24358613868E+02 -0.43285678819E+01 -0.14896185481E+02  0.29258586968E+02  0.47000000000E+01 0. -1.
        -11    1    4    4    0    0 -0.71930034394E+02 -0.13759498076E+02 -0.16611133119E+03  0.18153850276E+03  0.00000000000E+00 0.  1.
         12    1    4    4    0    0 -0.13190074046E+03  0.44201268771E+02 -0.15514816032E+03  0.20838068323E+03  0.00000000000E+00 0. -1.
         -5    1    5    5    0  502  0.48933109805E+02  0.13039136080E+02  0.39605176228E+02  0.64460284586E+02  0.47000000000E+01 0.  1.
         11    1    6    6    0    0  0.13911185385E+03 -0.26925395968E+02 -0.95426592826E+02  0.17083126016E+03  0.00000000000E+00 0. -1.
        -12    1    6    6    0    0 -0.85728026681E+01 -0.12226942926E+02 -0.21364931539E+02  0.26066288162E+02  0.00000000000E+00 0.  1.
</event>
<event>
12    1  0.1593360E-001  0.1942150E+03  0.7818608E-02  0.1155464E+00
         21   -1    0    0  501  502  0.00000000000E+00  0.00000000000E+00  0.24917097032E+02  0.24917097032E+02  0.00000000000E+00 0.  1.
         21   -1    0    0  502  503 -0.00000000000E+00 -0.00000000000E+00 -0.17192853880E+04  0.17192853880E+04  0.00000000000E+00 0.  1.
         -6    2    1    2    0  503  0.44938499613E+02  0.71305529481E+02 -0.11738483917E+04  0.11898065057E+04  0.17497293221E+03 0.  0.
        -24    2    3    3    0    0  0.95680206030E+02  0.58298754414E+02 -0.73338242003E+03  0.74621180423E+03  0.80180023485E+02 0.  0.
          6    2    1    2  501    0 -0.44938499613E+02 -0.71305529481E+02 -0.52051989925E+03  0.55439597932E+03  0.17120160365E+03 0.  0.
         24    2    5    5    0    0 -0.73760531586E+02 -0.33251456603E+02 -0.47450190332E+03  0.48792366976E+03  0.79819645876E+02 0.  0.
          5    1    5    5  501    0  0.28822031973E+02 -0.38054072877E+02 -0.46017995928E+02  0.66472309564E+02  0.47000000000E+01 0. -1.
        -13    1    6    6    0    0 -0.61599203448E+02 -0.52877042320E+02 -0.26506864801E+03  0.27722162908E+03  0.00000000000E+00 0.  1.
         14    1    6    6    0    0 -0.12161328137E+02  0.19625585717E+02 -0.20943325530E+03  0.21070204067E+03  0.00000000000E+00 0. -1.
         -5    1    3    3    0  503 -0.50741706418E+02  0.13006775067E+02 -0.44046597165E+03  0.44359470144E+03  0.47000000000E+01 0.  1.
         11    1    4    4    0    0  0.43249490684E+02  0.15652010371E+02 -0.11073631281E+03  0.11990844360E+03  0.00000000000E+00 0. -1.
        -12    1    4    4    0    0  0.52430715346E+02  0.42646744043E+02 -0.62264610722E+03  0.62630336063E+03  0.00000000000E+00 0.  1.
</event>
<event>
12    1  0.1593360E-001  0.1763985E+03  0.7818608E-02  0.1171358E+00
         21   -1    0    0  503  502  0.00000000000E+00  0.00000000000E+00  0.84886707859E+03  0.84886707859E+03  0.00000000000E+00 0.  1.
         21   -1    0    0  501  503 -0.00000000000E+00 -0.00000000000E+00 -0.44546281953E+02  0.44546281953E+02  0.00000000000E+00 0.  1.
          6    2    1    2  501    0 -0.83329754449E+01  0.40186174612E+02  0.21383944438E+03  0.27714664668E+03  0.17146016647E+03 0.  0.
         24    2    3    3    0    0  0.54605526972E+02  0.43440161691E+02  0.87436699259E+02  0.13582577953E+03  0.77036710624E+02 0.  0.
         -6    2    1    2    0  502  0.83329754449E+01 -0.40186174612E+02  0.59048135226E+03  0.61626671386E+03  0.17155776911E+03 0.  0.
        -24    2    5    5    0    0 -0.21339048926E+02 -0.80392008937E+02  0.30938221985E+03  0.33072205819E+03  0.82106587454E+02 0.  0.
          5    1    3    3  501    0 -0.62938502417E+02 -0.32539870797E+01  0.12640274512E+03  0.14132086715E+03  0.47000000000E+01 0. -1.
        -11    1    4    4    0    0 -0.78558549718E+01  0.35538822901E+02  0.13755206312E+02  0.38909228869E+02  0.00000000000E+00 0.  1.
         12    1    4    4    0    0  0.62461381944E+02  0.79013387907E+01  0.73681492947E+02  0.96916550661E+02  0.00000000000E+00 0. -1.
         -5    1    5    5    0  502  0.29672024371E+02  0.40205834325E+02  0.28109913241E+03  0.28554465568E+03  0.47000000000E+01 0.  1.
         11    1    6    6    0    0  0.18818995639E+02 -0.45383996654E+02  0.70241064331E+02  0.85718544479E+02  0.00000000000E+00 0. -1.
        -12    1    6    6    0    0 -0.40158044566E+02 -0.35008012283E+02  0.23914115552E+03  0.24500351371E+03  0.00000000000E+00 0.  1.
</event>
<event>
12    1  0.1593360E-001  0.3191733E+03  0.7818608E-02  0.1076080E+00
         21   -1    0    0  503  502  0.00000000000E+00  0.00000000000E+00  0.64649872288E+03  0.64649872288E+03  0.00000000000E+00 0. -1.
         21   -1    0    0  501  503 -0.00000000000E+00 -0.00000000000E+00 -0.30698019321E+03  0.30698019321E+03  0.00000000000E+00 0. -1.
          6    2    1    2  501    0 -0.25545576163E+03  0.82877006741E+02 -0.16312455009E+03  0.35806168370E+03  0.17167500137E+03 0.  0.
         24    2    3    3    0    0 -0.10522751151E+03  0.59845074771E+01 -0.13040644416E+03  0.18609207001E+03  0.80720346462E+02 0.  0.
         -6    2    1    2    0  502  0.25545576163E+03 -0.82877006741E+02  0.50264307975E+03  0.59541723239E+03  0.17246846266E+03 0.  0.
        -24    2    5    5    0    0  0.10655391835E+03 -0.97390837903E+02  0.21166589432E+03  0.26819831077E+03  0.79304289022E+02 0.  0.
          5    1    3    3  501    0 -0.15022825012E+03  0.76892499264E+02 -0.32718105928E+02  0.17196961369E+03  0.47000000000E+01 0. -1.
        -11    1    4    4    0    0 -0.34676629942E+02 -0.64390551408E+01  0.22371825704E+01  0.35340275623E+02  0.00000000000E+00 0.  1.
         12    1    4    4    0    0 -0.70550881571E+02  0.12423562618E+02 -0.13264362673E+03  0.15075179438E+03  0.00000000000E+00 0. -1.
         -5    1    5    5    0  502  0.14890184328E+03  0.14513831162E+02  0.29097718543E+03  0.32721892163E+03  0.47000000000E+01 0.  1.
         13    1    6    6    0    0  0.11896833617E+03 -0.90644294859E+02  0.18388373818E+03  0.23702970777E+03  0.00000000000E+00 0. -1.
        -14    1    6    6    0    0 -0.12414417816E+02 -0.67465430443E+01  0.27782156143E+02  0.31168602995E+02  0.00000000000E+00 0.  1.
</event>
<event>
12    1  0.1593360E-001  0.1970149E+03  0.7818608E-02  0.1154688E+00
         21   -1    0    0  503  502  0.00000000000E+00  0.00000000000E+00  0.51293627221E+02  0.51293627221E+02  0.00000000000E+00 0.  1.
         21   -1    0    0  501  503 -0.00000000000E+00 -0.00000000000E+00 -0.13034441387E+04  0.13034441387E+04  0.00000000000E+00 0. -1.
          6    2    1    2  501    0  0.73638102759E+02 -0.15121976981E+02 -0.10905926243E+04  0.11082450804E+04  0.18210887313E+03 0.  0.
         24    2    3    3    0    0  0.54615546666E+02 -0.64952033968E+02 -0.45686801422E+03  0.47226248343E+03  0.84272452106E+02 0.  0.
         -6    2    1    2    0  502 -0.73638102759E+02  0.15121976981E+02 -0.16155788721E+03  0.24649268556E+03  0.17031279679E+03 0.  0.
        -24    2    5    5    0    0 -0.10648807976E+03  0.46299782262E+02 -0.11885649878E+03  0.18406933171E+03  0.79191354363E+02 0.  0.
          5    1    3    3  501    0  0.19022556093E+02  0.49830056987E+02 -0.63372461005E+03  0.63598259693E+03  0.47000000000E+01 0. -1.
        -11    1    4    4    0    0  0.77305455804E+02 -0.45559835204E+02 -0.34627932787E+03  0.35771665462E+03  0.00000000000E+00 0.  1.
         12    1    4    4    0    0 -0.22689909138E+02 -0.19392198764E+02 -0.11058868634E+03  0.11454582880E+03  0.00000000000E+00 0. -1.
         -5    1    5    5    0  502  0.32849977006E+02 -0.31177805281E+02 -0.42701388434E+02  0.62423353849E+02  0.47000000000E+01 0.  1.
         13    1    6    6    0    0 -0.18004274339E+02  0.14585288843E+02 -0.78372653529E+02  0.81726111900E+02  0.00000000000E+00 0. -1.
        -14    1    6    6    0    0 -0.88483805426E+02  0.31714493419E+02 -0.40483845250E+02  0.10234321981E+03  0.00000000000E+00 0.  1.
</event>
<event>
12    1  0.1593360E-001  0.2380949E+03  0.7818608E-02  0.1121105E+00
         21   -1    0    0  501  502  0.00000000000E+00  0.00000000000E+00  0.80497104125E+03  0.80497104125E+03  0.00000000000E+00 0. -1.
         21   -1    0    0  502  503 -0.00000000000E+00 -0.00000000000E+00 -0.94839642859E+02  0.94839642859E+02  0.00000000000E+00 0.  1.
         -6    2    1    2    0  503 -0.15375304140E+03  0.58706555157E+02  0.12637102820E+03  0.26936216210E+03  0.17175529174E+03 0.  0.
        -24    2    3    3    0    0 -0.16538035419E+03  0.85680579548E+02  0.12845939026E+03  0.23954197345E+03  0.78655698046E+02 0.  0.
          6    2    1    2  501    0  0.15375304140E+03 -0.58706555157E+02  0.58376037019E+03  0.63044852201E+03  0.17205438601E+03 0.  0.
         24    2    5    5    0    0  0.80502227575E+02  0.15824771118E+02  0.18156740822E+03  0.21487437823E+03  0.80456464414E+02 0.  0.
          5    1    5    5  501    0  0.73250813826E+02 -0.74531326275E+02  0.40219296197E+03  0.41557414379E+03  0.47000000000E+01 0. -1.
        -13    1    6    6    0    0 -0.39457422466E+01  0.17696981909E+02  0.83492068835E+02  0.85438150782E+02  0.00000000000E+00 0.  1.
         14    1    6    6    0    0  0.84447969822E+02 -0.18722107913E+01  0.98075339381E+02  0.12943622744E+03  0.00000000000E+00 0. -1.
         -5    1    3    3    0  503  0.11627312790E+02 -0.26974024391E+02 -0.20883620637E+01  0.29820188642E+02  0.47000000000E+01 0.  1.
         11    1    4    4    0    0 -0.11695942663E+03  0.56063933650E+02  0.42412753648E+02  0.13646066762E+03  0.00000000000E+00 0. -1.
        -12    1    4    4    0    0 -0.48420927556E+02  0.29616645898E+02  0.86046636616E+02  0.10308130584E+03  0.00000000000E+00 0.  1.
</event>
<event>
12    1  0.1593360E-001  0.1962612E+03  0.7818608E-02  0.1153028E+00
         21   -1    0    0  503  502  0.00000000000E+00  0.00000000000E+00  0.36767495923E+03  0.36767495923E+03  0.00000000000E+00 0. -1.
         21   -1    0    0  501  503 -0.00000000000E+00 -0.00000000000E+00 -0.10459036018E+03  0.10459036018E+03  0.00000000000E+00 0.  1.
          6    2    1    2  501    0  0.72933859211E+02 -0.60202986653E+02  0.12583344181E+03  0.23313628268E+03  0.17197303219E+03 0.  0.
         24    2    3    3    0    0  0.19326027748E+02 -0.59680016890E+02  0.74557687218E+01  0.10309999321E+03  0.81478956477E+02 0.  0.
         -6    2    1    2    0  502 -0.72933859211E+02  0.60202986653E+02  0.13725115724E+03  0.23912903674E+03  0.17146739814E+03 0.  0.
        -24    2    5    5    0    0 -0.20951110662E+01 -0.29035111320E+02  0.67338096765E+02  0.10536995333E+03  0.75637164206E+02 0.  0.
          5    1    3    3  501    0  0.53607831464E+02 -0.52296976314E+00  0.11837767309E+03  0.13003628946E+03  0.47000000000E+01 0. -1.
        -11    1    4    4    0    0 -0.65790441069E+01  0.16547022172E+02 -0.10418769917E+02  0.20631008960E+02  0.00000000000E+00 0.  1.
         12    1    4    4    0    0  0.25905071855E+02 -0.76227039062E+02  0.17874538639E+02  0.82468984252E+02  0.00000000000E+00 0. -1.
         -5    1    5    5    0  502 -0.70838748145E+02  0.89238097973E+02  0.69913060477E+02  0.13375908341E+03  0.47000000000E+01 0.  1.
         11    1    6    6    0    0  0.10477479301E+01  0.26158568039E+01  0.73007623157E+02  0.73061984106E+02  0.00000000000E+00 0. -1.
        -12    1    6    6    0    0 -0.31428589963E+01 -0.31650968124E+02 -0.56695263922E+01  0.32307969224E+02  0.00000000000E+00 0.  1.
</event>
<event>
12    1  0.1593360E-001  0.2198779E+03  0.7818608E-02  0.1134392E+00
         21   -1    0    0  503  502  0.00000000000E+00  0.00000000000E+00  0.51515707298E+02  0.51515707298E+02  0.00000000000E+00 0. -1.
         21   -1    0    0  501  503 -0.00000000000E+00 -0.00000000000E+00 -0.21158828940E+04  0.21158828940E+04  0.00000000000E+00 0. -1.
          6    2    1    2  501    0 -0.42435709604E+02  0.12734089204E+03 -0.18461434605E+04  0.18591912171E+04  0.17415456580E+03 0.  0.
         24    2    3    3    0    0  0.14271807368E+02  0.98626230063E+02 -0.71802307751E+03  0.72927176741E+03  0.79682828504E+02 0.  0.
         -6    2    1    2    0  502  0.42435709604E+02 -0.12734089204E+03 -0.21822372620E+03  0.30820738419E+03  0.17132922914E+03 0.  0.
        -24    2    5    5    0    0  0.16949642103E+02 -0.12957046874E+03 -0.89518478173E+02  0.17689995287E+03  0.78766989628E+02 0.  0.
          5    1    3    3  501    0 -0.56707516971E+02  0.28714661972E+02 -0.11281203830E+04  0.11299194497E+04  0.47000000000E+01 0. -1.
        -11    1    4    4    0    0 -0.25134447630E+02  0.64538496640E+01 -0.10845464310E+03  0.11151592820E+03  0.00000000000E+00 0.  1.
         12    1    4    4    0    0  0.39406254997E+02  0.92172380399E+02 -0.60956843441E+03  0.61775583920E+03  0.00000000000E+00 0. -1.
         -5    1    5    5    0  502  0.25486067501E+02  0.22295767046E+01 -0.12870524803E+03  0.13130743132E+03  0.47000000000E+01 0.  1.
         11    1    6    6    0    0  0.15811511417E+02 -0.37812440703E+02  0.93185391174E+01  0.42031175769E+02  0.00000000000E+00 0. -1.
        -12    1    6    6    0    0  0.11381306853E+01 -0.91758028037E+02 -0.98837017291E+02  0.13486877710E+03  0.00000000000E+00 0.  1.
</event>
<event>
12    1  0.1593360E-001  0.2359799E+03  0.7818608E-02  0.1122661E+00
         21   -1    0    0  503  502  0.00000000000E+00  0.00000000000E+00  0.17427198768E+03  0.17427198768E+03  0.00000000000E+00 0. -1.
         21   -1    0    0  501  503 -0.00000000000E+00 -0.00000000000E+00 -0.34105480793E+03  0.34105480793E+03  0.00000000000E+00 0. -1.
          6    2    1    2  501    0  0.92685941920E+02 -0.13200257201E+03 -0.15015175232E+03  0.27969998415E+03  0.17225321349E+03 0.  0.
         24    2    3    3    0    0  0.19549521366E+02 -0.46915555260E+01 -0.84289786963E+02  0.11871265728E+03  0.81140201713E+02 0.  0.
         -6    2    1    2    0  502 -0.92685941920E+02  0.13200257201E+03 -0.16631067923E+02  0.23562681146E+03  0.17096209818E+03 0.  0.
        -24    2    5    5    0    0 -0.11579329088E+03  0.14931946900E+03 -0.18861445921E+02  0.20628590004E+03  0.80583673141E+02 0.  0.
          5    1    3    3  501    0  0.73136420554E+02 -0.12731101648E+03 -0.65861965360E+02  0.16098732686E+03  0.47000000000E+01 0. -1.
        -11    1    4    4    0    0  0.36021379043E+02  0.55209847042E+00 -0.36148491744E+01  0.36206514544E+02  0.00000000000E+00 0.  1.
         12    1    4    4    0    0 -0.16471857677E+02 -0.52436539964E+01 -0.80674937788E+02  0.82506142739E+02  0.00000000000E+00 0. -1.
         -5    1    5    5    0  502  0.23107348959E+02 -0.17316896991E+02  0.22303779985E+01  0.29340911426E+02  0.47000000000E+01 0.  1.
         13    1    6    6    0    0 -0.89227033848E+02  0.12632263274E+03 -0.46593370751E+02  0.16152341412E+03  0.00000000000E+00 0. -1.
        -14    1    6    6    0    0 -0.26566257031E+02  0.22996836262E+02  0.27731924830E+02  0.44762485917E+02  0.00000000000E+00 0.  1.
</event>
<event>
12    1  0.1593360E-001  0.1859099E+03  0.7818608E-02  0.1163191E+00
         21   -1    0    0  501  502  0.00000000000E+00  0.00000000000E+00  0.11810063179E+04  0.11810063179E+04  0.00000000000E+00 0.  1.
         21   -1    0    0  502  503 -0.00000000000E+00 -0.00000000000E+00 -0.31529049142E+02  0.31529049142E+02  0.00000000000E+00 0.  1.
         -6    2    1    2    0  503  0.56761779002E+02  0.67568329986E+01  0.39613834281E+03  0.43759351647E+03  0.17690377232E+03 0.  0.
        -24    2    3    3    0    0  0.72066510869E+02 -0.17215410829E+02  0.13007567462E+03  0.16997375506E+03  0.80507415322E+02 0.  0.
          6    2    1    2  501    0 -0.56761779002E+02 -0.67568329986E+01  0.75333892592E+03  0.77494185055E+03  0.17247544775E+03 0.  0.
         24    2    5    5    0    0  0.12505182547E+02 -0.48335351043E+02  0.51237203433E+03  0.52074936843E+03  0.78499155417E+02 0.  0.
          5    1    5    5  501    0 -0.69266961550E+02  0.41578518044E+02  0.24096689159E+03  0.25419248212E+03  0.47000000000E+01 0. -1.
        -13    1    6    6    0    0 -0.14040753582E+02 -0.76171604700E+01  0.18295611621E+02  0.24287719105E+02  0.00000000000E+00 0.  1.
         14    1    6    6    0    0  0.26545936129E+02 -0.40718190573E+02  0.49407642271E+03  0.49646164932E+03  0.00000000000E+00 0. -1.
         -5    1    3    3    0  503 -0.15304731867E+02  0.23972243828E+02  0.26606266819E+03  0.26761976141E+03  0.47000000000E+01 0.  1.
         13    1    4    4    0    0  0.22144291930E+02  0.25681650986E+02  0.14313651467E+02  0.36807573687E+02  0.00000000000E+00 0. -1.
        -14    1    4    4    0    0  0.49922218939E+02 -0.42897061815E+02  0.11576202316E+03  0.13316618137E+03  0.00000000000E+00 0.  1.
</event>
<event>
12    1  0.1593360E-001  0.2475084E+03  0.7818608E-02  0.1115175E+00
         21   -1    0    0  501  502  0.00000000000E+00  0.00000000000E+00  0.48921217803E+03  0.48921217803E+03  0.00000000000E+00 0.  1.
         21   -1    0    0  502  503 -0.00000000000E+00 -0.00000000000E+00 -0.13673314309E+03  0.13673314309E+03  0.00000000000E+00 0.  1.
         -6    2    1    2    0  503 -0.17687433263E+03 -0.30968178084E+02  0.26994471936E+03  0.36503860703E+03  0.16774825040E+03 0.  0.
        -24    2    3    3    0    0 -0.12866228177E+03 -0.23915906272E+02  0.27075919381E+03  0.31608056627E+03  0.97316134426E+02 0.  0.
          6    2    1    2  501    0  0.17687433263E+03  0.30968178084E+02  0.82534315575E+02  0.26090671409E+03  0.17034330809E+03 0.  0.
         24    2    5    5    0    0  0.11221012673E+03  0.79177021974E+02  0.17837632754E+02  0.15740162764E+03  0.74812952689E+02 0.  0.
          5    1    5    5  501    0  0.64664205898E+02 -0.48208843891E+02  0.64696682821E+02  0.10350508645E+03  0.47000000000E+01 0. -1.
        -11    1    6    6    0    0  0.69339794161E+02  0.18718473884E+02 -0.19486571180E+02  0.74418510971E+02  0.00000000000E+00 0.  1.
         12    1    6    6    0    0  0.42870332572E+02  0.60458548091E+02  0.37324203934E+02  0.82983116665E+02  0.00000000000E+00 0. -1.
         -5    1    3    3    0  503 -0.48212050861E+02 -0.70522718117E+01 -0.81447444753E+00  0.48958040755E+02  0.47000000000E+01 0.  1.
         13    1    4    4    0    0 -0.68205954991E+02 -0.49380556793E+02  0.87510514010E+02  0.12144373902E+03  0.00000000000E+00 0. -1.
        -14    1    4    4    0    0 -0.60456326779E+02  0.25464650521E+02  0.18324867980E+03  0.19463682725E+03  0.00000000000E+00 0.  1.
</event>
<event>
12    1  0.1593360E-001  0.2044062E+03  0.7818608E-02  0.1146222E+00
         21   -1    0    0  501  502  0.00000000000E+00  0.00000000000E+00  0.82777359079E+03  0.82777359079E+03  0.00000000000E+00 0.  1.
         21   -1    0    0  502  503 -0.00000000000E+00 -0.00000000000E+00 -0.54717414629E+02  0.54717414629E+02  0.00000000000E+00 0.  1.
         -6    2    1    2    0  503  0.96435692578E+01 -0.10971907123E+03  0.51130997396E+03  0.55038715222E+03  0.17133842198E+03 0.  0.
        -24    2    3    3    0    0  0.43631086339E+02 -0.86539504187E+02  0.20350260949E+03  0.23980719913E+03  0.81862220857E+02 0.  0.
          6    2    1    2  501    0 -0.96435692578E+01  0.10971907123E+03  0.26174620220E+03  0.33210385319E+03  0.17219355946E+03 0.  0.
         24    2    5    5    0    0 -0.68955609739E+01  0.36452922924E+02  0.37887649842E+02  0.96497780475E+02  0.80622473761E+02 0.  0.
          5    1    5    5  501    0 -0.27480082839E+01  0.73266148302E+02  0.22385855236E+03  0.23560607272E+03  0.47000000000E+01 0. -1.
        -11    1    6    6    0    0 -0.42773533545E+02  0.10486931958E+02  0.23579943833E+02  0.49955626960E+02  0.00000000000E+00 0.  1.
         12    1    6    6    0    0  0.35877972571E+02  0.25965990966E+02  0.14307706008E+02  0.46542153516E+02  0.00000000000E+00 0. -1.
         -5    1    3    3    0  503 -0.33987517081E+02 -0.23179567039E+02  0.30780736447E+03  0.31057995310E+03  0.47000000000E+01 0.  1.
         13    1    4    4    0    0  0.48103909852E+02 -0.99216098774E+02  0.16029428795E+03  0.19455610797E+03  0.00000000000E+00 0. -1.
        -14    1    4    4    0    0 -0.44728235132E+01  0.12676594588E+02  0.43208321541E+02  0.45251091157E+02  0.00000000000E+00 0.  1.
</event>
<event>
12    1  0.1593360E-001  0.2126411E+03  0.7818608E-02  0.1139541E+00
         21   -1    0    0  503  502  0.00000000000E+00  0.00000000000E+00  0.13233307670E+03  0.13233307670E+03  0.00000000000E+00 0. -1.
         21   -1    0    0  501  503 -0.00000000000E+00 -0.00000000000E+00 -0.34179376302E+03  0.34179376302E+03  0.00000000000E+00 0.  1.
          6    2    1    2  501    0 -0.91211944223E+02  0.85482864120E+02 -0.95601542549E+02  0.23314348068E+03  0.17201537379E+03 0.  0.
         24    2    3    3    0    0 -0.64232722777E+02  0.35128673832E+02 -0.12751799060E+03  0.16753728794E+03  0.80299679480E+02 0.  0.
         -6    2    1    2    0  502  0.91211944223E+02 -0.85482864120E+02 -0.11385914377E+03  0.24098335904E+03  0.17170362806E+03 0.  0.
        -24    2    5    5    0    0  0.29079499305E+02 -0.43902834554E+02  0.83182957511E+01  0.97669869456E+02  0.81836014038E+02 0.  0.
          5    1    3    3  501    0 -0.26979221446E+02  0.50354190288E+02  0.31916448052E+02  0.65606192738E+02  0.47000000000E+01 0. -1.
        -13    1    4    4    0    0 -0.78437976232E+02  0.14239706391E+02 -0.75917787046E+02  0.11008540205E+03  0.00000000000E+00 0.  1.
         14    1    4    4    0    0  0.14205253456E+02  0.20888967441E+02 -0.51600203555E+02  0.57451885900E+02  0.00000000000E+00 0. -1.
         -5    1    5    5    0  502  0.62132444917E+02 -0.41580029566E+02 -0.12217743952E+03  0.14331348959E+03  0.47000000000E+01 0.  1.
         13    1    6    6    0    0 -0.17015388872E+02 -0.34195058478E+02 -0.19581488225E+02  0.42921558264E+02  0.00000000000E+00 0. -1.
        -14    1    6    6    0    0  0.46094888177E+02 -0.97077760763E+01  0.27899783976E+02  0.54748311192E+02  0.00000000000E+00 0.  1.
</event>
<event>
12    1  0.1593360E-001  0.1762000E+03  0.7818608E-02  0.1171997E+00
         21   -1    0    0  503  502  0.00000000000E+00  0.00000000000E+00  0.18888851554E+03  0.18888851554E+03  0.00000000000E+00 0. -1.
         21   -1    0    0  501  503 -0.00000000000E+00 -0.00000000000E+00 -0.25152181528E+03  0.25152181528E+03  0.00000000000E+00 0.  1.
          6    2    1    2  501    0  0.40735978323E+02  0.64230297880E+01 -0.16211315734E+03  0.23806731850E+03  0.16939509176E+03 0.  0.
         24    2    3    3    0    0 -0.17393755092E+01 -0.46413528449E+01 -0.26394052906E+02  0.95349619685E+02  0.91489542363E+02 0.  0.
         -6    2    1    2    0  502 -0.40735978323E+02 -0.64230297880E+01  0.99479857605E+02  0.20234301232E+03  0.17130609249E+03 0.  0.
        -24    2    5    5    0    0 -0.80750645797E+00  0.60289077820E+02  0.43174942942E+02  0.10623306704E+03  0.76065523484E+02 0.  0.
          5    1    3    3  501    0  0.42475353832E+02  0.11064382633E+02 -0.13571910444E+03  0.14271769881E+03  0.47000000000E+01 0. -1.
        -11    1    4    4    0    0 -0.63025623393E+01 -0.15725922961E+02 -0.58592257560E+02  0.60992455197E+02  0.00000000000E+00 0.  1.
         12    1    4    4    0    0  0.45631868301E+01  0.11084570116E+02  0.32198204654E+02  0.34357164487E+02  0.00000000000E+00 0. -1.
         -5    1    5    5    0  502 -0.39928471865E+02 -0.66712107608E+02  0.56304914662E+02  0.96109945282E+02  0.47000000000E+01 0.  1.
         11    1    6    6    0    0 -0.35030421919E+02  0.34960575413E+02  0.39825665131E+02  0.63525238261E+02  0.00000000000E+00 0. -1.
        -12    1    6    6    0    0  0.34222915461E+02  0.25328502408E+02  0.33492778114E+01  0.42707828776E+02  0.00000000000E+00 0.  1.
</event>
<event>
12    1  0.1593360E-001  0.2321346E+03  0.7818608E-02  0.1125191E+00
         21   -1    0    0  503  502  0.00000000000E+00  0.00000000000E+00  0.30207831228E+03  0.30207831228E+03  0.00000000000E+00 0.  1.
         21   -1    0    0  501  503 -0.00000000000E+00 -0.00000000000E+00 -0.22272204164E+03  0.22272204164E+03  0.00000000000E+00 0.  1.
          6    2    1    2  501    0  0.92468815227E+02  0.12545774384E+03  0.15703268368E+03  0.28026013645E+03  0.17203590630E+03 0.  0.
         24    2    3    3    0    0  0.88547693428E+02  0.87153371744E+02  0.18201266863E+03  0.23412241039E+03  0.79046108601E+02 0.  0.
         -6    2    1    2    0  502 -0.92468815227E+02 -0.12545774384E+03 -0.77676413048E+02  0.24454021748E+03  0.17168624156E+03 0.  0.
        -24    2    5    5    0    0 -0.34731872394E+01 -0.11627036480E+03 -0.36249370672E+02  0.14583398883E+03  0.80141591334E+02 0.  0.
          5    1    3    3  501    0  0.39211217991E+01  0.38304372096E+02 -0.24979984950E+02  0.46137726059E+02  0.47000000000E+01 0. -1.
        -13    1    4    4    0    0  0.51547467652E+02  0.92178258230E+02  0.15686170487E+03  0.18910200202E+03  0.00000000000E+00 0.  1.
         14    1    4    4    0    0  0.37000225776E+02 -0.50248864869E+01  0.25150963762E+02  0.45020408371E+02  0.00000000000E+00 0. -1.
         -5    1    5    5    0  502 -0.88995627988E+02 -0.91873790352E+01 -0.41427042376E+02  0.98706228651E+02  0.47000000000E+01 0.  1.
         11    1    6    6    0    0  0.26031371633E+00  0.51960576499E+01 -0.23010377894E+02  0.23591190499E+02  0.00000000000E+00 0. -1.
        -12    1    6    6    0    0 -0.37335009557E+01 -0.12146642245E+03 -0.13238992778E+02  0.12224279833E+03  0.00000000000E+00 0.  1.
</event>
<event>
12    1  0.1593360E-001  0.1868327E+03  0.7818608E-02  0.1161356E+00
         21   -1    0    0  501  502  0.00000000000E+00  0.00000000000E+00  0.66809498139E+02  0.66809498139E+02  0.00000000000E+00 0. -1.
         21   -1    0    0  502  503 -0.00000000000E+00 -0.00000000000E+00 -0.63750581212E+03  0.63750581212E+03  0.00000000000E+00 0.  1.
         -6    2    1    2    0  503  0.48737047363E+02 -0.54093734676E+02 -0.43497222329E+03  0.47338787251E+03  0.17202851764E+03 0.  0.
        -24    2    3    3    0    0  0.41234923770E+02 -0.32415246803E+02 -0.10015524454E+03  0.13775304422E+03  0.78700451207E+02 0.  0.
          6    2    1    2  501    0 -0.48737047363E+02  0.54093734676E+02 -0.13572409068E+03  0.23092743775E+03  0.17206109612E+03 0.  0.
         24    2    5    5    0    0 -0.57271663913E+02 -0.12980205294E+02 -0.27505443541E+02  0.10323593963E+03  0.80327956464E+02 0.  0.
          5    1    5    5  501    0  0.85346165494E+01  0.67073939970E+02 -0.10821864714E+03  0.12769149812E+03  0.47000000000E+01 0. -1.
        -11    1    6    6    0    0 -0.29344591188E+02  0.97707137499E+01 -0.51415824155E+02  0.60001323758E+02  0.00000000000E+00 0.  1.
         12    1    6    6    0    0 -0.27927072724E+02 -0.22750919044E+02  0.23910380614E+02  0.43234615870E+02  0.00000000000E+00 0. -1.
         -5    1    3    3    0  503  0.75021235939E+01 -0.21678487874E+02 -0.33481697876E+03  0.33563482829E+03  0.47000000000E+01 0.  1.
         13    1    4    4    0    0  0.52340895733E+02 -0.45621679820E+02 -0.98369445043E+02  0.12040537676E+03  0.00000000000E+00 0. -1.
        -14    1    4    4    0    0 -0.11105971964E+02  0.13206433017E+02 -0.17857994927E+01  0.17347667455E+02  0.00000000000E+00 0.  1.
</event>
<event>
12    1  0.1593360E-001  0.1871787E+03  0.7818608E-02  0.1163293E+00
         21   -1    0    0  503  502  0.00000000000E+00  0.00000000000E+00  0.18682058225E+03  0.18682058225E+03  0.00000000000E+00 0. -1.
         21   -1    0    0  501  503 -0.00000000000E+00 -0.00000000000E+00 -0.27093147848E+03  0.27093147848E+03  0.00000000000E+00 0. -1.
          6    2    1    2  501    0 -0.66582203726E+02  0.32381996631E+02 -0.17674257281E+03  0.25743698006E+03  0.17191299573E+03 0.  0.
         24    2    3    3    0    0 -0.35266474252E+02 -0.30088322151E+02 -0.15743781082E+03  0.18478727616E+03  0.84915498107E+02 0.  0.
         -6    2    1    2    0  502  0.66582203726E+02 -0.32381996631E+02  0.92631676576E+02  0.20031508067E+03  0.16144262287E+03 0.  0.
        -24    2    5    5    0    0  0.10093522549E+03 -0.34866907087E+02  0.42836578042E+02  0.13958661352E+03  0.79030559289E+02 0.  0.
          5    1    3    3  501    0 -0.31315729474E+02  0.62470318782E+02 -0.19304761991E+02  0.72649703900E+02  0.47000000000E+01 0. -1.
        -11    1    4    4    0    0 -0.50103423206E+02 -0.19365214342E+02 -0.42758545563E+02  0.68656083213E+02  0.00000000000E+00 0.  1.
         12    1    4    4    0    0  0.14836948954E+02 -0.10723107809E+02 -0.11467926526E+03  0.11613119295E+03  0.00000000000E+00 0. -1.
         -5    1    5    5    0  502 -0.34353021761E+02  0.24849104553E+01  0.49795098533E+02  0.60728467147E+02  0.47000000000E+01 0.  1.
         11    1    6    6    0    0  0.42029729698E+02 -0.56007751386E+02  0.18403563836E+02  0.72402054914E+02  0.00000000000E+00 0. -1.
        -12    1    6    6    0    0  0.58905495789E+02  0.21140844300E+02  0.24433014207E+02  0.67184558606E+02  0.00000000000E+00 0.  1.
</event>
<event>
12    1  0.1593360E-001  0.1791318E+03  0.7818608E-02  0.1169044E+00
         21   -1    0    0  503  502  0.00000000000E+00  0.00000000000E+00  0.54157417663E+02  0.54157417663E+02  0.00000000000E+00 0. -1.
         21   -1    0    0  501  503 -0.00000000000E+00 -0.00000000000E+00 -0.61952916516E+03  0.61952916516E+03  0.00000000000E+00 0. -1.
          6    2    1    2  501    0  0.35696114315E+02  0.29666778188E+02 -0.20687998686E+03  0.27365585915E+03  0.17301407452E+03 0.  0.
         24    2    3    3    0    0 -0.37316127031E+02 -0.27157682386E+02 -0.85633616839E+02  0.12106955915E+03  0.72074189351E+02 0.  0.
         -6    2    1    2    0  502 -0.35696114315E+02 -0.29666778188E+02 -0.35849176064E+03  0.40003072367E+03  0.17132981973E+03 0.  0.
        -24    2    5    5    0    0 -0.37295073764E+02 -0.37006126318E+02 -0.97783779492E+02  0.13917221003E+03  0.83945581194E+02 0.  0.
          5    1    3    3  501    0  0.73012241346E+02  0.56824460574E+02 -0.12124637002E+03  0.15258630000E+03  0.47000000000E+01 0. -1.
        -11    1    4    4    0    0 -0.12445544312E+02 -0.27031693626E+02 -0.90899873836E+02  0.95647222108E+02  0.00000000000E+00 0.  1.
         12    1    4    4    0    0 -0.24870582718E+02 -0.12598875971E+00  0.52662569970E+01  0.25422337042E+02  0.00000000000E+00 0. -1.
         -5    1    5    5    0  502  0.15989594486E+01  0.73393481296E+01 -0.26070798115E+03  0.26085851364E+03  0.47000000000E+01 0.  1.
         11    1    6    6    0    0 -0.96011514010E+01 -0.29101433675E+02 -0.10508430707E+03  0.10946134999E+03  0.00000000000E+00 0. -1.
        -12    1    6    6    0    0 -0.27693922363E+02 -0.79046926423E+01  0.73005275753E+01  0.29710860043E+02  0.00000000000E+00 0.  1.
</event>
<event>
12    1  0.1593360E-001  0.2098759E+03  0.7818608E-02  0.1142087E+00
         21   -1    0    0  501  502  0.00000000000E+00  0.00000000000E+00  0.74620579156E+03  0.74620579156E+03  0.00000000000E+00 0.  1.
         21   -1    0    0  502  503 -0.00000000000E+00 -0.00000000000E+00 -0.60749002612E+02  0.60749002612E+02  0.00000000000E+00 0.  1.
         -6    2    1    2    0  503 -0.18042033561E+02  0.11566640172E+03  0.26563307047E+03  0.33853926153E+03  0.17419435125E+03 0.  0.
        -24    2    3    3    0    0  0.47481178464E+02  0.52629724486E+02  0.90951614826E+02  0.14155546794E+03  0.82106053715E+02 0.  0.
          6    2    1    2  501    0  0.18042033561E+02 -0.11566640172E+03  0.41982371848E+03  0.46841553264E+03  0.17163019885E+03 0.  0.
         24    2    5    5    0    0 -0.27857709117E+02 -0.10626367796E+03  0.18916692208E+03  0.23300133316E+03  0.80233880839E+02 0.  0.
          5    1    5    5  501    0  0.45899742678E+02 -0.94027237656E+01  0.23065679640E+03  0.23541419948E+03  0.47000000000E+01 0. -1.
        -11    1    6    6    0    0  0.22069458224E+02 -0.28237475415E+02  0.92097962525E+02  0.98825354568E+02  0.00000000000E+00 0.  1.
         12    1    6    6    0    0 -0.49927167341E+02 -0.78026202544E+02  0.97068959554E+02  0.13417597859E+03  0.00000000000E+00 0. -1.
         -5    1    3    3    0  503 -0.65523212026E+02  0.63036677238E+02  0.17468145564E+03  0.19698379359E+03  0.47000000000E+01 0.  1.
         11    1    4    4    0    0  0.18195391880E+02  0.38555473851E+02  0.99250927928E+02  0.10802010713E+03  0.00000000000E+00 0. -1.
        -12    1    4    4    0    0  0.29285786585E+02  0.14074250635E+02 -0.82993131020E+01  0.33535360812E+02  0.00000000000E+00 0.  1.
</event>
<event>
12    1  0.1593360E-001  0.2208685E+03  0.7818608E-02  0.1134039E+00
         21   -1    0    0  501  502  0.00000000000E+00  0.00000000000E+00  0.52579379269E+03  0.52579379269E+03  0.00000000000E+00 0. -1.
         21   -1    0    0  502  503 -0.00000000000E+00 -0.00000000000E+00 -0.15351330408E+03  0.15351330408E+03  0.00000000000E+00 0. -1.
         -6    2    1    2    0  503  0.13079236566E+03  0.27451618689E+02 -0.31694411000E+02  0.21889572568E+03  0.17044227396E+03 0.  0.
        -24    2    3    3    0    0  0.49447356753E+02 -0.43696705314E+02 -0.37879207736E+02  0.11054704691E+03  0.80195835652E+02 0.  0.
          6    2    1    2  501    0 -0.13079236566E+03 -0.27451618689E+02  0.40397489961E+03  0.46041137109E+03  0.17584844847E+03 0.  0.
         24    2    5    5    0    0 -0.35564491687E+02  0.19390517319E+02  0.29485303934E+03  0.30812150250E+03  0.79747854277E+02 0.  0.
          5    1    5    5  501    0 -0.95227873968E+02 -0.46842136008E+02  0.10912186027E+03  0.15228986859E+03  0.47000000000E+01 0. -1.
        -13    1    6    6    0    0 -0.37453793809E+02 -0.16449463528E+02  0.23338513545E+03  0.23694301629E+03  0.00000000000E+00 0.  1.
         14    1    6    6    0    0  0.18893021220E+01  0.35839980847E+02  0.61467903890E+02  0.71178486204E+02  0.00000000000E+00 0. -1.
         -5    1    3    3    0  503  0.81345008902E+02  0.71148324003E+02  0.61847967356E+01  0.10834867878E+03  0.47000000000E+01 0.  1.
         13    1    4    4    0    0  0.20486589198E+02 -0.40627041429E+02 -0.59046964393E+02  0.74543952379E+02  0.00000000000E+00 0. -1.
        -14    1    4    4    0    0  0.28960767555E+02 -0.30696638856E+01  0.21167756657E+02  0.36003094528E+02  0.00000000000E+00 0.  1.
</event>
<event>
12    1  0.1593360E-001  0.2412336E+03  0.7818608E-02  0.1119076E+00
         21   -1    0    0  503  502  0.00000000000E+00  0.00000000000E+00  0.17169890116E+03  0.17169890116E+03  0.00000000000E+00 0. -1.
         21   -1    0    0  501  503 -0.00000000000E+00 -0.00000000000E+00 -0.36257137166E+03  0.36257137166E+03  0.00000000000E+00 0.  1.
          6    2    1    2  501    0  0.10210537915E+03  0.13415706081E+03 -0.26093861180E+02  0.24264073895E+03  0.17253988870E+03 0.  0.
         24    2    3    3    0    0  0.81659041012E+02  0.16137027843E+03 -0.46269770366E+02  0.20279391640E+03  0.79220673680E+02 0.  0.
         -6    2    1    2    0  502 -0.10210537915E+03 -0.13415706081E+03 -0.16477860932E+03  0.29162953387E+03  0.17167460360E+03 0.  0.
        -24    2    5    5    0    0 -0.12280855532E+03 -0.13836740743E+03 -0.10470697002E+03  0.22777782779E+03  0.81802864033E+02 0.  0.
          5    1    3    3  501    0  0.20446338141E+02 -0.27213217617E+02  0.20175909186E+02  0.39846822557E+02  0.47000000000E+01 0. -1.
        -13    1    4    4    0    0  0.27467204512E+02  0.12121930212E+03 -0.52781667576E+02  0.13503507309E+03  0.00000000000E+00 0.  1.
         14    1    4    4    0    0  0.54191836500E+02  0.40150976306E+02  0.65118972107E+01  0.67758843311E+02  0.00000000000E+00 0. -1.
         -5    1    5    5    0  502  0.20703176163E+02  0.42103466207E+01 -0.60071639295E+02  0.63851706081E+02  0.47000000000E+01 0.  1.
         13    1    6    6    0    0 -0.36065595244E+02 -0.23510998834E+02  0.94427794243E+01  0.44075620355E+02  0.00000000000E+00 0. -1.
        -14    1    6    6    0    0 -0.86742960071E+02 -0.11485640860E+03 -0.11414974945E+03  0.18370220744E+03  0.00000000000E+00 0.  1.
</event>
<event>
12    1  0.1593360E-001  0.2271836E+03  0.7818608E-02  0.1128787E+00
         21   -1    0    0  501  502  0.00000000000E+00  0.00000000000E+00  0.11914278975E+03  0.11914278975E+03  0.00000000000E+00 0.  1.
         21   -1    0    0  502  503 -0.00000000000E+00 -0.00000000000E+00 -0.46462533325E+03  0.46462533325E+03  0.00000000000E+00 0.  1.
         -6    2    1    2    0  503  0.61530939692E+02  0.13432031793E+03 -0.25024921168E+03  0.33743137829E+03  0.17148545933E+03 0.  0.
        -24    2    3    3    0    0  0.96296055980E+02  0.80322509871E+02 -0.11796137479E+03  0.19030375215E+03  0.81092515989E+02 0.  0.
          6    2    1    2  501    0 -0.61530939692E+02 -0.13432031793E+03 -0.95233331818E+02  0.24633674470E+03  0.17258157478E+03 0.  0.
         24    2    5    5    0    0 -0.11015872314E+03 -0.92022556989E+02 -0.68755751699E+02  0.17650183830E+03  0.76304981837E+02 0.  0.
          5    1    5    5  501    0  0.48627783446E+02 -0.42297760943E+02 -0.26477580119E+02  0.69834906405E+02  0.47000000000E+01 0. -1.
        -11    1    6    6    0    0 -0.81384109649E+02 -0.56025395226E+02 -0.64626960545E+01  0.99015072862E+02  0.00000000000E+00 0.  1.
         12    1    6    6    0    0 -0.28774613489E+02 -0.35997161763E+02 -0.62293055645E+02  0.77486765438E+02  0.00000000000E+00 0. -1.
         -5    1    3    3    0  503 -0.34765116287E+02  0.53997808061E+02 -0.13228783689E+03  0.14712762615E+03  0.47000000000E+01 0.  1.
         13    1    4    4    0    0 -0.69382479591E+01  0.32249419060E+02 -0.13078808555E+02  0.35485483619E+02  0.00000000000E+00 0. -1.
        -14    1    4    4    0    0  0.10323430394E+03  0.48073090811E+02 -0.10488256623E+03  0.15481826853E+03  0.00000000000E+00 0.  1.
</event>
<event>
12    1  0.1593360E-001  0.1778119E+03  0.7818608E-02  0.1171129E+00
         21   -1    0    0  501  502  0.00000000000E+00  0.00000000000E+00  0.34551184774E+03  0.34551184774E+03  0.00000000000E+00 0. -1.
         21   -1    0    0  502  503 -0.00000000000E+00 -0.00000000000E+00 -0.11833586673E+03  0.11833586673E+03  0.00000000000E+00 0. -1.
         -6    2    1    2    0  503 -0.15137978736E+02  0.95496192885E+01 -0.29120122942E+01  0.17305989403E+03  0.17210721507E+03 0.  0.
        -24    2    3    3    0    0  0.26511738622E+02  0.62080402621E+02  0.11740242046E+02  0.10427791449E+03  0.78607897133E+02 0.  0.
          6    2    1    2  501    0  0.15137978736E+02 -0.95496192885E+01  0.23008799330E+03  0.29078782043E+03  0.17690878502E+03 0.  0.
         24    2    5    5    0    0  0.16863648420E+02 -0.54278954434E+02  0.22535692472E+03  0.24553117044E+03  0.79178435233E+02 0.  0.
          5    1    5    5  501    0 -0.17256696841E+01  0.44729335146E+02  0.47310685879E+01  0.45256649991E+02  0.47000000000E+01 0. -1.
        -13    1    6    6    0    0  0.14811627739E+02 -0.65794597297E+02  0.10621935493E+03  0.12582076423E+03  0.00000000000E+00 0.  1.
         14    1    6    6    0    0  0.20520206804E+01  0.11515642863E+02  0.11913756979E+03  0.11971040621E+03  0.00000000000E+00 0. -1.
         -5    1    3    3    0  503 -0.41649717358E+02 -0.52530783333E+02 -0.14652254340E+02  0.68781979549E+02  0.47000000000E+01 0.  1.
         13    1    4    4    0    0  0.13652595144E+02 -0.14204846413E+02 -0.12349477149E+02  0.23252539682E+02  0.00000000000E+00 0. -1.
        -14    1    4    4    0    0  0.12859143478E+02  0.76285249034E+02  0.24089719195E+02  0.81025374804E+02  0.00000000000E+00 0.  1.
</event>
<event>
12    1  0.1593360E-001  0.2754294E+03  0.7818608E-02  0.1098278E+00
         21   -1    0    0  501  502  0.00000000000E+00  0.00000000000E+00  0.14241876888E+04  0.14241876888E+04  0.00000000000E+00 0.  1.
         21   -1    0    0  502  503 -0.00000000000E+00 -0.00000000000E+00 -0.21685717562E+03  0.21685717562E+03  0.00000000000E+00 0.  1.
         -6    2    1    2    0  503 -0.82353644088E+02  0.19718543628E+03 -0.10932153872E+03  0.29589284521E+03  0.17302357654E+03 0.  0.
        -24    2    3    3    0    0 -0.62751896915E+02  0.10518323117E+03 -0.13337426424E+03  0.19868555205E+03  0.81767606952E+02 0.  0.
          6    2    1    2  501    0  0.82353644088E+02 -0.19718543628E+03  0.13166520519E+04  0.13451520192E+04  0.17377315682E+03 0.  0.
         24    2    5    5    0    0  0.85293050334E+02 -0.19232215229E+03  0.13184283456E+04  0.13375667137E+04  0.81047494905E+02 0.  0.
          5    1    5    5  501    0 -0.29394062455E+01 -0.48632839916E+01 -0.17762937009E+01  0.75853055028E+01  0.47000000000E+01 0. -1.
        -13    1    6    6    0    0  0.71790370809E+02 -0.15883016686E+03  0.12261061433E+04  0.12384333466E+04  0.00000000000E+00 0.  1.
         14    1    6    6    0    0  0.13502679525E+02 -0.33491985435E+02  0.92322202284E+02  0.99133367124E+02  0.00000000000E+00 0. -1.
         -5    1    3    3    0  503 -0.19601747173E+02  0.92002205114E+02  0.24052725516E+02  0.97207293156E+02  0.47000000000E+01 0.  1.
         13    1    4    4    0    0 -0.45288765413E+02  0.99364633296E+02 -0.14135619828E+03  0.17862244376E+03  0.00000000000E+00 0. -1.
        -14    1    4    4    0    0 -0.17463131502E+02  0.58185978745E+01  0.79819340451E+01  0.20063108288E+02  0.00000000000E+00 0.  1.
</event>
