<event>
12    1  0.8462562E-002  0.2394353E+03  0.7818608E-02  0.1120199E+00
         21   -1    0    0  501  502  0.00000000000E+00  0.00000000000E+00  0.65927427201E+03  0.65927427201E+03  0.00000000000E+00 0.  1.
         21   -1    0    0  502  503 -0.00000000000E+00 -0.00000000000E+00 -0.94153055467E+02  0.94153055467E+02  0.00000000000E+00 0. -1.
         -6    2    1    2    0  503  0.84261660687E+02 -0.14313952618E+03  0.38706477853E+03  0.45504271947E+03  0.17220854321E+03 0.  0.
        -24    2    3    3    0    0  0.58623589321E+02 -0.27527733738E+02  0.96026044697E+02  0.14079913268E+03  0.80055562909E+02 0.  0.
          6    2    1    2  501    0 -0.84261660687E+02  0.14313952618E+03  0.17805643801E+03  0.29838460800E+03  0.17245384240E+03 0.  0.
         24    2    5    5    0    0 -0.90270132254E+02  0.15041997515E+03  0.19764901053E+03  0.27613453911E+03  0.80064265615E+02 0.  0.
          5    1    5    5  501    0  0.60084715671E+01 -0.72804489726E+01 -0.19592572514E+02  0.22250068888E+02  0.47000000000E+01 0. -1.
        -13    1    6    6    0    0 -0.10404006712E+03  0.13146309591E+03  0.15973253657E+03  0.23156287352E+03  0.00000000000E+00 0.  1.
         14    1    6    6    0    0  0.13769934866E+02  0.18956879236E+02  0.37916473959E+02  0.44571665597E+02  0.00000000000E+00 0. -1.
         -5    1    3    3    0  503  0.25638071366E+02 -0.11561179244E+03  0.29103873383E+03  0.31424358680E+03  0.47000000000E+01 0.  1.
         13    1    4    4    0    0  0.17104151640E+02  0.25910680083E+02  0.50356648157E+02  0.59158324514E+02  0.00000000000E+00 0. -1.
        -14    1    4    4    0    0  0.41519437681E+02 -0.53438413821E+02  0.45669396540E+02  0.81640808162E+02  0.00000000000E+00 0.  1.
</event>
<event>
12    1  0.8462562E-002  0.2372427E+03  0.7818608E-02  0.1123772E+00
         21   -1    0    0  501  502  0.00000000000E+00  0.00000000000E+00  0.47318876720E+02  0.47318876720E+02  0.00000000000E+00 0.  1.
         21   -1    0    0  502  503 -0.00000000000E+00 -0.00000000000E+00 -0.14714783792E+04  0.14714783792E+04  0.00000000000E+00 0.  1.
         -6    2    1    2    0  503 -0.31004564962E+02 -0.13870942495E+03 -0.10639390424E+04  0.10874703783E+04  0.17442462627E+03 0.  0.
        -24    2    3    3    0    0 -0.56593085978E+02 -0.32857395618E+02 -0.69632850951E+03  0.70403978697E+03  0.80723247292E+02 0.  0.
          6    2    1    2  501    0  0.31004564962E+02  0.13870942495E+03 -0.36022046014E+03  0.43132687762E+03  0.18995396241E+03 0.  0.
         24    2    5    5    0    0 -0.16700011110E+01 -0.79976303271E+01 -0.18403243876E+03  0.19969161214E+03  0.77084696591E+02 0.  0.
          5    1    5    5  501    0  0.32674566073E+02  0.14670705528E+03 -0.17618802138E+03  0.23163526548E+03  0.47000000000E+01 0. -1.
        -13    1    6    6    0    0  0.34653433616E+02 -0.25417671648E+01 -0.51219777936E+02  0.61893349348E+02  0.00000000000E+00 0.  1.
         14    1    6    6    0    0 -0.36323434727E+02 -0.54558631623E+01 -0.13281266082E+03  0.13779826279E+03  0.00000000000E+00 0. -1.
         -5    1    3    3    0  503  0.25588521016E+02 -0.10585202933E+03 -0.36761053284E+03  0.38343059134E+03  0.47000000000E+01 0.  1.
         13    1    4    4    0    0  0.19425544101E+01  0.10301714395E+02 -0.35003289259E+03  0.35018984099E+03  0.00000000000E+00 0. -1.
        -14    1    4    4    0    0 -0.58535640388E+02 -0.43159110013E+02 -0.34629561692E+03  0.35384994598E+03  0.00000000000E+00 0.  1.
</event>
<event>
12    1  0.8462562E-002  0.1784203E+03  0.7818608E-02  0.1170726E+00
         21   -1    0    0  503  502  0.00000000000E+00  0.00000000000E+00  0.90693177817E+03  0.90693177817E+03  0.00000000000E+00 0.  1.
         21   -1    0    0  501  503 -0.00000000000E+00 -0.00000000000E+00 -0.38442484880E+02  0.38442484880E+02  0.00000000000E+00 0.  1.
          6    2    1    2  501    0  0.12719287521E+02 -0.17462681354E+01  0.26775211521E+03  0.31870132362E+03  0.17237896842E+03 0.  0.
         24    2    3    3    0    0 -0.54055577701E+02 -0.27161709323E+02  0.14385717993E+03  0.17560390134E+03  0.80511353325E+02 0.  0.
         -6    2    1    2    0  502 -0.12719287521E+02  0.17462681354E+01  0.60073717809E+03  0.62667293943E+03  0.17795782127E+03 0.  0.
        -24    2    5    5    0    0 -0.42963463207E+02 -0.50531943299E+02  0.48512280414E+03  0.49614901435E+03  0.80127229373E+02 0.  0.
          5    1    3    3  501    0  0.66774865223E+02  0.25415441188E+02  0.12389493528E+03  0.14309742228E+03  0.47000000000E+01 0. -1.
        -13    1    4    4    0    0  0.16307697265E+02 -0.13470889229E+02  0.92217641165E+01  0.23074808344E+02  0.00000000000E+00 0.  1.
         14    1    4    4    0    0 -0.70363274966E+02 -0.13690820094E+02  0.13463541581E+03  0.15252909299E+03  0.00000000000E+00 0. -1.
         -5    1    5    5    0  502  0.30244175686E+02  0.52278211435E+02  0.11561437395E+03  0.13052392508E+03  0.47000000000E+01 0.  1.
         13    1    6    6    0    0  0.12893609638E+02 -0.34852305514E+02  0.10001102003E+03  0.10669176396E+03  0.00000000000E+00 0. -1.
        -14    1    6    6    0    0 -0.55857072846E+02 -0.15679637785E+02  0.38511178411E+03  0.38945725039E+03  0.00000000000E+00 0.  1.
</event>
<event>
12    1  0.8462562E-002  0.1864608E+03  0.7818608E-02  0.1161784E+00
         21   -1    0    0  501  502  0.00000000000E+00  0.00000000000E+00  0.32004201084E+03  0.32004201084E+03  0.00000000000E+00 0. -1.
         21   -1    0    0  502  503 -0.00000000000E+00 -0.00000000000E+00 -0.14097730518E+03  0.14097730518E+03  0.00000000000E+00 0. -1.
         -6    2    1    2    0  503 -0.94321707534E+01  0.70907625235E+02 -0.21340823877E+02  0.18728588532E+03  0.17176645457E+03 0.  0.
        -24    2    3    3    0    0 -0.31324314724E+01  0.59829737829E+02 -0.80677975276E+02  0.12641393907E+03  0.76695101808E+02 0.  0.
          6    2    1    2  501    0  0.94321707534E+01 -0.70907625235E+02  0.20040552953E+03  0.27373343070E+03  0.17219395359E+03 0.  0.
         24    2    5    5    0    0  0.34182359022E+02 -0.53314687044E+02  0.21729686173E+03  0.23866934085E+03  0.75724755673E+02 0.  0.
          5    1    5    5  501    0 -0.24750188268E+02 -0.17592938190E+02 -0.16891332195E+02  0.35064089847E+02  0.47000000000E+01 0. -1.
        -11    1    6    6    0    0  0.93716351953E+00  0.40911714785E+01 -0.50910600251E+01  0.65980945513E+01  0.00000000000E+00 0.  1.
         12    1    6    6    0    0  0.33245195502E+02 -0.57405858523E+02  0.22238792175E+03  0.23207124630E+03  0.00000000000E+00 0. -1.
         -5    1    3    3    0  503 -0.62997392810E+01  0.11077887406E+02  0.59337151399E+02  0.60871946252E+02  0.47000000000E+01 0.  1.
         11    1    4    4    0    0 -0.23483983197E+02  0.66387405235E+02 -0.77639177401E+02  0.10481711171E+03  0.00000000000E+00 0. -1.
        -12    1    4    4    0    0  0.20351551724E+02 -0.65576674058E+01 -0.30387978748E+01  0.21596827357E+02  0.00000000000E+00 0.  1.
</event>
<event>
12    1  0.8462562E-002  0.1862703E+03  0.7818608E-02  0.1162225E+00
         21   -1    0    0  503  502  0.00000000000E+00  0.00000000000E+00  0.53242206725E+03  0.53242206725E+03  0.00000000000E+00 0.  1.
         21   -1    0    0  501  503 -0.00000000000E+00 -0.00000000000E+00 -0.70870593079E+02  0.70870593079E+02  0.00000000000E+00 0.  1.
          6    2    1    2  501    0  0.13409095075E+02 -0.68623303042E+02  0.14215394473E+03  0.23431684588E+03  0.17264900436E+03 0.  0.
         24    2    3    3    0    0 -0.48356560072E+02 -0.81306451042E+02  0.97882073427E+02  0.15712910729E+03  0.78482865500E+02 0.  0.
         -6    2    1    2    0  502 -0.13409095075E+02  0.68623303042E+02  0.31939752944E+03  0.36897581445E+03  0.17099534581E+03 0.  0.
        -24    2    5    5    0    0  0.35908520618E+02  0.30009085026E+02  0.27898268624E+03  0.29428488728E+03  0.81131304840E+02 0.  0.
          5    1    3    3  501    0  0.61765655147E+02  0.12683148000E+02  0.44271871304E+02  0.77187738584E+02  0.47000000000E+01 0. -1.
        -13    1    4    4    0    0 -0.44036382276E+00 -0.72833403107E+02  0.46768197294E+02  0.86557280494E+02  0.00000000000E+00 0.  1.
         14    1    4    4    0    0 -0.47916196249E+02 -0.84730479354E+01  0.51113876132E+02  0.70571826798E+02  0.00000000000E+00 0. -1.
         -5    1    5    5    0  502 -0.49317615693E+02  0.38614218016E+02  0.40414843202E+02  0.74690927171E+02  0.47000000000E+01 0.  1.
         13    1    6    6    0    0 -0.23300437299E+02 -0.40748234433E+01  0.98612260650E+02  0.10140952872E+03  0.00000000000E+00 0. -1.
        -14    1    6    6    0    0  0.59208957917E+02  0.34083908469E+02  0.18037042559E+03  0.19287535857E+03  0.00000000000E+00 0.  1.
</event>
<event>
12    1  0.8462562E-002  0.2163458E+03  0.7818608E-02  0.1137096E+00
         21   -1    0    0  501  502  0.00000000000E+00  0.00000000000E+00  0.55139635881E+03  0.55139635881E+03  0.00000000000E+00 0.  1.
         21   -1    0    0  502  503 -0.00000000000E+00 -0.00000000000E+00 -0.86678748185E+02  0.86678748185E+02  0.00000000000E+00 0.  1.
         -6    2    1    2    0  503 -0.67151997443E+02 -0.10834049155E+03  0.28772565599E+03  0.35855472244E+03  0.17183824661E+03 0.  0.
        -24    2    3    3    0    0 -0.12078923440E+02 -0.89697560562E+02  0.87162093465E+02  0.14968051396E+03  0.81335557780E+02 0.  0.
          6    2    1    2  501    0  0.67151997443E+02  0.10834049155E+03  0.17699195464E+03  0.27952038456E+03  0.17480972658E+03 0.  0.
         24    2    5    5    0    0  0.10501993539E+03  0.11517125911E+03  0.12356611256E+03  0.21351242510E+03  0.77623229409E+02 0.  0.
          5    1    5    5  501    0 -0.37867937950E+02 -0.68307675607E+01  0.53425842081E+02  0.66007959460E+02  0.47000000000E+01 0. -1.
        -11    1    6    6    0    0  0.26260785043E+02  0.84936785631E+02  0.52813795351E+02  0.10340784962E+03  0.00000000000E+00 0.  1.
         12    1    6    6    0    0  0.78759150349E+02  0.30234473479E+02  0.70752317207E+02  0.11010457547E+03  0.00000000000E+00 0. -1.
         -5    1    3    3    0  503 -0.55073074003E+02 -0.18642930988E+02  0.20056356252E+03  0.20887420848E+03  0.47000000000E+01 0.  1.
         13    1    4    4    0    0 -0.15010837350E+02  0.12418029278E+02  0.12490776017E+02  0.23142000229E+02  0.00000000000E+00 0. -1.
        -14    1    4    4    0    0  0.29319139101E+01 -0.10211558984E+03  0.74671317448E+02  0.12653851373E+03  0.00000000000E+00 0.  1.
</event>
<event>
12    1  0.8462562E-002  0.1799402E+03  0.7818608E-02  0.1168266E+00
         21   -1    0    0  503  502  0.00000000000E+00  0.00000000000E+00  0.12880191258E+04  0.12880191258E+04  0.00000000000E+00 0.  1.
         21   -1    0    0  501  503 -0.00000000000E+00 -0.00000000000E+00 -0.55024600004E+02  0.55024600004E+02  0.00000000000E+00 0.  1.
          6    2    1    2  501    0 -0.24859571840E+02  0.39148791446E+02  0.12097803198E+03  0.21682748624E+03  0.17386157823E+03 0.  0.
         24    2    3    3    0    0 -0.39915737263E+01 -0.36152483989E+00 -0.62151803138E+01  0.81932187242E+02  0.81597741874E+02 0.  0.
         -6    2    1    2    0  502  0.24859571840E+02 -0.39148791446E+02  0.11120164938E+04  0.11262162395E+04  0.17213863468E+03 0.  0.
        -24    2    5    5    0    0  0.49151333218E+02 -0.49844034519E+02  0.10763333463E+04  0.10814965022E+04  0.78999560278E+02 0.  0.
          5    1    3    3  501    0 -0.20867998114E+02  0.39510316286E+02  0.12719321230E+03  0.13489529900E+03  0.47000000000E+01 0. -1.
        -11    1    4    4    0    0  0.67865615079E+01  0.32518543326E+02 -0.25900395265E+02  0.42122957541E+02  0.00000000000E+00 0.  1.
         12    1    4    4    0    0 -0.10778135234E+02 -0.32880068166E+02  0.19685214952E+02  0.39809229701E+02  0.00000000000E+00 0. -1.
         -5    1    5    5    0  502 -0.24291761378E+02  0.10695243073E+02  0.35683147507E+02  0.44719737379E+02  0.47000000000E+01 0.  1.
         13    1    6    6    0    0  0.83265431057E+01 -0.50773865972E+02  0.32438521710E+03  0.32844038403E+03  0.00000000000E+00 0. -1.
        -14    1    6    6    0    0  0.40824790112E+02  0.92983145352E+00  0.75194812919E+03  0.75305611814E+03  0.00000000000E+00 0.  1.
</event>
<event>
12    1  0.8462562E-002  0.1731236E+03  0.7818608E-02  0.1174855E+00
         21   -1    0    0  503  502  0.00000000000E+00  0.00000000000E+00  0.16200891312E+03  0.16200891312E+03  0.00000000000E+00 0. -1.
         21   -1    0    0  501  503 -0.00000000000E+00 -0.00000000000E+00 -0.29199404296E+03  0.29199404296E+03  0.00000000000E+00 0. -1.
          6    2    1    2  501    0 -0.23421559694E+01  0.35862149194E+00 -0.20311394894E+03  0.26688396866E+03  0.17310737179E+03 0.  0.
         24    2    3    3    0    0  0.27313763377E+02 -0.57561757685E+02 -0.15666491469E+03  0.18679747380E+03  0.79309539814E+02 0.  0.
         -6    2    1    2    0  502  0.23421559694E+01 -0.35862149194E+00  0.73128819104E+02  0.18711898742E+03  0.17222101197E+03 0.  0.
        -24    2    5    5    0    0 -0.48355202597E+02  0.31888106630E+02  0.12700242283E+02  0.10177394341E+03  0.82713737916E+02 0.  0.
          5    1    3    3  501    0 -0.29655919346E+02  0.57920379177E+02 -0.46449034256E+02  0.80086494864E+02  0.47000000000E+01 0. -1.
        -11    1    4    4    0    0  0.35387159303E+00 -0.24847397669E+02 -0.36690238692E+00  0.24852625885E+02  0.00000000000E+00 0.  1.
         12    1    4    4    0    0  0.26959891784E+02 -0.32714360016E+02 -0.15629801230E+03  0.16194484791E+03  0.00000000000E+00 0. -1.
         -5    1    5    5    0  502  0.50697358566E+02 -0.32246728122E+02  0.60428576821E+02  0.85345044008E+02  0.47000000000E+01 0.  1.
         11    1    6    6    0    0  0.72870160198E+01 -0.20840949886E+02  0.11966675641E+02  0.25112688437E+02  0.00000000000E+00 0. -1.
        -12    1    6    6    0    0 -0.55642218616E+02  0.52729056516E+02  0.73356664197E+00  0.76661254971E+02  0.00000000000E+00 0.  1.
</event>
<event>
12    1  0.8462562E-002  0.2177547E+03  0.7818608E-02  0.1135592E+00
         21   -1    0    0  501  502  0.00000000000E+00  0.00000000000E+00  0.30813650794E+03  0.30813650794E+03  0.00000000000E+00 0.  1.
         21   -1    0    0  502  503 -0.00000000000E+00 -0.00000000000E+00 -0.37798835264E+03  0.37798835264E+03  0.00000000000E+00 0. -1.
         -6    2    1    2    0  503  0.47857077047E+02  0.12530437930E+03 -0.29913741523E+03  0.37000042414E+03  0.17153901415E+03 0.  0.
        -24    2    3    3    0    0  0.80133282375E+02  0.93583895790E+02 -0.13405755943E+03  0.19876552321E+03  0.79730894146E+02 0.  0.
          6    2    1    2  501    0 -0.47857077047E+02 -0.12530437930E+03  0.22928557054E+03  0.31612443644E+03  0.17138056822E+03 0.  0.
         24    2    5    5    0    0 -0.92929390256E+02 -0.62873443480E+02  0.17228533666E+03  0.22020649324E+03  0.78865207599E+02 0.  0.
          5    1    5    5  501    0  0.45072313209E+02 -0.62430935819E+02  0.57000233882E+02  0.95917943201E+02  0.47000000000E+01 0. -1.
        -11    1    6    6    0    0 -0.44008379289E+02 -0.51749563960E+02  0.15125043264E+03  0.16580545284E+03  0.00000000000E+00 0.  1.
         12    1    6    6    0    0 -0.48921010968E+02 -0.11123879521E+02  0.21034904018E+02  0.54401040401E+02  0.00000000000E+00 0. -1.
         -5    1    3    3    0  503 -0.32276205328E+02  0.31720483509E+02 -0.16507985580E+03  0.17123490093E+03  0.47000000000E+01 0.  1.
         13    1    4    4    0    0  0.24056402306E+02  0.21245874494E+02 -0.93126667167E+02  0.98502151310E+02  0.00000000000E+00 0. -1.
        -14    1    4    4    0    0  0.56076880069E+02  0.72338021297E+02 -0.40930892259E+02  0.10026337190E+03  0.00000000000E+00 0.  1.
</event>
<event>
12    1  0.8462562E-002  0.3883544E+03  0.7818608E-02  0.1048055E+00
         21   -1    0    0  501  502  0.00000000000E+00  0.00000000000E+00  0.11924447506E+03  0.11924447506E+03  0.00000000000E+00 0. -1.
         21   -1    0    0  502  503 -0.00000000000E+00 -0.00000000000E+00 -0.12820111466E+04  0.12820111466E+04  0.00000000000E+00 0. -1.
         -6    2    1    2    0  503  0.31105937468E+03 -0.15212579092E+03 -0.48841576206E+03  0.62399444139E+03  0.17583775310E+03 0.  0.
        -24    2    3    3    0    0  0.28540690027E+03 -0.73544691555E+02 -0.39246993207E+03  0.49726350233E+03  0.79827456404E+02 0.  0.
          6    2    1    2  501    0 -0.31105937468E+03  0.15212579092E+03 -0.67435090943E+03  0.77726118023E+03  0.17171372225E+03 0.  0.
         24    2    5    5    0    0 -0.25238329870E+03  0.10770537512E+03 -0.62888782097E+03  0.69062955989E+03  0.78559024474E+02 0.  0.
          5    1    5    5  501    0 -0.58676075975E+02  0.44420415802E+02 -0.45463088459E+02  0.86631620348E+02  0.47000000000E+01 0. -1.
        -11    1    6    6    0    0 -0.92745306165E+02  0.44400859049E+00 -0.22103401457E+03  0.23970382675E+03  0.00000000000E+00 0.  1.
         12    1    6    6    0    0 -0.15963799254E+03  0.10726136653E+03 -0.40785380640E+03  0.45092573314E+03  0.00000000000E+00 0. -1.
         -5    1    3    3    0  503  0.25652474404E+02 -0.78581099367E+02 -0.95945829994E+02  0.12673093906E+03  0.47000000000E+01 0.  1.
         13    1    4    4    0    0  0.98230862576E+02 -0.52308197962E+02 -0.19381414699E+03  0.22349356481E+03  0.00000000000E+00 0. -1.
        -14    1    4    4    0    0  0.18717603770E+03 -0.21236493593E+02 -0.19865578507E+03  0.27376993752E+03  0.00000000000E+00 0.  1.
</event>
<event>
12    1  0.8462562E-002  0.2145820E+03  0.7818608E-02  0.1138137E+00
         21   -1    0    0  501  502  0.00000000000E+00  0.00000000000E+00  0.75990650766E+02  0.75990650766E+02  0.00000000000E+00 0.  1.
         21   -1    0    0  502  503 -0.00000000000E+00 -0.00000000000E+00 -0.61277198264E+03  0.61277198264E+03  0.00000000000E+00 0.  1.
         -6    2    1    2    0  503  0.11804651621E+03  0.47774958590E+02 -0.30970030549E+03  0.37633464542E+03  0.17174416864E+03 0.  0.
        -24    2    3    3    0    0  0.97541797289E+02  0.18582903974E+02 -0.95785027444E+02  0.15941425511E+03  0.79864927909E+02 0.  0.
          6    2    1    2  501    0 -0.11804651621E+03 -0.47774958590E+02 -0.22708102638E+03  0.31242798798E+03  0.17270792824E+03 0.  0.
         24    2    5    5    0    0 -0.87299125087E+02  0.16857521515E+02 -0.62644623891E+02  0.13302848963E+03  0.76595801967E+02 0.  0.
          5    1    5    5  501    0 -0.30747391125E+02 -0.64632480105E+02 -0.16443640249E+03  0.17939949835E+03  0.47000000000E+01 0. -1.
        -11    1    6    6    0    0 -0.36962315469E+02 -0.21378467487E+02  0.18261597332E+01  0.42738583227E+02  0.00000000000E+00 0.  1.
         12    1    6    6    0    0 -0.50336809618E+02  0.38235989003E+02 -0.64470783624E+02  0.90289906405E+02  0.00000000000E+00 0. -1.
         -5    1    3    3    0  503  0.20504718923E+02  0.29192054616E+02 -0.21391527805E+03  0.21692039031E+03  0.47000000000E+01 0.  1.
         13    1    4    4    0    0  0.79091690360E+02 -0.97485809966E+01 -0.97056829906E+02  0.12558088448E+03  0.00000000000E+00 0. -1.
        -14    1    4    4    0    0  0.18450106929E+02  0.28331484971E+02  0.12718024623E+01  0.33833370625E+02  0.00000000000E+00 0.  1.
</event>
<event>
12    1  0.8462562E-002  0.3017285E+03  0.7818608E-02  0.1084385E+00
         21   -1    0    0  501  502  0.00000000000E+00  0.00000000000E+00  0.33474241987E+03  0.33474241987E+03  0.00000000000E+00 0. -1.
         21   -1    0    0  502  503 -0.00000000000E+00 -0.00000000000E+00 -0.48175847641E+03  0.48175847641E+03  0.00000000000E+00 0.  1.
         -6    2    1    2    0  503 -0.10828983539E+03  0.22179066415E+03 -0.34293404781E+03  0.45674546170E+03  0.17347872630E+03 0.  0.
        -24    2    3    3    0    0 -0.58856653955E+02  0.55459734306E+02 -0.20852339932E+03  0.23720519186E+03  0.79021561224E+02 0.  0.
          6    2    1    2  501    0  0.10828983539E+03 -0.22179066415E+03  0.19591799128E+03  0.35975543458E+03  0.17355784699E+03 0.  0.
         24    2    5    5    0    0  0.57377198513E+02 -0.32153220897E+02  0.52598459666E+02  0.11661548595E+03  0.80663505263E+02 0.  0.
          5    1    5    5  501    0  0.50912636880E+02 -0.18963744326E+03  0.14331953161E+03  0.24313994863E+03  0.47000000000E+01 0. -1.
        -13    1    6    6    0    0 -0.25921347716E+01  0.28652839722E+01 -0.17512309830E+02  0.17933488520E+02  0.00000000000E+00 0.  1.
         14    1    6    6    0    0  0.59969333284E+02 -0.35018504869E+02  0.70110769496E+02  0.98681997432E+02  0.00000000000E+00 0. -1.
         -5    1    3    3    0  503 -0.49433181438E+02  0.16633092985E+03 -0.13441064849E+03  0.21954026984E+03  0.47000000000E+01 0.  1.
         11    1    4    4    0    0 -0.17150132799E+02  0.34920738941E+02 -0.21418119689E+02  0.44410819788E+02  0.00000000000E+00 0. -1.
        -12    1    4    4    0    0 -0.41706521156E+02  0.20538995364E+02 -0.18710527963E+03  0.19279437207E+03  0.00000000000E+00 0.  1.
</event>
<event>
12    1  0.8462562E-002  0.1943346E+03  0.7818608E-02  0.1154974E+00
         21   -1    0    0  501  502  0.00000000000E+00  0.00000000000E+00  0.11162975819E+03  0.11162975819E+03  0.00000000000E+00 0.  1.
         21   -1    0    0  502  503 -0.00000000000E+00 -0.00000000000E+00 -0.66259851133E+03  0.66259851133E+03  0.00000000000E+00 0.  1.
         -6    2    1    2    0  503  0.55901873408E+02  0.64706486930E+02 -0.28661277450E+01  0.19269371062E+03  0.17265776126E+03 0.  0.
        -24    2    3    3    0    0  0.42159995526E+02  0.78675231680E+02 -0.59215240746E+02  0.13284993422E+03  0.78583732313E+02 0.  0.
          6    2    1    2  501    0 -0.55901873408E+02 -0.64706486930E+02 -0.54810262539E+03  0.58153455890E+03  0.17451076280E+03 0.  0.
         24    2    5    5    0    0 -0.77557475728E+02 -0.10122694714E+03 -0.44426087584E+03  0.46924961745E+03  0.81027284368E+02 0.  0.
          5    1    5    5  501    0  0.21655602320E+02  0.36520460205E+02 -0.10384174956E+03  0.11228494145E+03  0.47000000000E+01 0. -1.
        -11    1    6    6    0    0  0.73756092422E+01 -0.52495883795E+02 -0.14599392844E+03  0.15532045767E+03  0.00000000000E+00 0.  1.
         12    1    6    6    0    0 -0.84933084970E+02 -0.48731063340E+02 -0.29826694739E+03  0.31392915979E+03  0.00000000000E+00 0. -1.
         -5    1    3    3    0  503  0.13741877881E+02 -0.13968744750E+02  0.56349113001E+02  0.59843776398E+02  0.47000000000E+01 0.  1.
         11    1    4    4    0    0 -0.12634311763E+02  0.34813180333E+02 -0.49758491408E+02  0.62028145432E+02  0.00000000000E+00 0. -1.
        -12    1    4    4    0    0  0.54794307289E+02  0.43862051347E+02 -0.94567493383E+01  0.70821788792E+02  0.00000000000E+00 0.  1.
</event>
<event>
12    1  0.8462562E-002  0.1972927E+03  0.7818608E-02  0.1152566E+00
         21   -1    0    0  501  502  0.00000000000E+00  0.00000000000E+00  0.60050812587E+02  0.60050812587E+02  0.00000000000E+00 0. -1.
         21   -1    0    0  502  503 -0.00000000000E+00 -0.00000000000E+00 -0.64027863870E+03  0.64027863870E+03  0.00000000000E+00 0.  1.
         -6    2    1    2    0  503  0.71865501657E+02  0.63699881959E+02 -0.29065738724E+03  0.35129208982E+03  0.17234294392E+03 0.  0.
        -24    2    3    3    0    0  0.88720796968E+02  0.45025211171E+02 -0.29923848249E+03  0.32430006313E+03  0.75684952855E+02 0.  0.
          6    2    1    2  501    0 -0.71865501657E+02 -0.63699881959E+02 -0.28957043887E+03  0.34903736147E+03  0.16956920518E+03 0.  0.
         24    2    5    5    0    0 -0.89520843034E+02 -0.93535385791E+02 -0.18901595931E+03  0.24257064495E+03  0.79690872644E+02 0.  0.
          5    1    5    5  501    0  0.17655341377E+02  0.29835503832E+02 -0.10055447956E+03  0.10646671653E+03  0.47000000000E+01 0. -1.
        -11    1    6    6    0    0 -0.47054157300E+02 -0.73763672532E+02 -0.62117502541E+02  0.10730217718E+03  0.00000000000E+00 0.  1.
         12    1    6    6    0    0 -0.42466685733E+02 -0.19771713259E+02 -0.12689845677E+03  0.13526846777E+03  0.00000000000E+00 0. -1.
         -5    1    3    3    0  503 -0.16855295311E+02  0.18674670788E+02  0.85810952456E+01  0.26992026687E+02  0.47000000000E+01 0.  1.
         11    1    4    4    0    0 -0.84032192242E+01 -0.10250364185E+02 -0.31318632511E+02  0.34007952035E+02  0.00000000000E+00 0. -1.
        -12    1    4    4    0    0  0.97124016192E+02  0.55275575356E+02 -0.26791984998E+03  0.29029211109E+03  0.00000000000E+00 0.  1.
</event>
<event>
12    1  0.8462562E-002  0.1729909E+03  0.7818608E-02  0.1177302E+00
         21   -1    0    0  503  502  0.00000000000E+00  0.00000000000E+00  0.66368483743E+03  0.66368483743E+03  0.00000000000E+00 0.  1.
         21   -1    0    0  501  503 -0.00000000000E+00 -0.00000000000E+00 -0.42771001821E+02  0.42771001821E+02  0.00000000000E+00 0.  1.
          6    2    1    2  501    0  0.48507549132E+01  0.16391076377E+02  0.34107062127E+03  0.38243302537E+03  0.17214427959E+03 0.  0.
         24    2    3    3    0    0  0.13290249985E+02 -0.43204653399E+02  0.28799446359E+03  0.30204618193E+03  0.79043103047E+02 0.  0.
         -6    2    1    2    0  502 -0.48507549132E+01 -0.16391076377E+02  0.27984321434E+03  0.32402281388E+03  0.16243879492E+03 0.  0.
        -24    2    5    5    0    0  0.18552115442E+02  0.39044755158E+02  0.22516494203E+03  0.24258185845E+03  0.79234039628E+02 0.  0.
          5    1    3    3  501    0 -0.84394950721E+01  0.59595729776E+02  0.53076157676E+02  0.80386843440E+02  0.47000000000E+01 0. -1.
        -13    1    4    4    0    0 -0.17723149608E+02 -0.52481129873E+02  0.21801922394E+03  0.22494612918E+03  0.00000000000E+00 0.  1.
         14    1    4    4    0    0  0.31013399593E+02  0.92764764743E+01  0.69975239651E+02  0.77100052752E+02  0.00000000000E+00 0. -1.
         -5    1    5    5    0  502 -0.23402870355E+02 -0.55435831535E+02  0.54678272311E+02  0.81440955433E+02  0.47000000000E+01 0.  1.
         11    1    6    6    0    0 -0.30934772172E+02  0.20604266888E+02  0.83736157496E+02  0.91614627737E+02  0.00000000000E+00 0. -1.
        -12    1    6    6    0    0  0.49486887614E+02  0.18440488271E+02  0.14142878454E+03  0.15096723071E+03  0.00000000000E+00 0.  1.
</event>
<event>
12    1  0.8462562E-002  0.2041196E+03  0.7818608E-02  0.1146575E+00
         21   -1    0    0  503  502  0.00000000000E+00  0.00000000000E+00  0.59519587204E+03  0.59519587204E+03  0.00000000000E+00 0.  1.
         21   -1    0    0  501  503 -0.00000000000E+00 -0.00000000000E+00 -0.15361028215E+03  0.15361028215E+03  0.00000000000E+00 0. -1.
          6    2    1    2  501    0  0.79879638710E+02 -0.71392928328E+02 -0.55837620532E+02  0.21161910550E+03  0.17374434969E+03 0.  0.
         24    2    3    3    0    0  0.23505630262E+02  0.18179740315E+02 -0.63848729802E+02  0.10537617788E+03  0.78386612097E+02 0.  0.
         -6    2    1    2    0  502 -0.79879638710E+02  0.71392928328E+02  0.49742321042E+03  0.53718704869E+03  0.17222766361E+03 0.  0.
        -24    2    5    5    0    0 -0.55361358359E+01  0.33665924951E+02  0.39910343121E+03  0.40819421095E+03  0.78580670301E+02 0.  0.
          5    1    3    3  501    0  0.56374008448E+02 -0.89572668643E+02  0.80111092698E+01  0.10624292761E+03  0.47000000000E+01 0. -1.
        -13    1    4    4    0    0  0.43791285066E+02  0.33647103970E+02 -0.56086761349E+02  0.78711683072E+02  0.00000000000E+00 0.  1.
         14    1    4    4    0    0 -0.20285654804E+02 -0.15467363656E+02 -0.77619684532E+01  0.26664494812E+02  0.00000000000E+00 0. -1.
         -5    1    5    5    0  502 -0.74343502874E+02  0.37727003377E+02  0.98319779214E+02  0.12899283774E+03  0.47000000000E+01 0.  1.
         13    1    6    6    0    0  0.25589757452E+02  0.45045505021E+02  0.21689079899E+03  0.22299226869E+03  0.00000000000E+00 0. -1.
        -14    1    6    6    0    0 -0.31125893288E+02 -0.11379580070E+02  0.18221263222E+03  0.18520194226E+03  0.00000000000E+00 0.  1.
</event>
<event>
12    1  0.8462562E-002  0.2070220E+03  0.7818608E-02  0.1144137E+00
         21   -1    0    0  501  502  0.00000000000E+00  0.00000000000E+00  0.42918338892E+03  0.42918338892E+03  0.00000000000E+00 0. -1.
         21   -1    0    0  502  503 -0.00000000000E+00 -0.00000000000E+00 -0.13543612300E+03  0.13543612300E+03  0.00000000000E+00 0.  1.
         -6    2    1    2    0  503  0.11128075833E+03  0.31455977142E+02  0.15063800115E+01  0.20702748089E+03  0.17171261745E+03 0.  0.
        -24    2    3    3    0    0  0.59510915988E+02  0.33531480756E+02  0.65736016849E+02  0.12437180631E+03  0.80505980964E+02 0.  0.
          6    2    1    2  501    0 -0.11128075833E+03 -0.31455977142E+02  0.29224088591E+03  0.35759203103E+03  0.17057092245E+03 0.  0.
         24    2    5    5    0    0 -0.11734798079E+03 -0.12388518275E+02  0.30259484799E+03  0.33457738989E+03  0.80339055369E+02 0.  0.
          5    1    5    5  501    0  0.60672224546E+01 -0.19067458867E+02 -0.10353962080E+02  0.23014641138E+02  0.47000000000E+01 0. -1.
        -13    1    6    6    0    0 -0.23702566765E+02 -0.19540852407E+02  0.19683089026E+02  0.36483976999E+02  0.00000000000E+00 0.  1.
         14    1    6    6    0    0 -0.93645414025E+02  0.71523341323E+01  0.28291175896E+03  0.29809341289E+03  0.00000000000E+00 0. -1.
         -5    1    3    3    0  503  0.51769842347E+02 -0.20755036139E+01 -0.64229636837E+02  0.82655674579E+02  0.47000000000E+01 0.  1.
         13    1    4    4    0    0  0.54495044015E+02 -0.11628930640E+02  0.53655107906E+02  0.77355106195E+02  0.00000000000E+00 0. -1.
        -14    1    4    4    0    0  0.50158719730E+01  0.45160411396E+02  0.12080908943E+02  0.47016700118E+02  0.00000000000E+00 0.  1.
</event>
<event>
12    1  0.8462562E-002  0.1875094E+03  0.7818608E-02  0.1161186E+00
         21   -1    0    0  503  502  0.00000000000E+00  0.00000000000E+00  0.21000249333E+03  0.21000249333E+03  0.00000000000E+00 0.  1.
         21   -1    0    0  501  503 -0.00000000000E+00 -0.00000000000E+00 -0.24199727322E+03  0.24199727322E+03  0.00000000000E+00 0.  1.
          6    2    1    2  501    0  0.63760424747E+02 -0.35568193537E+02 -0.14287463593E+03  0.23416008129E+03  0.17054997484E+03 0.  0.
         24    2    3    3    0    0  0.92823465022E+02 -0.63512596892E+02 -0.10948342781E+03  0.18159951842E+03  0.91333008829E+02 0.  0.
         -6    2    1    2    0  502 -0.63760424747E+02  0.35568193537E+02  0.11087985604E+03  0.21783968527E+03  0.17271160311E+03 0.  0.
        -24    2    5    5    0    0  0.10687290397E+02 -0.31001878760E+02  0.36595669893E+02  0.93283404307E+02  0.79291965554E+02 0.  0.
          5    1    3    3  501    0 -0.29063040275E+02  0.27944403354E+02 -0.33391208125E+02  0.52560562867E+02  0.47000000000E+01 0. -1.
        -11    1    4    4    0    0  0.26709669627E+02  0.18517741966E+02 -0.52697260250E+02  0.61913766296E+02  0.00000000000E+00 0.  1.
         12    1    4    4    0    0  0.66113795395E+02 -0.82030338858E+02 -0.56786167560E+02  0.11968575212E+03  0.00000000000E+00 0. -1.
         -5    1    5    5    0  502 -0.74447715144E+02  0.66570072298E+02  0.74284186150E+02  0.12455628097E+03  0.47000000000E+01 0.  1.
         11    1    6    6    0    0  0.12394468203E+02 -0.33467944910E+02  0.59932796675E+02  0.69754328151E+02  0.00000000000E+00 0. -1.
        -12    1    6    6    0    0 -0.17071778062E+01  0.24660661503E+01 -0.23337126781E+02  0.23529076156E+02  0.00000000000E+00 0.  1.
</event>
<event>
12    1  0.8462562E-002  0.5737937E+03  0.7818608E-02  0.9962359E-01
         21   -1    0    0  501  502  0.00000000000E+00  0.00000000000E+00  0.13382680467E+03  0.13382680467E+03  0.00000000000E+00 0.  1.
         21   -1    0    0  502  503 -0.00000000000E+00 -0.00000000000E+00 -0.26319553292E+04  0.26319553292E+04  0.00000000000E+00 0. -1.
         -6    2    1    2    0  503  0.54423589207E+03  0.36257547064E+02 -0.16125070222E+04  0.17115543039E+04  0.17813456326E+03 0.  0.
        -24    2    3    3    0    0  0.34179545277E+03  0.41156608144E+02 -0.12168117510E+04  0.12670287479E+04  0.78822666643E+02 0.  0.
          6    2    1    2  501    0 -0.54423589207E+03 -0.36257547064E+02 -0.88562150238E+03  0.10542278300E+04  0.17194056007E+03 0.  0.
         24    2    5    5    0    0 -0.16253461148E+03 -0.31112934493E+01 -0.35346071618E+03  0.39847503049E+03  0.86143438331E+02 0.  0.
          5    1    5    5  501    0 -0.38170128059E+03 -0.33146253615E+02 -0.53216078620E+03  0.65575279954E+03  0.47000000000E+01 0. -1.
        -11    1    6    6    0    0 -0.88259092326E+02 -0.34734632640E+02 -0.13032689060E+03  0.16118703576E+03  0.00000000000E+00 0.  1.
         12    1    6    6    0    0 -0.74275519152E+02  0.31623339191E+02 -0.22313382558E+03  0.23728799473E+03  0.00000000000E+00 0. -1.
         -5    1    3    3    0  503  0.20244043930E+03 -0.48990610798E+01 -0.39569527118E+03  0.44452555595E+03  0.47000000000E+01 0.  1.
         13    1    4    4    0    0  0.21789837243E+03  0.41539187257E+01 -0.64662301076E+03  0.68236227459E+03  0.00000000000E+00 0. -1.
        -14    1    4    4    0    0  0.12389708034E+03  0.37002689418E+02 -0.57018874026E+03  0.58466647335E+03  0.00000000000E+00 0.  1.
</event>
<event>
12    1  0.8462562E-002  0.2889324E+03  0.7818608E-02  0.1091017E+00
         21   -1    0    0  501  502  0.00000000000E+00  0.00000000000E+00  0.84326032743E+03  0.84326032743E+03  0.00000000000E+00 0. -1.
         21   -1    0    0  502  503 -0.00000000000E+00 -0.00000000000E+00 -0.64948299280E+03  0.64948299280E+03  0.00000000000E+00 0.  1.
         -6    2    1    2    0  503 -0.62916927672E+02  0.22343618315E+03 -0.59040523141E+03  0.65731290413E+03  0.17204548505E+03 0.  0.
        -24    2    3    3    0    0 -0.79670664061E+02  0.23266550414E+03 -0.58021861352E+03  0.63513802571E+03  0.79158200407E+02 0.  0.
          6    2    1    2  501    0  0.62916927672E+02 -0.22343618315E+03  0.78418256604E+03  0.83543041611E+03  0.17064411956E+03 0.  0.
         24    2    5    5    0    0  0.29867803783E+02 -0.20526327072E+03  0.75532721462E+03  0.78771018306E+03  0.83324878304E+02 0.  0.
          5    1    5    5  501    0  0.33049123889E+02 -0.18172912432E+02  0.28855351423E+02  0.47720233045E+02  0.47000000000E+01 0. -1.
        -11    1    6    6    0    0  0.85311152358E+01 -0.22412678699E+02  0.25424240460E+02  0.34949965617E+02  0.00000000000E+00 0.  1.
         12    1    6    6    0    0  0.21336688547E+02 -0.18285059202E+03  0.72990297416E+03  0.75276021744E+03  0.00000000000E+00 0. -1.
         -5    1    3    3    0  503  0.16753736389E+02 -0.92293209935E+01 -0.10186617892E+02  0.22174878423E+02  0.47000000000E+01 0.  1.
         13    1    4    4    0    0 -0.78723538172E+02  0.14370658903E+03 -0.30984034776E+03  0.35049967231E+03  0.00000000000E+00 0. -1.
        -14    1    4    4    0    0 -0.94712588927E+00  0.88958915117E+02 -0.27037826576E+03  0.28463835339E+03  0.00000000000E+00 0.  1.
</event>
<event>
12    1  0.8462562E-002  0.2194053E+03  0.7818608E-02  0.1134659E+00
         21   -1    0    0  501  502  0.00000000000E+00  0.00000000000E+00  0.86808424456E+03  0.86808424456E+03  0.00000000000E+00 0.  1.
         21   -1    0    0  502  503 -0.00000000000E+00 -0.00000000000E+00 -0.55015353188E+02  0.55015353188E+02  0.00000000000E+00 0.  1.
         -6    2    1    2    0  503  0.12158131147E+03 -0.48457626712E+02  0.40317691757E+03  0.45901014986E+03  0.17609240168E+03 0.  0.
        -24    2    3    3    0    0  0.23611859690E+02 -0.37033100392E+02  0.82094726902E+02  0.12308694964E+03  0.80510139385E+02 0.  0.
          6    2    1    2  501    0 -0.12158131147E+03  0.48457626712E+02  0.40989197380E+03  0.46408944789E+03  0.17388912722E+03 0.  0.
         24    2    5    5    0    0 -0.73568024504E+02  0.30340963347E+02  0.39491270457E+03  0.41042421032E+03  0.78480315356E+02 0.  0.
          5    1    5    5  501    0 -0.48013286965E+02  0.18116663366E+02  0.14979269235E+02  0.53665237570E+02  0.47000000000E+01 0. -1.
        -11    1    6    6    0    0 -0.41109302820E+02  0.39994953643E+02  0.11539483866E+03  0.12886248440E+03  0.00000000000E+00 0.  1.
         12    1    6    6    0    0 -0.32458721685E+02 -0.96539902964E+01  0.27951786590E+03  0.28156172592E+03  0.00000000000E+00 0. -1.
         -5    1    3    3    0  503  0.97969451779E+02 -0.11424526320E+02  0.32108219067E+03  0.33592320022E+03  0.47000000000E+01 0.  1.
         13    1    4    4    0    0 -0.29561522783E+02 -0.13493096866E+02  0.38673531451E+02  0.50513258924E+02  0.00000000000E+00 0. -1.
        -14    1    4    4    0    0  0.53173382473E+02 -0.23540003526E+02  0.43421195452E+02  0.72573690716E+02  0.00000000000E+00 0.  1.
</event>
<event>
12    1  0.8462562E-002  0.1818265E+03  0.7818608E-02  0.1167497E+00
         21   -1    0    0  501  502  0.00000000000E+00  0.00000000000E+00  0.70517863497E+02  0.70517863497E+02  0.00000000000E+00 0. -1.
         21   -1    0    0  502  503 -0.00000000000E+00 -0.00000000000E+00 -0.47771101705E+03  0.47771101705E+03  0.00000000000E+00 0. -1.
         -6    2    1    2    0  503  0.37045599929E+02 -0.46469028751E+02 -0.26841735989E+03  0.32420478228E+03  0.17184037551E+03 0.  0.
        -24    2    3    3    0    0 -0.14541302832E+02 -0.74268940752E+02 -0.15067009426E+03  0.19259721333E+03  0.93085359896E+02 0.  0.
          6    2    1    2  501    0 -0.37045599929E+02  0.46469028751E+02 -0.13877579367E+03  0.22402409827E+03  0.16551836330E+03 0.  0.
         24    2    5    5    0    0  0.23271546403E+02  0.33294785228E+02 -0.13465457317E+03  0.16196933784E+03  0.80324994415E+02 0.  0.
          5    1    5    5  501    0 -0.60317146332E+02  0.13174243523E+02 -0.41212204948E+01  0.62054760433E+02  0.47000000000E+01 0. -1.
        -13    1    6    6    0    0  0.71024150667E+01 -0.25687493914E+02 -0.58593674830E+02  0.64370104656E+02  0.00000000000E+00 0.  1.
         14    1    6    6    0    0  0.16169131336E+02  0.58982279142E+02 -0.76060898343E+02  0.97599233182E+02  0.00000000000E+00 0. -1.
         -5    1    3    3    0  503  0.51586902761E+02  0.27799912001E+02 -0.11774726563E+03  0.13160756895E+03  0.47000000000E+01 0.  1.
         13    1    4    4    0    0 -0.19455472374E+02 -0.45449576824E+02 -0.15531638864E+03  0.16299496931E+03  0.00000000000E+00 0. -1.
        -14    1    4    4    0    0  0.49141695419E+01 -0.28819363929E+02  0.46462943775E+01  0.29602244019E+02  0.00000000000E+00 0.  1.
</event>
<event>
12    1  0.8462562E-002  0.2335794E+03  0.7818608E-02  0.1124198E+00
         21   -1    0    0  501  502  0.00000000000E+00  0.00000000000E+00  0.18483262877E+03  0.18483262877E+03  0.00000000000E+00 0.  1.
         21   -1    0    0  502  503 -0.00000000000E+00 -0.00000000000E+00 -0.48202490647E+03  0.48202490647E+03  0.00000000000E+00 0.  1.
         -6    2    1    2    0  503 -0.56256021540E+02 -0.14742464288E+03 -0.35645638113E+03  0.42616953511E+03  0.17222240191E+03 0.  0.
        -24    2    3    3    0    0 -0.12557899212E+02 -0.12835103928E+03 -0.14715087909E+03  0.21145062250E+03  0.80164171675E+02 0.  0.
          6    2    1    2  501    0  0.56256021540E+02  0.14742464288E+03  0.59264103432E+02  0.24068800012E+03  0.17181302092E+03 0.  0.
         24    2    5    5    0    0  0.69031580313E+02  0.26274203188E+02  0.42927136968E+02  0.11768543749E+03  0.80940906075E+02 0.  0.
          5    1    5    5  501    0 -0.12775558773E+02  0.12115043969E+03  0.16336966464E+02  0.12300256262E+03  0.47000000000E+01 0. -1.
        -11    1    6    6    0    0  0.36525338017E+02  0.20226380253E+02 -0.20231731836E+02  0.46395363437E+02  0.00000000000E+00 0.  1.
         12    1    6    6    0    0  0.32506242295E+02  0.60478229356E+01  0.63158868804E+02  0.71290074057E+02  0.00000000000E+00 0. -1.
         -5    1    3    3    0  503 -0.43698122329E+02 -0.19073603594E+02 -0.20930550204E+03  0.21471891262E+03  0.47000000000E+01 0.  1.
         11    1    4    4    0    0  0.11416308907E+02  0.76497357855E+01 -0.12680056539E+02  0.18698513323E+02  0.00000000000E+00 0. -1.
        -12    1    4    4    0    0 -0.23974208118E+02 -0.13600077507E+03 -0.13447082255E+03  0.19275210918E+03  0.00000000000E+00 0.  1.
</event>
<event>
12    1  0.8462562E-002  0.1977365E+03  0.7818608E-02  0.1151836E+00
         21   -1    0    0  503  502  0.00000000000E+00  0.00000000000E+00  0.81870509507E+03  0.81870509507E+03  0.00000000000E+00 0. -1.
         21   -1    0    0  501  503 -0.00000000000E+00 -0.00000000000E+00 -0.11152920394E+03  0.11152920394E+03  0.00000000000E+00 0. -1.
          6    2    1    2  501    0  0.77005701891E+02  0.54989589046E+02  0.16533157101E+01  0.19774341906E+03  0.17362601563E+03 0.  0.
         24    2    3    3    0    0  0.17145502149E+02  0.71428815419E+02  0.48231056082E+02  0.11999338643E+03  0.81707613474E+02 0.  0.
         -6    2    1    2    0  502 -0.77005701891E+02 -0.54989589046E+02  0.70552257542E+03  0.73249087994E+03  0.17270510052E+03 0.  0.
        -24    2    5    5    0    0 -0.71545625454E+02  0.15384997449E+02  0.26199526627E+03  0.28335731538E+03  0.79337090705E+02 0.  0.
          5    1    3    3  501    0  0.59860199742E+02 -0.16439226372E+02 -0.46577740371E+02  0.77750032637E+02  0.47000000000E+01 0. -1.
        -13    1    4    4    0    0  0.24503732136E+02  0.80454980260E+02  0.60096180113E+02  0.10336821369E+03  0.00000000000E+00 0.  1.
         14    1    4    4    0    0 -0.73582299877E+01 -0.90261648411E+01 -0.11865124031E+02  0.16625172738E+02  0.00000000000E+00 0. -1.
         -5    1    5    5    0  502 -0.54600764365E+01 -0.70374586495E+02  0.44352730915E+03  0.44913356457E+03  0.47000000000E+01 0.  1.
         11    1    6    6    0    0 -0.80656779166E+01  0.31710897115E+02  0.15055968283E+03  0.15407418424E+03  0.00000000000E+00 0. -1.
        -12    1    6    6    0    0 -0.63479947538E+02 -0.16325899667E+02  0.11143558344E+03  0.12928313113E+03  0.00000000000E+00 0.  1.
</event>
<event>
12    1  0.8462562E-002  0.2460369E+03  0.7818608E-02  0.1115936E+00
         21   -1    0    0  503  502  0.00000000000E+00  0.00000000000E+00  0.19193292398E+03  0.19193292398E+03  0.00000000000E+00 0.  1.
         21   -1    0    0  501  503 -0.00000000000E+00 -0.00000000000E+00 -0.34435337561E+03  0.34435337561E+03  0.00000000000E+00 0.  1.
          6    2    1    2  501    0 -0.17151722704E+03  0.52572028324E+02  0.25258236094E+01  0.24604989254E+03  0.16838109306E+03 0.  0.
         24    2    3    3    0    0 -0.16880570303E+03  0.15413965623E+02  0.43921107044E+02  0.19015952238E+03  0.74152711307E+02 0.  0.
         -6    2    1    2    0  502  0.17151722704E+03 -0.52572028324E+02 -0.15494627524E+03  0.29023640705E+03  0.16747192729E+03 0.  0.
        -24    2    5    5    0    0  0.17802957501E+02 -0.32948581057E+02 -0.73257143674E+02  0.11499839588E+03  0.80345925011E+02 0.  0.
          5    1    3    3  501    0 -0.27115240089E+01  0.37158062702E+02 -0.41395283434E+02  0.55890370161E+02  0.47000000000E+01 0. -1.
        -13    1    4    4    0    0 -0.73311020800E+02  0.35364394170E+02 -0.39499703772E+01  0.81490787282E+02  0.00000000000E+00 0.  1.
         14    1    4    4    0    0 -0.95494682230E+02 -0.19950428547E+02  0.47871077421E+02  0.10866873509E+03  0.00000000000E+00 0. -1.
         -5    1    5    5    0  502  0.15371426954E+03 -0.19623447267E+02 -0.81689131567E+02  0.17523801117E+03  0.47000000000E+01 0.  1.
         13    1    6    6    0    0 -0.14078510561E+02 -0.85313502198E+01  0.12257596677E+02  0.20524060819E+02  0.00000000000E+00 0. -1.
        -14    1    6    6    0    0  0.31881468063E+02 -0.24417230838E+02 -0.85514740351E+02  0.94474335060E+02  0.00000000000E+00 0.  1.
</event>
<event>
12    1  0.8462562E-002  0.1755474E+03  0.7818608E-02  0.1172237E+00
         21   -1    0    0  503  502  0.00000000000E+00  0.00000000000E+00  0.47354915288E+03  0.47354915288E+03  0.00000000000E+00 0. -1.
         21   -1    0    0  501  503 -0.00000000000E+00 -0.00000000000E+00 -0.19012292449E+03  0.19012292449E+03  0.00000000000E+00 0. -1.
          6    2    1    2  501    0 -0.33907767787E+02  0.14216252496E+02 -0.12746019009E+03  0.21694007090E+03  0.17165388359E+03 0.  0.
         24    2    3    3    0    0 -0.26127589516E+02  0.71351673533E+02 -0.51978166950E+02  0.12183689887E+03  0.79804685562E+02 0.  0.
         -6    2    1    2    0  502  0.33907767787E+02 -0.14216252496E+02  0.41088641848E+03  0.44673200647E+03  0.17143511355E+03 0.  0.
        -24    2    5    5    0    0  0.82280089508E+02  0.14375280383E+02  0.29920680055E+03  0.32162491505E+03  0.83313952445E+02 0.  0.
          5    1    3    3  501    0 -0.77801782715E+01 -0.57135421037E+02 -0.75482023145E+02  0.95103172024E+02  0.47000000000E+01 0. -1.
        -13    1    4    4    0    0 -0.20689130500E+02  0.41143884418E+02  0.14775377815E+02  0.48364978398E+02  0.00000000000E+00 0.  1.
         14    1    4    4    0    0 -0.54384590154E+01  0.30207789115E+02 -0.66753544764E+02  0.73471920475E+02  0.00000000000E+00 0. -1.
         -5    1    5    5    0  502 -0.48372321721E+02 -0.28591532879E+02  0.11167961793E+03  0.12510709142E+03  0.47000000000E+01 0.  1.
         11    1    6    6    0    0  0.76670623465E+02 -0.11435049156E+02  0.13811498651E+03  0.15838211500E+03  0.00000000000E+00 0. -1.
        -12    1    6    6    0    0  0.56094660432E+01  0.25810329539E+02  0.16109181404E+03  0.16324280005E+03  0.00000000000E+00 0.  1.
</event>
<event>
12    1  0.8462562E-002  0.2395526E+03  0.7818608E-02  0.1120437E+00
         21   -1    0    0  503  502  0.00000000000E+00  0.00000000000E+00  0.27143113182E+03  0.27143113182E+03  0.00000000000E+00 0.  1.
         21   -1    0    0  501  503 -0.00000000000E+00 -0.00000000000E+00 -0.46547398438E+03  0.46547398438E+03  0.00000000000E+00 0. -1.
          6    2    1    2  501    0 -0.14034224337E+03 -0.86563825207E+02 -0.37000809689E+03  0.43966914840E+03  0.17092023631E+03 0.  0.
         24    2    3    3    0    0 -0.11494461592E+03 -0.12627798931E+03 -0.32019067752E+03  0.37092236969E+03  0.76830586675E+02 0.  0.
         -6    2    1    2    0  502  0.14034224337E+03  0.86563825207E+02  0.17596524433E+03  0.29723596779E+03  0.17377057355E+03 0.  0.
        -24    2    5    5    0    0  0.77457143224E+02 -0.21394757328E+02  0.68337096604E+02  0.13226475956E+03  0.79791372790E+02 0.  0.
          5    1    3    3  501    0 -0.25397627444E+02  0.39714164106E+02 -0.49817419370E+02  0.68746778711E+02  0.47000000000E+01 0. -1.
        -13    1    4    4    0    0 -0.50958421799E+02 -0.18549899036E+02 -0.53079264947E+02  0.75883251603E+02  0.00000000000E+00 0.  1.
         14    1    4    4    0    0 -0.63986194123E+02 -0.10772809028E+03 -0.26711141257E+03  0.29503911808E+03  0.00000000000E+00 0. -1.
         -5    1    5    5    0  502  0.62885100141E+02  0.10795858253E+03  0.10762814773E+03  0.16497120823E+03  0.47000000000E+01 0.  1.
         11    1    6    6    0    0  0.25765803218E+02 -0.31253529207E+01 -0.16861297826E+02  0.30950731990E+02  0.00000000000E+00 0. -1.
        -12    1    6    6    0    0  0.51691340006E+02 -0.18269404407E+02  0.85198394430E+02  0.10131402757E+03  0.00000000000E+00 0.  1.
</event>
<event>
12    1  0.8462562E-002  0.2641086E+03  0.7818608E-02  0.1104846E+00
         21   -1    0    0  503  502  0.00000000000E+00  0.00000000000E+00  0.31565341045E+03  0.31565341045E+03  0.00000000000E+00 0.  1.
         21   -1    0    0  501  503 -0.00000000000E+00 -0.00000000000E+00 -0.22719741583E+03  0.22719741583E+03  0.00000000000E+00 0.  1.
          6    2    1    2  501    0  0.14181847371E+03  0.14127461256E+03 -0.36451108097E+01  0.26314393607E+03  0.17076430722E+03 0.  0.
         24    2    3    3    0    0  0.76094914691E+02  0.13148169723E+03 -0.53670744030E+02  0.17983642513E+03  0.79891916306E+02 0.  0.
         -6    2    1    2    0  502 -0.14181847371E+03 -0.14127461256E+03  0.92101105424E+02  0.27970689021E+03  0.17228562091E+03 0.  0.
        -24    2    5    5    0    0 -0.56086048535E+02 -0.37387921219E+01  0.13545197181E+02  0.99542322803E+02  0.81028255908E+02 0.  0.
          5    1    3    3  501    0  0.65723559014E+02  0.97929153381E+01  0.50025633221E+02  0.83307510942E+02  0.47000000000E+01 0. -1.
        -11    1    4    4    0    0  0.66245793926E+02  0.11301740674E+03 -0.99664427281E+01  0.13138024745E+03  0.00000000000E+00 0.  1.
         12    1    4    4    0    0  0.98491207649E+01  0.18464290486E+02 -0.43704301302E+02  0.48456177679E+02  0.00000000000E+00 0. -1.
         -5    1    5    5    0  502 -0.85732425170E+02 -0.13753582044E+03  0.78555908243E+02  0.18016456741E+03  0.47000000000E+01 0.  1.
         13    1    6    6    0    0 -0.19169504090E+02 -0.25499412701E+01  0.46299243298E+02  0.50175611780E+02  0.00000000000E+00 0. -1.
        -14    1    6    6    0    0 -0.36916544445E+02 -0.11888508518E+01 -0.32754046117E+02  0.49366711023E+02  0.00000000000E+00 0.  1.
</event>
<event>
12    1  0.8462562E-002  0.2294911E+03  0.7818608E-02  0.1127074E+00
         21   -1    0    0  501  502  0.00000000000E+00  0.00000000000E+00  0.78798985874E+02  0.78798985874E+02  0.00000000000E+00 0. -1.
         21   -1    0    0  502  503 -0.00000000000E+00 -0.00000000000E+00 -0.70184218713E+03  0.70184218713E+03  0.00000000000E+00 0.  1.
         -6    2    1    2    0  503  0.14221997876E+03  0.53340119481E+02 -0.39862419022E+03  0.45996457102E+03  0.17203043585E+03 0.  0.
        -24    2    3    3    0    0  0.90079050263E+02 -0.27426107592E+01 -0.11527185576E+03  0.16640949186E+03  0.79263869706E+02 0.  0.
          6    2    1    2  501    0 -0.14221997876E+03 -0.53340119481E+02 -0.22441901104E+03  0.32067660199E+03  0.17145815770E+03 0.  0.
         24    2    5    5    0    0 -0.81129060995E+02 -0.59205098745E+01 -0.37290746788E+02  0.11814315564E+03  0.77137723931E+02 0.  0.
          5    1    5    5  501    0 -0.61090917764E+02 -0.47419609607E+02 -0.18712826425E+03  0.20253344635E+03  0.47000000000E+01 0. -1.
        -13    1    6    6    0    0  0.39266191972E+01  0.20202366632E+02 -0.17446581546E+02  0.26980310663E+02  0.00000000000E+00 0.  1.
         14    1    6    6    0    0 -0.85055680193E+02 -0.26122876506E+02 -0.19844165241E+02  0.91162844976E+02  0.00000000000E+00 0. -1.
         -5    1    3    3    0  503  0.52140928496E+02  0.56082730241E+02 -0.28335233445E+03  0.29355507915E+03  0.47000000000E+01 0.  1.
         11    1    4    4    0    0  0.17326304041E+02 -0.33237187870E+02 -0.19240705381E+02  0.42132128035E+02  0.00000000000E+00 0. -1.
        -12    1    4    4    0    0  0.72752746222E+02  0.30494577111E+02 -0.96031150384E+02  0.12427736383E+03  0.00000000000E+00 0.  1.
</event>
<event>
12    1  0.8462562E-002  0.2206959E+03  0.7818608E-02  0.1133589E+00
         21   -1    0    0  503  502  0.00000000000E+00  0.00000000000E+00  0.35064918035E+03  0.35064918035E+03  0.00000000000E+00 0.  1.
         21   -1    0    0  501  503 -0.00000000000E+00 -0.00000000000E+00 -0.38410945607E+03  0.38410945607E+03  0.00000000000E+00 0.  1.
          6    2    1    2  501    0  0.58126170551E+02 -0.12545772485E+03 -0.31069533222E+03  0.38040575153E+03  0.17046599047E+03 0.  0.
         24    2    3    3    0    0  0.35102103542E+02 -0.15508569395E+01 -0.98687414606E+02  0.13372282406E+03  0.83114529666E+02 0.  0.
         -6    2    1    2    0  502 -0.58126170551E+02  0.12545772485E+03  0.27723505649E+03  0.35435288489E+03  0.17201278458E+03 0.  0.
        -24    2    5    5    0    0 -0.36000706059E+02  0.57386111796E+02  0.26040387214E+03  0.28067344781E+03  0.79863577534E+02 0.  0.
          5    1    3    3  501    0  0.23024067008E+02 -0.12390686791E+03 -0.21200791761E+03  0.24668292747E+03  0.47000000000E+01 0. -1.
        -13    1    4    4    0    0  0.37039317955E+02  0.29198145999E+02 -0.90165706097E+02  0.10175606793E+03  0.00000000000E+00 0.  1.
         14    1    4    4    0    0 -0.19372144126E+01 -0.30749002938E+02 -0.85217085088E+01  0.31966756127E+02  0.00000000000E+00 0. -1.
         -5    1    5    5    0  502 -0.22125464491E+02  0.68071613049E+02  0.16831184352E+02  0.73679437083E+02  0.47000000000E+01 0.  1.
         11    1    6    6    0    0 -0.32095045248E+02  0.41770274276E+01  0.29857155489E+02  0.44033955324E+02  0.00000000000E+00 0. -1.
        -12    1    6    6    0    0 -0.39056608113E+01  0.53209084369E+02  0.23054671665E+03  0.23663949248E+03  0.00000000000E+00 0.  1.
</event>
<event>
12    1  0.8462562E-002  0.2163436E+03  0.7818608E-02  0.1136649E+00
         21   -1    0    0  501  502  0.00000000000E+00  0.00000000000E+00  0.78949395273E+03  0.78949395273E+03  0.00000000000E+00 0. -1.
         21   -1    0    0  502  503 -0.00000000000E+00 -0.00000000000E+00 -0.17270846546E+03  0.17270846546E+03  0.00000000000E+00 0.  1.
         -6    2    1    2    0  503  0.61759160738E+02  0.11466097280E+03 -0.81500625957E+02  0.23118589593E+03  0.17275194305E+03 0.  0.
        -24    2    3    3    0    0  0.36268751204E+02  0.56594438245E+01 -0.80729345682E+02  0.11914224742E+03  0.79562530429E+02 0.  0.
          6    2    1    2  501    0 -0.61759160738E+02 -0.11466097280E+03  0.69828611322E+03  0.73101652226E+03  0.17268563137E+03 0.  0.
         24    2    5    5    0    0  0.14310094731E+02 -0.14031188400E+02  0.36645105819E+03  0.37598204663E+03  0.81697419069E+02 0.  0.
          5    1    5    5  501    0 -0.76069255469E+02 -0.10062978440E+03  0.33183505503E+03  0.35503447563E+03  0.47000000000E+01 0. -1.
        -13    1    6    6    0    0  0.26207245969E+02 -0.63295924518E+01  0.34769043162E+02  0.43997384517E+02  0.00000000000E+00 0.  1.
         14    1    6    6    0    0 -0.11897151238E+02 -0.77015959478E+01  0.33168201503E+03  0.33198466212E+03  0.00000000000E+00 0. -1.
         -5    1    3    3    0  503  0.25490409534E+02  0.10900152898E+03 -0.77128027476E+00  0.11204364851E+03  0.47000000000E+01 0.  1.
         13    1    4    4    0    0  0.52855102054E+02  0.27180002927E+02 -0.46638892541E+02  0.75548664248E+02  0.00000000000E+00 0. -1.
        -14    1    4    4    0    0 -0.16586350850E+02 -0.21520559103E+02 -0.34090453140E+02  0.43593583174E+02  0.00000000000E+00 0.  1.
</event>
<event>
12    1  0.8462562E-002  0.1826007E+03  0.7818608E-02  0.1165703E+00
         21   -1    0    0  501  502  0.00000000000E+00  0.00000000000E+00  0.11052342479E+04  0.11052342479E+04  0.00000000000E+00 0. -1.
         21   -1    0    0  502  503 -0.00000000000E+00 -0.00000000000E+00 -0.32223533338E+02  0.32223533338E+02  0.00000000000E+00 0. -1.
         -6    2    1    2    0  503 -0.26115604203E+02  0.50639077809E+02  0.38141005454E+03  0.42215751477E+03  0.17174689688E+03 0.  0.
        -24    2    3    3    0    0  0.14221865313E+02  0.13419293404E+02  0.76876146016E+02  0.11268148138E+03  0.80030216369E+02 0.  0.
          6    2    1    2  501    0  0.26115604203E+02 -0.50639077809E+02  0.69160066005E+03  0.71530026650E+03  0.17348388193E+03 0.  0.
         24    2    5    5    0    0  0.24847230354E+02 -0.71616496265E+01  0.64846977417E+03  0.65386526955E+03  0.79737498260E+02 0.  0.
          5    1    5    5  501    0  0.12683738487E+01 -0.43477428183E+02  0.43130885885E+02  0.61434996955E+02  0.47000000000E+01 0. -1.
        -13    1    6    6    0    0  0.23359184717E+01 -0.36383312697E+02  0.48107104626E+03  0.48245057105E+03  0.00000000000E+00 0.  1.
         14    1    6    6    0    0  0.22511311883E+02  0.29221663070E+02  0.16739872791E+03  0.17141469850E+03  0.00000000000E+00 0. -1.
         -5    1    3    3    0  503 -0.40337469516E+02  0.37219784406E+02  0.30453390853E+03  0.30947603339E+03  0.47000000000E+01 0.  1.
         11    1    4    4    0    0  0.12592146163E+02  0.11312982767E+02  0.93918746974E+02  0.95432053091E+02  0.00000000000E+00 0. -1.
        -12    1    4    4    0    0  0.16297191503E+01  0.21063106370E+01 -0.17042600958E+02  0.17249428293E+02  0.00000000000E+00 0.  1.
</event>
<event>
12    1  0.8462562E-002  0.1973379E+03  0.7818608E-02  0.1152344E+00
         21   -1    0    0  501  502  0.00000000000E+00  0.00000000000E+00  0.44271083963E+02  0.44271083963E+02  0.00000000000E+00 0. -1.
         21   -1    0    0  502  503 -0.00000000000E+00 -0.00000000000E+00 -0.10110924419E+04  0.10110924419E+04  0.00000000000E+00 0. -1.
         -6    2    1    2    0  503 -0.38689938317E+02  0.86032317831E+02 -0.28647456668E+03  0.34697521793E+03  0.17153907271E+03 0.  0.
        -24    2    3    3    0    0  0.16223672549E+02  0.97242318576E+02 -0.13567487149E+03  0.18602862168E+03  0.80496591592E+02 0.  0.
          6    2    1    2  501    0  0.38689938317E+02 -0.86032317831E+02 -0.68034679130E+03  0.70838830798E+03  0.17333138033E+03 0.  0.
         24    2    5    5    0    0 -0.29077702280E+02 -0.25102571686E+01 -0.22529375917E+03  0.24077335977E+03  0.79766651525E+02 0.  0.
          5    1    5    5  501    0  0.67767640597E+02 -0.83522060662E+02 -0.45505303213E+03  0.46761494820E+03  0.47000000000E+01 0. -1.
        -13    1    6    6    0    0  0.80183975546E+01 -0.17396499342E+02 -0.96360456961E+01  0.21442627296E+02  0.00000000000E+00 0.  1.
         14    1    6    6    0    0 -0.37096099835E+02  0.14886242174E+02 -0.21565771347E+03  0.21933073248E+03  0.00000000000E+00 0. -1.
         -5    1    3    3    0  503 -0.54913610866E+02 -0.11210000745E+02 -0.15079969519E+03  0.16094659625E+03  0.47000000000E+01 0.  1.
         11    1    4    4    0    0 -0.28600329094E+02  0.33678049867E+02 -0.25029143699E+02  0.50780388945E+02  0.00000000000E+00 0. -1.
        -12    1    4    4    0    0  0.44824001643E+02  0.63564268709E+02 -0.11064572779E+03  0.13524823274E+03  0.00000000000E+00 0.  1.
</event>
<event>
12    1  0.8462562E-002  0.3431444E+03  0.7818608E-02  0.1065501E+00
         21   -1    0    0  503  502  0.00000000000E+00  0.00000000000E+00  0.78506434257E+03  0.78506434257E+03  0.00000000000E+00 0. -1.
         21   -1    0    0  501  503 -0.00000000000E+00 -0.00000000000E+00 -0.15040032709E+03  0.15040032709E+03  0.00000000000E+00 0. -1.
          6    2    1    2  501    0 -0.19147835830E+03 -0.22636798031E+03  0.28843705525E+03  0.44800061368E+03  0.17205287213E+03 0.  0.
         24    2    3    3    0    0 -0.51326914272E+02 -0.15344367274E+03  0.11930269032E+03  0.21650783777E+03  0.80393401875E+02 0.  0.
         -6    2    1    2    0  502  0.19147835830E+03  0.22636798031E+03  0.34622696023E+03  0.48746405599E+03  0.17274742742E+03 0.  0.
        -24    2    5    5    0    0  0.24468403922E+02  0.49409138570E+02  0.91519564915E+02  0.13517908077E+03  0.82810550971E+02 0.  0.
          5    1    3    3  501    0 -0.14015144403E+03 -0.72924307570E+02  0.16913436493E+03  0.23149277591E+03  0.47000000000E+01 0. -1.
        -11    1    4    4    0    0 -0.44124319080E+02 -0.67124725645E+02  0.16370923542E+02  0.81979823523E+02  0.00000000000E+00 0.  1.
         12    1    4    4    0    0 -0.72025951918E+01 -0.86318947097E+02  0.10293176678E+03  0.13452801425E+03  0.00000000000E+00 0. -1.
         -5    1    5    5    0  502  0.16700995438E+03  0.17695884174E+03  0.25470739531E+03  0.35228497521E+03  0.47000000000E+01 0.  1.
         13    1    6    6    0    0  0.54029655084E+02  0.35328502922E+02  0.46711634455E+02  0.79682391660E+02  0.00000000000E+00 0. -1.
        -14    1    6    6    0    0 -0.29561251163E+02  0.14080635648E+02  0.44807930461E+02  0.55496689115E+02  0.00000000000E+00 0.  1.
</event>
<event>
12    1  0.8462562E-002  0.1771471E+03  0.7818608E-02  0.1170715E+00
         21   -1    0    0  501  502  0.00000000000E+00  0.00000000000E+00  0.35411060925E+03  0.35411060925E+03  0.00000000000E+00 0. -1.
         21   -1    0    0  502  503 -0.00000000000E+00 -0.00000000000E+00 -0.23847461495E+03  0.23847461495E+03  0.00000000000E+00 0. -1.
         -6    2    1    2    0  503  0.38658181844E+02 -0.21719169271E+02 -0.17721948156E+03  0.25057501885E+03  0.17150777851E+03 0.  0.
        -24    2    3    3    0    0 -0.17253563750E+02 -0.54259338987E+02 -0.54343931846E+02  0.11163086943E+03  0.79160765233E+02 0.  0.
          6    2    1    2  501    0 -0.38658181844E+02  0.21719169271E+02  0.29285547586E+03  0.34201020535E+03  0.17099846047E+03 0.  0.
         24    2    5    5    0    0  0.36146870727E+02 -0.14793287310E+02  0.18627799283E+03  0.20669647632E+03  0.80613305939E+02 0.  0.
          5    1    5    5  501    0 -0.74805052571E+02  0.36512456581E+02  0.10657748303E+03  0.13531372903E+03  0.47000000000E+01 0. -1.
        -11    1    6    6    0    0  0.56969370283E+02  0.29868942160E+01  0.89630676136E+02  0.10624541775E+03  0.00000000000E+00 0.  1.
         12    1    6    6    0    0 -0.20822499556E+02 -0.17780181526E+02  0.96647316696E+02  0.10045105857E+03  0.00000000000E+00 0. -1.
         -5    1    3    3    0  503  0.55911745594E+02  0.32540169716E+02 -0.12287554971E+03  0.13894414942E+03  0.47000000000E+01 0.  1.
         13    1    4    4    0    0 -0.27536190503E+02 -0.36950849512E+02 -0.71577972250E+02  0.85129390804E+02  0.00000000000E+00 0. -1.
        -14    1    4    4    0    0  0.10282626754E+02 -0.17308489475E+02  0.17234040404E+02  0.26501478629E+02  0.00000000000E+00 0.  1.
</event>
<event>
12    1  0.8462562E-002  0.2805338E+03  0.7818608E-02  0.1095475E+00
         21   -1    0    0  503  502  0.00000000000E+00  0.00000000000E+00  0.14107393635E+03  0.14107393635E+03  0.00000000000E+00 0. -1.
         21   -1    0    0  501  503 -0.00000000000E+00 -0.00000000000E+00 -0.92988690033E+03  0.92988690033E+03  0.00000000000E+00 0.  1.
          6    2    1    2  501    0  0.17303964482E+03 -0.13710989424E+03 -0.73338187000E+03  0.78500310152E+03  0.17215998482E+03 0.  0.
         24    2    3    3    0    0  0.34981858543E+02 -0.48890209918E+02 -0.41226052737E+03  0.42447061790E+03  0.81256261169E+02 0.  0.
         -6    2    1    2    0  502 -0.17303964482E+03  0.13710989424E+03 -0.55431093987E+02  0.28595773517E+03  0.17308199891E+03 0.  0.
        -24    2    5    5    0    0 -0.11199657373E+03  0.50405006177E+02  0.30003104001E+02  0.14970397806E+03  0.80169804926E+02 0.  0.
          5    1    3    3  501    0  0.13805778627E+03 -0.88219684317E+02 -0.32112134263E+03  0.36053248362E+03  0.47000000000E+01 0. -1.
        -13    1    4    4    0    0 -0.15653703843E+02 -0.45104826126E+02 -0.15269410574E+03  0.15998429208E+03  0.00000000000E+00 0.  1.
         14    1    4    4    0    0  0.50635562386E+02 -0.37853837916E+01 -0.25956642163E+03  0.26448632582E+03  0.00000000000E+00 0. -1.
         -5    1    5    5    0  502 -0.61043071088E+02  0.86704888058E+02 -0.85434197988E+02  0.13625375711E+03  0.47000000000E+01 0.  1.
         11    1    6    6    0    0 -0.52252854120E+02 -0.10717133345E+02  0.35472243177E+02  0.64058549365E+02  0.00000000000E+00 0. -1.
        -12    1    6    6    0    0 -0.59743719607E+02  0.61122139522E+02 -0.54691391759E+01  0.85645428690E+02  0.00000000000E+00 0.  1.
</event>
<event>
12    1  0.8462562E-002  0.1864945E+03  0.7818608E-02  0.1161879E+00
         21   -1    0    0  503  502  0.00000000000E+00  0.00000000000E+00  0.24402612977E+03  0.24402612977E+03  0.00000000000E+00 0. -1.
         21   -1    0    0  501  503 -0.00000000000E+00 -0.00000000000E+00 -0.14293384149E+03  0.14293384149E+03  0.00000000000E+00 0. -1.
          6    2    1    2  501    0  0.51936430878E+02  0.44710408778E+02  0.33519555068E+02  0.18948290928E+03  0.17344681846E+03 0.  0.
         24    2    3    3    0    0  0.69951387097E+02 -0.17517754362E+02 -0.14682826051E+02  0.10859754299E+03  0.79860958466E+02 0.  0.
         -6    2    1    2    0  502 -0.51936430878E+02 -0.44710408778E+02  0.67572733214E+02  0.19747706197E+03  0.17243753137E+03 0.  0.
        -24    2    5    5    0    0  0.24252364050E+02  0.93814931717E+01  0.20487734651E+00  0.82189663126E+02  0.77967359670E+02 0.  0.
          5    1    3    3  501    0 -0.18014956219E+02  0.62228163140E+02  0.48202381119E+02  0.80885366296E+02  0.47000000000E+01 0. -1.
        -11    1    4    4    0    0  0.48609405446E+02 -0.48804037727E+02 -0.29323645200E+01  0.68944232232E+02  0.00000000000E+00 0.  1.
         12    1    4    4    0    0  0.21341981651E+02  0.31286283365E+02 -0.11750461531E+02  0.39653310754E+02  0.00000000000E+00 0. -1.
         -5    1    5    5    0  502 -0.76188794928E+02 -0.54091901950E+02  0.67367855867E+02  0.11528739885E+03  0.47000000000E+01 0.  1.
         13    1    6    6    0    0  0.12861379453E+01  0.21285175060E+02  0.33693150883E+02  0.39874067319E+02  0.00000000000E+00 0. -1.
        -14    1    6    6    0    0  0.22966226105E+02 -0.11903681888E+02 -0.33488273537E+02  0.42315595806E+02  0.00000000000E+00 0.  1.
</event>
<event>
12    1  0.8462562E-002  0.1752602E+03  0.7818608E-02  0.1172514E+00
         21   -1    0    0  503  502  0.00000000000E+00  0.00000000000E+00  0.24371296739E+03  0.24371296739E+03  0.00000000000E+00 0. -1.
         21   -1    0    0  501  503 -0.00000000000E+00 -0.00000000000E+00 -0.27889760712E+03  0.27889760712E+03  0.00000000000E+00 0. -1.
          6    2    1    2  501    0  0.10795779661E+02 -0.30996997293E+02 -0.21112044014E+03  0.27427704498E+03  0.17198457622E+03 0.  0.
         24    2    3    3    0    0 -0.32983460245E+02 -0.31834797838E+02 -0.33322831786E+02  0.91106623528E+02  0.71334723168E+02 0.  0.
         -6    2    1    2    0  502 -0.10795779661E+02  0.30996997293E+02  0.17593580042E+03  0.24833352953E+03  0.17215915114E+03 0.  0.
        -24    2    5    5    0    0  0.15369629899E+02  0.68073396991E+02  0.17435112327E+03  0.20268389345E+03  0.76238006122E+02 0.  0.
          5    1    3    3  501    0  0.43779239906E+02  0.83780054501E+00 -0.17779760836E+03  0.18317042145E+03  0.47000000000E+01 0. -1.
        -11    1    4    4    0    0 -0.13868571055E+02 -0.33677102614E+02 -0.52546527429E+02  0.63934513750E+02  0.00000000000E+00 0.  1.
         12    1    4    4    0    0 -0.19114889190E+02  0.18423047763E+01  0.19223695643E+02  0.27172109779E+02  0.00000000000E+00 0. -1.
         -5    1    5    5    0  502 -0.26165409561E+02 -0.37076399698E+02  0.15846771438E+01  0.45649636075E+02  0.47000000000E+01 0.  1.
         13    1    6    6    0    0  0.39162032005E+02  0.22670803302E+02  0.11865256305E+03  0.12698842779E+03  0.00000000000E+00 0. -1.
        -14    1    6    6    0    0 -0.23792402105E+02  0.45402593689E+02  0.55698560222E+02  0.75695465666E+02  0.00000000000E+00 0.  1.
</event>
<event>
12    1  0.8462562E-002  0.1977090E+03  0.7818608E-02  0.1151876E+00
         21   -1    0    0  501  502  0.00000000000E+00  0.00000000000E+00  0.61609869819E+03  0.61609869819E+03  0.00000000000E+00 0. -1.
         21   -1    0    0  502  503 -0.00000000000E+00 -0.00000000000E+00 -0.16776112923E+03  0.16776112923E+03  0.00000000000E+00 0. -1.
         -6    2    1    2    0  503  0.96620532093E+02 -0.12182750229E+02 -0.85494921596E+02  0.21459191072E+03  0.17104490610E+03 0.  0.
        -24    2    3    3    0    0  0.10101277318E+03 -0.63817071150E+02 -0.51159658936E+02  0.15225095195E+03  0.79289613138E+02 0.  0.
          6    2    1    2  501    0 -0.96620532093E+02  0.12182750229E+02  0.53383249055E+03  0.56926791670E+03  0.17206070552E+03 0.  0.
         24    2    5    5    0    0 -0.76982186738E+02 -0.55509744270E+02  0.29330416684E+03  0.31858105440E+03  0.80367687243E+02 0.  0.
          5    1    5    5  501    0 -0.19638345355E+02  0.67692494498E+02  0.24052832371E+03  0.25068686230E+03  0.47000000000E+01 0. -1.
        -13    1    6    6    0    0  0.11511760971E+02  0.90461425111E+01  0.40535612405E+02  0.43098598678E+02  0.00000000000E+00 0.  1.
         14    1    6    6    0    0 -0.88493947709E+02 -0.64555886781E+02  0.25276855444E+03  0.27548245572E+03  0.00000000000E+00 0. -1.
         -5    1    3    3    0  503 -0.43922410840E+01  0.51634320921E+02 -0.34335262660E+02  0.62340958772E+02  0.47000000000E+01 0.  1.
         13    1    4    4    0    0  0.77912689955E+02 -0.61057064678E+02 -0.70884923180E+02  0.12174984492E+03  0.00000000000E+00 0. -1.
        -14    1    4    4    0    0  0.23100083221E+02 -0.27600064712E+01  0.19725264244E+02  0.30501107030E+02  0.00000000000E+00 0.  1.
</event>
<event>
12    1  0.8462562E-002  0.1978259E+03  0.7818608E-02  0.1153044E+00
         21   -1    0    0  501  502  0.00000000000E+00  0.00000000000E+00  0.17536628676E+03  0.17536628676E+03  0.00000000000E+00 0. -1.
         21   -1    0    0  502  503 -0.00000000000E+00 -0.00000000000E+00 -0.25616602419E+03  0.25616602419E+03  0.00000000000E+00 0. -1.
         -6    2    1    2    0  503 -0.94668887609E+02  0.24020549157E+02 -0.12558225081E+03  0.22870091521E+03  0.16429857527E+03 0.  0.
        -24    2    3    3    0    0 -0.71941358017E+02  0.45804021967E+02 -0.20087789980E+02  0.11850912080E+03  0.79795519833E+02 0.  0.
          6    2    1    2  501    0  0.94668887609E+02 -0.24020549157E+02  0.44782513380E+02  0.20283139574E+03  0.17203463759E+03 0.  0.
         24    2    5    5    0    0  0.34742516911E+02  0.47136888988E+02 -0.18777627878E+01  0.98649716540E+02  0.79368203933E+02 0.  0.
          5    1    5    5  501    0  0.59926370698E+02 -0.71157438145E+02  0.46660276168E+02  0.10418167920E+03  0.47000000000E+01 0. -1.
        -11    1    6    6    0    0 -0.16620830433E+02  0.16382382315E+02 -0.25249323627E+02  0.34382594408E+02  0.00000000000E+00 0.  1.
         12    1    6    6    0    0  0.51363347344E+02  0.30754506673E+02  0.23371560840E+02  0.64267122132E+02  0.00000000000E+00 0. -1.
         -5    1    3    3    0  503 -0.22727529592E+02 -0.21783472810E+02 -0.10549446083E+03  0.11019179441E+03  0.47000000000E+01 0.  1.
         13    1    4    4    0    0 -0.72857255485E+02  0.12462332197E+02 -0.35226133962E+02  0.81880216869E+02  0.00000000000E+00 0. -1.
        -14    1    4    4    0    0  0.91589746796E+00  0.33341689770E+02  0.15138343981E+02  0.36628903934E+02  0.00000000000E+00 0.  1.
</event>
<event>
12    1  0.8462562E-002  0.1979090E+03  0.7818608E-02  0.1151676E+00
         21   -1    0    0  501  502  0.00000000000E+00  0.00000000000E+00  0.79821556605E+02  0.79821556605E+02  0.00000000000E+00 0. -1.
         21   -1    0    0  502  503 -0.00000000000E+00 -0.00000000000E+00 -0.57431406513E+03  0.57431406513E+03  0.00000000000E+00 0. -1.
         -6    2    1    2    0  503 -0.53698229553E+02 -0.80696558566E+02 -0.37382674784E+03  0.42298277581E+03  0.17254725963E+03 0.  0.
        -24    2    3    3    0    0 -0.34623019361E+02  0.16609733372E+02 -0.11571024231E+03  0.14643513339E+03  0.81115666828E+02 0.  0.
          6    2    1    2  501    0  0.53698229553E+02  0.80696558566E+02 -0.12066576068E+03  0.23115284592E+03  0.17168569526E+03 0.  0.
         24    2    5    5    0    0  0.45258506698E+02  0.26494701591E+02 -0.14186679783E+03  0.17215586127E+03  0.82226216036E+02 0.  0.
          5    1    5    5  501    0  0.84397228557E+01  0.54201856975E+02  0.21201037152E+02  0.58996984650E+02  0.47000000000E+01 0. -1.
        -13    1    6    6    0    0  0.39511731705E+02 -0.14653779800E+02 -0.11550007178E+03  0.12294786207E+03  0.00000000000E+00 0.  1.
         14    1    6    6    0    0  0.57467749927E+01  0.41148481391E+02 -0.26366726046E+02  0.49207999207E+02  0.00000000000E+00 0. -1.
         -5    1    3    3    0  503 -0.19075210193E+02 -0.97306291938E+02 -0.25811650554E+03  0.27654764242E+03  0.47000000000E+01 0.  1.
         13    1    4    4    0    0 -0.40830209797E+02 -0.18104237345E+02 -0.96366096049E+02  0.10621343564E+03  0.00000000000E+00 0. -1.
        -14    1    4    4    0    0  0.62071904360E+01  0.34713970716E+02 -0.19344146257E+02  0.40221697756E+02  0.00000000000E+00 0.  1.
</event>
<event>
12    1  0.8462562E-002  0.1930905E+03  0.7818608E-02  0.1156424E+00
         21   -1    0    0  503  502  0.00000000000E+00  0.00000000000E+00  0.70026366482E+03  0.70026366482E+03  0.00000000000E+00 0. -1.
         21   -1    0    0  501  503 -0.00000000000E+00 -0.00000000000E+00 -0.70045738220E+02  0.70045738220E+02  0.00000000000E+00 0. -1.
          6    2    1    2  501    0 -0.64930119631E+02 -0.52233477741E+02  0.11956235019E+03  0.22436704265E+03  0.17059061408E+03 0.  0.
         24    2    3    3    0    0 -0.19792567748E+02  0.19257784994E+01 -0.89147333720E+01  0.77741415195E+02  0.74624398185E+02 0.  0.
         -6    2    1    2    0  502  0.64930119631E+02  0.52233477741E+02  0.51065557642E+03  0.54594236039E+03  0.17418291109E+03 0.  0.
        -24    2    5    5    0    0  0.66477757098E+02 -0.14044658583E+02  0.42654574005E+03  0.43874282163E+03  0.77054854223E+02 0.  0.
          5    1    3    3  501    0 -0.45137551884E+02 -0.54159256240E+02  0.12847708356E+03  0.14662562745E+03  0.47000000000E+01 0. -1.
        -13    1    4    4    0    0  0.77415814839E+01 -0.15112906610E+02  0.25405369605E+02  0.30557565918E+02  0.00000000000E+00 0.  1.
         14    1    4    4    0    0 -0.27534149232E+02  0.17038685109E+02 -0.34320102977E+02  0.47183849276E+02  0.00000000000E+00 0. -1.
         -5    1    5    5    0  502 -0.15476374662E+01  0.66278136324E+02  0.84109836370E+02  0.10719953876E+03  0.47000000000E+01 0.  1.
         11    1    6    6    0    0  0.79949482118E+02  0.31479792635E+01  0.30939379179E+03  0.31957213249E+03  0.00000000000E+00 0. -1.
        -12    1    6    6    0    0 -0.13471725021E+02 -0.17192637846E+02  0.11715194826E+03  0.11917068915E+03  0.00000000000E+00 0.  1.
</event>
<event>
12    1  0.8462562E-002  0.2063044E+03  0.7818608E-02  0.1145285E+00
         21   -1    0    0  503  502  0.00000000000E+00  0.00000000000E+00  0.48473951569E+02  0.48473951569E+02  0.00000000000E+00 0.  1.
         21   -1    0    0  501  503 -0.00000000000E+00 -0.00000000000E+00 -0.12606207091E+04  0.12606207091E+04  0.00000000000E+00 0.  1.
          6    2    1    2  501    0  0.34295135109E+02 -0.10478814674E+03 -0.97022670187E+03  0.99115315341E+03  0.16996472720E+03 0.  0.
         24    2    3    3    0    0  0.64848481408E+02 -0.40601773633E+02 -0.78742064426E+03  0.79495544148E+03  0.77904129409E+02 0.  0.
         -6    2    1    2    0  502 -0.34295135109E+02  0.10478814674E+03 -0.24192005569E+03  0.31794150729E+03  0.17436965540E+03 0.  0.
        -24    2    5    5    0    0 -0.17756032857E+02  0.81817122467E+02 -0.25984060053E+03  0.28411184889E+03  0.78696167412E+02 0.  0.
          5    1    3    3  501    0 -0.30553346299E+02 -0.64186373112E+02 -0.18280605761E+03  0.19619771192E+03  0.47000000000E+01 0. -1.
        -13    1    4    4    0    0 -0.90051969292E+01  0.14164734097E+02 -0.97339644707E+02  0.98776210170E+02  0.00000000000E+00 0.  1.
         14    1    4    4    0    0  0.73853678337E+02 -0.54766507730E+02 -0.69008099955E+03  0.69617923131E+03  0.00000000000E+00 0. -1.
         -5    1    5    5    0  502 -0.16539102252E+02  0.22971024278E+02  0.17920544845E+02  0.33829658397E+02  0.47000000000E+01 0.  1.
         13    1    6    6    0    0 -0.18061829784E+02  0.64380677066E+02 -0.83792338874E+02  0.10720194648E+03  0.00000000000E+00 0. -1.
        -14    1    6    6    0    0  0.30579692665E+00  0.17436445400E+02 -0.17604826166E+03  0.17690990242E+03  0.00000000000E+00 0.  1.
</event>
<event>
12    1  0.8462562E-002  0.2338644E+03  0.7818608E-02  0.1124030E+00
         21   -1    0    0  503  502  0.00000000000E+00  0.00000000000E+00  0.86115806207E+02  0.86115806207E+02  0.00000000000E+00 0.  1.
         21   -1    0    0  501  503 -0.00000000000E+00 -0.00000000000E+00 -0.91168240352E+03  0.91168240352E+03  0.00000000000E+00 0.  1.
          6    2    1    2  501    0 -0.17040279305E+02  0.15649722869E+03 -0.13765086142E+03  0.27136753322E+03  0.17294746234E+03 0.  0.
         24    2    3    3    0    0  0.14933666692E+02  0.53904421953E+02 -0.41815743836E+00  0.97004342554E+02  0.79252548928E+02 0.  0.
         -6    2    1    2    0  502  0.17040279305E+02 -0.15649722869E+03 -0.68791573589E+03  0.72643067650E+03  0.17231283867E+03 0.  0.
        -24    2    5    5    0    0  0.54316079811E+02 -0.61993073376E+02 -0.49765366670E+03  0.51069411111E+03  0.79724058273E+02 0.  0.
          5    1    3    3  501    0 -0.31973945997E+02  0.10259280674E+03 -0.13723270398E+03  0.17436319066E+03  0.47000000000E+01 0. -1.
        -11    1    4    4    0    0 -0.30068018052E+00 -0.19985164304E+02  0.70443084478E+01  0.21192439273E+02  0.00000000000E+00 0.  1.
         12    1    4    4    0    0  0.15234346873E+02  0.73889586257E+02 -0.74624658862E+01  0.75811903281E+02  0.00000000000E+00 0. -1.
         -5    1    5    5    0  502 -0.37275800506E+02 -0.94504155318E+02 -0.19026206919E+03  0.21573656540E+03  0.47000000000E+01 0.  1.
         11    1    6    6    0    0 -0.59528356214E+01  0.57920090393E+01 -0.48611596456E+01  0.96236424365E+01  0.00000000000E+00 0. -1.
        -12    1    6    6    0    0  0.60268915432E+02 -0.67785082415E+02 -0.49279250705E+03  0.50107046867E+03  0.00000000000E+00 0.  1.
</event>
<event>
12    1  0.8462562E-002  0.1820276E+03  0.7818608E-02  0.1166125E+00
         21   -1    0    0  503  502  0.00000000000E+00  0.00000000000E+00  0.13534653768E+03  0.13534653768E+03  0.00000000000E+00 0. -1.
         21   -1    0    0  501  503 -0.00000000000E+00 -0.00000000000E+00 -0.47825555213E+03  0.47825555213E+03  0.00000000000E+00 0.  1.
          6    2    1    2  501    0  0.47421207097E+02 -0.29753255037E+02 -0.38622597899E+03  0.42649139793E+03  0.17201854143E+03 0.  0.
         24    2    3    3    0    0  0.87972146383E+02  0.95325440539E+01 -0.21346774447E+03  0.24468036889E+03  0.80436540549E+02 0.  0.
         -6    2    1    2    0  502 -0.47421207097E+02  0.29753255037E+02  0.43316964539E+02  0.18711069188E+03  0.17320515157E+03 0.  0.
        -24    2    5    5    0    0 -0.62231356313E+02 -0.23331603255E+02 -0.17786020285E+02  0.10469098881E+03  0.78909791544E+02 0.  0.
          5    1    3    3  501    0 -0.40550939286E+02 -0.39285799091E+02 -0.17275823452E+03  0.18181102904E+03  0.47000000000E+01 0. -1.
        -13    1    4    4    0    0  0.36985197004E+02 -0.30961552799E+02 -0.13106173588E+03  0.13965565209E+03  0.00000000000E+00 0.  1.
         14    1    4    4    0    0  0.50986949379E+02  0.40494096853E+02 -0.82406008590E+02  0.10502471680E+03  0.00000000000E+00 0. -1.
         -5    1    5    5    0  502  0.14810149216E+02  0.53084858292E+02  0.61102984823E+02  0.82419703069E+02  0.47000000000E+01 0.  1.
         11    1    6    6    0    0 -0.56487384635E+02  0.16469988658E+02  0.39624653114E+01  0.58972758801E+02  0.00000000000E+00 0. -1.
        -12    1    6    6    0    0 -0.57439716787E+01 -0.39801591913E+02 -0.21748485596E+02  0.45718230010E+02  0.00000000000E+00 0.  1.
</event>
<event>
12    1  0.8462562E-002  0.1821947E+03  0.7818608E-02  0.1166090E+00
         21   -1    0    0  503  502  0.00000000000E+00  0.00000000000E+00  0.81959262789E+03  0.81959262789E+03  0.00000000000E+00 0.  1.
         21   -1    0    0  501  503 -0.00000000000E+00 -0.00000000000E+00 -0.62770438882E+02  0.62770438882E+02  0.00000000000E+00 0.  1.
          6    2    1    2  501    0  0.54046644333E+02  0.20017551268E+02  0.11239387921E+03  0.21267452193E+03  0.17110326143E+03 0.  0.
         24    2    3    3    0    0  0.76727048330E+02  0.15315117638E+02  0.13822816752E+03  0.17766003836E+03  0.79589384719E+02 0.  0.
         -6    2    1    2    0  502 -0.54046644333E+02 -0.20017551268E+02  0.64442830980E+03  0.66968854484E+03  0.17283853301E+03 0.  0.
        -24    2    5    5    0    0  0.43362062291E+01 -0.47815486230E+02  0.20407480202E+03  0.22458789977E+03  0.80548597101E+02 0.  0.
          5    1    3    3  501    0 -0.22680403996E+02  0.47024336307E+01 -0.25834288311E+02  0.35014483575E+02  0.47000000000E+01 0. -1.
        -13    1    4    4    0    0  0.53174101106E+02  0.35393487345E+02  0.13119860547E+03  0.14592209583E+03  0.00000000000E+00 0.  1.
         14    1    4    4    0    0  0.23552947224E+02 -0.20078369708E+02  0.70295620466E+01  0.31737942523E+02  0.00000000000E+00 0. -1.
         -5    1    5    5    0  502 -0.58382850562E+02  0.27797934962E+02  0.44035350778E+03  0.44510064507E+03  0.47000000000E+01 0.  1.
         11    1    6    6    0    0 -0.19537717489E+02  0.14732963310E+02  0.79255163538E+02  0.82946751353E+02  0.00000000000E+00 0. -1.
        -12    1    6    6    0    0  0.23873923718E+02 -0.62548449540E+02  0.12481963848E+03  0.14164114842E+03  0.00000000000E+00 0.  1.
</event>
<event>
12    1  0.8462562E-002  0.2221735E+03  0.7818608E-02  0.1132995E+00
         21   -1    0    0  503  502  0.00000000000E+00  0.00000000000E+00  0.35160222694E+03  0.35160222694E+03  0.00000000000E+00 0.  1.
         21   -1    0    0  501  503 -0.00000000000E+00 -0.00000000000E+00 -0.32198511558E+03  0.32198511558E+03  0.00000000000E+00 0.  1.
          6    2    1    2  501    0 -0.24948394400E+02  0.13206307123E+03 -0.23987028988E+03  0.32432450036E+03  0.17200450110E+03 0.  0.
         24    2    3    3    0    0 -0.71985280767E+02  0.64199055800E+02 -0.90490518095E+02  0.15357790599E+03  0.78065612985E+02 0.  0.
         -6    2    1    2    0  502  0.24948394400E+02 -0.13206307123E+03  0.26948740124E+03  0.34926284217E+03  0.17691239732E+03 0.  0.
        -24    2    5    5    0    0 -0.79475982651E+00 -0.99918837163E+02  0.28009195776E+03  0.30647840116E+03  0.74115449894E+02 0.  0.
          5    1    3    3  501    0  0.47036886367E+02  0.67864015427E+02 -0.14937977179E+03  0.17074659437E+03  0.47000000000E+01 0. -1.
        -11    1    4    4    0    0 -0.77526097796E+02  0.76848898073E+02 -0.86276774396E+02  0.13913924958E+03  0.00000000000E+00 0.  1.
         12    1    4    4    0    0  0.55408170292E+01 -0.12649842273E+02 -0.42137436987E+01  0.14438656407E+02  0.00000000000E+00 0. -1.
         -5    1    5    5    0  502  0.25743154226E+02 -0.32144234064E+02 -0.10604556520E+02  0.42784441005E+02  0.47000000000E+01 0.  1.
         11    1    6    6    0    0  0.38420031896E+01 -0.54781051691E+02  0.23911166082E+03  0.24533672973E+03  0.00000000000E+00 0. -1.
        -12    1    6    6    0    0 -0.46367630161E+01 -0.45137785472E+02  0.40980296944E+02  0.61141671438E+02  0.00000000000E+00 0.  1.
</event>
<event>
12    1  0.8462562E-002  0.2220991E+03  0.7818608E-02  0.1132555E+00
         21   -1    0    0  503  502  0.00000000000E+00  0.00000000000E+00  0.12636415412E+03  0.12636415412E+03  0.00000000000E+00 0. -1.
         21   -1    0    0  501  503 -0.00000000000E+00 -0.00000000000E+00 -0.48366859289E+03  0.48366859289E+03  0.00000000000E+00 0. -1.
          6    2    1    2  501    0  0.13906852973E+03 -0.46515409691E+01 -0.31376305639E+03  0.38370587315E+03  0.17152623340E+03 0.  0.
         24    2    3    3    0    0  0.53376607902E+02 -0.31556136864E+02 -0.27045118344E+03  0.28388117137E+03  0.59998539934E+02 0.  0.
         -6    2    1    2    0  502 -0.13906852973E+03  0.46515409691E+01 -0.43541382384E+02  0.22632687385E+03  0.17310779605E+03 0.  0.
        -24    2    5    5    0    0 -0.13414166713E+03 -0.47146895383E+02 -0.57364350597E+02  0.17228507120E+03  0.78579007600E+02 0.  0.
          5    1    3    3  501    0  0.85691921824E+02  0.26904595895E+02 -0.43311872951E+02  0.99824701776E+02  0.47000000000E+01 0. -1.
        -13    1    4    4    0    0  0.18611966327E+02  0.79610643166E+01 -0.21917569844E+02  0.29835611330E+02  0.00000000000E+00 0.  1.
         14    1    4    4    0    0  0.34764641575E+02 -0.39517201181E+02 -0.24853361359E+03  0.25404556004E+03  0.00000000000E+00 0. -1.
         -5    1    5    5    0  502 -0.49268625981E+01  0.51798436352E+02  0.13822968212E+02  0.54041802651E+02  0.47000000000E+01 0.  1.
         11    1    6    6    0    0 -0.89793076916E+02 -0.97140079479E+01  0.51918122629E+00  0.90318481838E+02  0.00000000000E+00 0. -1.
        -12    1    6    6    0    0 -0.44348590212E+02 -0.37432887435E+02 -0.57883531823E+02  0.81966589363E+02  0.00000000000E+00 0.  1.
</event>
<event>
12    1  0.8462562E-002  0.1935716E+03  0.7818608E-02  0.1155398E+00
         21   -1    0    0  501  502  0.00000000000E+00  0.00000000000E+00  0.40608441867E+03  0.40608441867E+03  0.00000000000E+00 0.  1.
         21   -1    0    0  502  503 -0.00000000000E+00 -0.00000000000E+00 -0.18602339762E+03  0.18602339762E+03  0.00000000000E+00 0. -1.
         -6    2    1    2    0  503 -0.46381244815E+02  0.74690189474E+02 -0.10035534891E+03  0.21803934973E+03  0.17245323337E+03 0.  0.
        -24    2    3    3    0    0 -0.52046573065E+02  0.95892825267E+02 -0.12583307548E+03  0.18408567158E+03  0.78417420831E+02 0.  0.
          6    2    1    2  501    0  0.46381244815E+02 -0.74690189474E+02  0.32041636997E+03  0.37406846657E+03  0.17184505598E+03 0.  0.
         24    2    5    5    0    0 -0.43600114260E+02 -0.34134642039E+02  0.14149192316E+03  0.16967315088E+03  0.75517349404E+02 0.  0.
          5    1    5    5  501    0  0.89981359075E+02 -0.40555547435E+02  0.17892444681E+03  0.20439531569E+03  0.47000000000E+01 0. -1.
        -13    1    6    6    0    0 -0.34584540631E+02 -0.50043575331E+02  0.57473398847E+02  0.83687761695E+02  0.00000000000E+00 0.  1.
         14    1    6    6    0    0 -0.90155736293E+01  0.15908933292E+02  0.84018524311E+02  0.85985389187E+02  0.00000000000E+00 0. -1.
         -5    1    3    3    0  503  0.56653282503E+01 -0.21202635793E+02  0.25477726569E+02  0.33953678149E+02  0.47000000000E+01 0.  1.
         13    1    4    4    0    0 -0.11318302994E+02 -0.67385370007E+01 -0.45952718848E+02  0.47803391439E+02  0.00000000000E+00 0. -1.
        -14    1    4    4    0    0 -0.40728270072E+02  0.10263136227E+03 -0.79880356632E+02  0.13628228014E+03  0.00000000000E+00 0.  1.
</event>
<event>
12    1  0.8462562E-002  0.1895606E+03  0.7818608E-02  0.1159025E+00
         21   -1    0    0  503  502  0.00000000000E+00  0.00000000000E+00  0.11398204976E+04  0.11398204976E+04  0.00000000000E+00 0. -1.
         21   -1    0    0  501  503 -0.00000000000E+00 -0.00000000000E+00 -0.38117718676E+03  0.38117718676E+03  0.00000000000E+00 0.  1.
          6    2    1    2  501    0 -0.54938671240E+02  0.51909336637E+02 -0.34923826674E+03  0.39701600810E+03  0.17303614334E+03 0.  0.
         24    2    3    3    0    0 -0.97343506896E+02  0.13769518565E+02 -0.20241452413E+03  0.23943391139E+03  0.81802202709E+02 0.  0.
         -6    2    1    2    0  502  0.54938671240E+02 -0.51909336637E+02  0.11078815776E+04  0.11239816763E+04  0.17384010412E+03 0.  0.
        -24    2    5    5    0    0 -0.20608924943E+02  0.12463322246E+02  0.67484017514E+03  0.67968647628E+03  0.77358786595E+02 0.  0.
          5    1    3    3  501    0  0.42404835656E+02  0.38139818072E+02 -0.14682374261E+03  0.15758209671E+03  0.47000000000E+01 0. -1.
        -11    1    4    4    0    0 -0.39656509702E+02  0.42520558223E+02 -0.13047300697E+03  0.14284201826E+03  0.00000000000E+00 0.  1.
         12    1    4    4    0    0 -0.57686997194E+02 -0.28751039658E+02 -0.71941517160E+02  0.96591893128E+02  0.00000000000E+00 0. -1.
         -5    1    5    5    0  502  0.75547596183E+02 -0.64372658883E+02  0.43304140246E+03  0.44429520000E+03  0.47000000000E+01 0.  1.
         13    1    6    6    0    0  0.78886805392E+01  0.35773573476E+02  0.48017226539E+03  0.48156763211E+03  0.00000000000E+00 0. -1.
        -14    1    6    6    0    0 -0.28497605482E+02 -0.23310251230E+02  0.19466790975E+03  0.19811884418E+03  0.00000000000E+00 0.  1.
</event>
<event>
12    1  0.8462562E-002  0.1892146E+03  0.7818608E-02  0.1159513E+00
         21   -1    0    0  503  502  0.00000000000E+00  0.00000000000E+00  0.11376100944E+03  0.11376100944E+03  0.00000000000E+00 0.  1.
         21   -1    0    0  501  503 -0.00000000000E+00 -0.00000000000E+00 -0.36454331849E+03  0.36454331849E+03  0.00000000000E+00 0.  1.
          6    2    1    2  501    0  0.52738093598E+02  0.53244962325E+02 -0.21641920824E+03  0.28747077679E+03  0.17374073008E+03 0.  0.
         24    2    3    3    0    0 -0.30075686104E+02  0.61717637804E+02 -0.12817699163E+03  0.16606778206E+03  0.80221900660E+02 0.  0.
         -6    2    1    2    0  502 -0.52738093598E+02 -0.53244962325E+02 -0.34363100811E+02  0.19083355114E+03  0.17210545899E+03 0.  0.
        -24    2    5    5    0    0  0.37971323160E+02 -0.19728182028E+02 -0.22743370580E+02  0.93321085365E+02  0.79753003202E+02 0.  0.
          5    1    3    3  501    0  0.82813779701E+02 -0.84726754783E+01 -0.88242216606E+02  0.12140299473E+03  0.47000000000E+01 0. -1.
        -13    1    4    4    0    0  0.78490764675E+01 -0.16211552269E+02 -0.14510194088E+02  0.23129378739E+02  0.00000000000E+00 0.  1.
         14    1    4    4    0    0 -0.37924762571E+02  0.77929190073E+02 -0.11366679754E+03  0.14293840332E+03  0.00000000000E+00 0. -1.
         -5    1    5    5    0  502 -0.90709416758E+02 -0.33516780297E+02 -0.11619730231E+02  0.97512465771E+02  0.47000000000E+01 0.  1.
         13    1    6    6    0    0  0.18399913482E+02 -0.50102332637E+02 -0.67248687629E+01  0.53796137516E+02  0.00000000000E+00 0. -1.
        -14    1    6    6    0    0  0.19571409678E+02  0.30374150609E+02 -0.16018501817E+02  0.39524947849E+02  0.00000000000E+00 0.  1.
</event>
<event>
12    1  0.8462562E-002  0.1977266E+03  0.7818608E-02  0.1151989E+00
         21   -1    0    0  501  502  0.00000000000E+00  0.00000000000E+00  0.85696859060E+02  0.85696859060E+02  0.00000000000E+00 0. -1.
         21   -1    0    0  502  503 -0.00000000000E+00 -0.00000000000E+00 -0.62209913477E+03  0.62209913477E+03  0.00000000000E+00 0.  1.
         -6    2    1    2    0  503  0.63126381069E+02  0.73376056497E+02 -0.45354397453E+03  0.49477058069E+03  0.17241463113E+03 0.  0.
        -24    2    3    3    0    0  0.19708444927E+02  0.91794972955E+02 -0.41707329624E+03  0.43496611566E+03  0.80191317952E+02 0.  0.
          6    2    1    2  501    0 -0.63126381069E+02 -0.73376056497E+02 -0.82858301186E+02  0.21302541315E+03  0.17072007181E+03 0.  0.
         24    2    5    5    0    0 -0.50457005772E+02 -0.76452771250E+02 -0.12135613256E+03  0.17210900733E+03  0.80642816361E+02 0.  0.
          5    1    5    5  501    0 -0.12669375297E+02  0.30767147530E+01  0.38497831378E+02  0.40916405816E+02  0.47000000000E+01 0. -1.
        -13    1    6    6    0    0 -0.25087843392E+02 -0.99302683871E+01 -0.90638492348E+02  0.94569267795E+02  0.00000000000E+00 0.  1.
         14    1    6    6    0    0 -0.25369162380E+02 -0.66522502862E+02 -0.30717640216E+02  0.77539739537E+02  0.00000000000E+00 0. -1.
         -5    1    3    3    0  503  0.43417936142E+02 -0.18418916458E+02 -0.36470678287E+02  0.59804465026E+02  0.47000000000E+01 0.  1.
         11    1    4    4    0    0  0.23947068362E+02  0.54719529662E+02 -0.10606498323E+03  0.12172702936E+03  0.00000000000E+00 0. -1.
        -12    1    4    4    0    0 -0.42386234350E+01  0.37075443293E+02 -0.31100831301E+03  0.31323908630E+03  0.00000000000E+00 0.  1.
</event>
<event>
12    1  0.8462562E-002  0.1766360E+03  0.7818608E-02  0.1171394E+00
         21   -1    0    0  501  502  0.00000000000E+00  0.00000000000E+00  0.71579584925E+03  0.71579584925E+03  0.00000000000E+00 0. -1.
         21   -1    0    0  502  503 -0.00000000000E+00 -0.00000000000E+00 -0.44513599376E+02  0.44513599376E+02  0.00000000000E+00 0. -1.
         -6    2    1    2    0  503  0.29953164696E+02  0.21329994039E+02  0.27386767819E+03  0.32588924359E+03  0.17276612286E+03 0.  0.
        -24    2    3    3    0    0  0.49167565912E+02  0.41366121293E+02  0.27896758330E+03  0.29727563421E+03  0.80132918522E+02 0.  0.
          6    2    1    2  501    0 -0.29953164696E+02 -0.21329994039E+02  0.39741457169E+03  0.43442020504E+03  0.17155294237E+03 0.  0.
         24    2    5    5    0    0 -0.29453918427E+02  0.53553246365E+02  0.21725475083E+03  0.23926027065E+03  0.79437817476E+02 0.  0.
          5    1    5    5  501    0 -0.49924626947E+00 -0.74883240404E+02  0.18015982086E+03  0.19515993440E+03  0.47000000000E+01 0. -1.
        -13    1    6    6    0    0 -0.29914230391E+01  0.61534303328E+02  0.19263139420E+03  0.20224310403E+03  0.00000000000E+00 0.  1.
         14    1    6    6    0    0 -0.26462495388E+02 -0.79810569632E+01  0.24623356631E+02  0.37017166614E+02  0.00000000000E+00 0. -1.
         -5    1    3    3    0  503 -0.19214401215E+02 -0.20036127254E+02 -0.50999051180E+01  0.28613609377E+02  0.47000000000E+01 0.  1.
         11    1    4    4    0    0  0.77074326362E+01  0.56421680908E+02  0.13024502324E+03  0.14214983881E+03  0.00000000000E+00 0. -1.
        -12    1    4    4    0    0  0.41460133276E+02 -0.15055559615E+02  0.14872256007E+03  0.15512579540E+03  0.00000000000E+00 0.  1.
</event>
<event>
12    1  0.8462562E-002  0.2165438E+03  0.7818608E-02  0.1136617E+00
         21   -1    0    0  501  502  0.00000000000E+00  0.00000000000E+00  0.25637253789E+04  0.25637253789E+04  0.00000000000E+00 0.  1.
         21   -1    0    0  502  503 -0.00000000000E+00 -0.00000000000E+00 -0.51194905493E+02  0.51194905493E+02  0.00000000000E+00 0.  1.
         -6    2    1    2    0  503 -0.30480542756E+01 -0.13004324847E+03  0.20643855986E+03  0.29868386897E+03  0.17226327954E+03 0.  0.
        -24    2    3    3    0    0  0.54892301436E+02 -0.51803632763E+02  0.67639186915E+02  0.12907880355E+03  0.79934328013E+02 0.  0.
          6    2    1    2  501    0  0.30480542756E+01  0.13004324847E+03  0.23060919135E+04  0.23162364154E+04  0.17312042427E+03 0.  0.
         24    2    5    5    0    0 -0.34065249604E+02  0.11004218028E+03  0.10646499800E+04  0.10740699191E+04  0.82927008099E+02 0.  0.
          5    1    5    5  501    0  0.37113303880E+02  0.20001068189E+02  0.12414419335E+04  0.12421664963E+04  0.47000000000E+01 0. -1.
        -11    1    6    6    0    0 -0.77466559846E+01  0.38865681035E+02  0.72336793846E+03  0.72445270807E+03  0.00000000000E+00 0.  1.
         12    1    6    6    0    0 -0.26318593619E+02  0.71176499249E+02  0.34128204151E+03  0.34961721107E+03  0.00000000000E+00 0. -1.
         -5    1    3    3    0  503 -0.57940355711E+02 -0.78239615710E+02  0.13879937295E+03  0.16960506542E+03  0.47000000000E+01 0.  1.
         13    1    4    4    0    0  0.39042602089E+02 -0.30451847082E+01  0.67233796038E+02  0.77807334214E+02  0.00000000000E+00 0. -1.
        -14    1    4    4    0    0  0.15849699347E+02 -0.48758448055E+02  0.40539087709E+00  0.51271469336E+02  0.00000000000E+00 0.  1.
</event>
<event>
12    1  0.8462562E-002  0.1882811E+03  0.7818608E-02  0.1160307E+00
         21   -1    0    0  501  502  0.00000000000E+00  0.00000000000E+00  0.95341724075E+03  0.95341724075E+03  0.00000000000E+00 0.  1.
         21   -1    0    0  502  503 -0.00000000000E+00 -0.00000000000E+00 -0.42092726308E+02  0.42092726308E+02  0.00000000000E+00 0.  1.
         -6    2    1    2    0  503 -0.64163296573E+02  0.40428141470E+02  0.63121423741E+03  0.65869658162E+03  0.17233226593E+03 0.  0.
        -24    2    3    3    0    0  0.25598167138E+02 -0.27620690676E+01  0.36226716486E+03  0.37185667421E+03  0.79856071959E+02 0.  0.
          6    2    1    2  501    0  0.64163296573E+02 -0.40428141470E+02  0.28011027703E+03  0.33681338543E+03  0.17096820189E+03 0.  0.
         24    2    5    5    0    0 -0.25127929396E+02 -0.38813832020E+02  0.10867321343E+03  0.14345287807E+03  0.81430550280E+02 0.  0.
          5    1    5    5  501    0  0.89291225969E+02 -0.16143094499E+01  0.17143706360E+03  0.19336050736E+03  0.47000000000E+01 0. -1.
        -13    1    6    6    0    0  0.21528374326E+02 -0.23757918616E+02  0.81095706212E+02  0.87203343767E+02  0.00000000000E+00 0.  1.
         14    1    6    6    0    0 -0.46656303721E+02 -0.15055913404E+02  0.27577507215E+02  0.56249534305E+02  0.00000000000E+00 0. -1.
         -5    1    3    3    0  503 -0.89761463712E+02  0.43190210537E+02  0.26894707255E+03  0.28683990742E+03  0.47000000000E+01 0.  1.
         13    1    4    4    0    0 -0.18731699413E+02 -0.19434942044E+02  0.22573645054E+03  0.22734453729E+03  0.00000000000E+00 0. -1.
        -14    1    4    4    0    0  0.44329866552E+02  0.16672872976E+02  0.13653071432E+03  0.14451213691E+03  0.00000000000E+00 0.  1.
</event>
<event>
12    1  0.8462562E-002  0.2233649E+03  0.7818608E-02  0.1131399E+00
         21   -1    0    0  501  502  0.00000000000E+00  0.00000000000E+00  0.23437706674E+03  0.23437706674E+03  0.00000000000E+00 0. -1.
         21   -1    0    0  502  503 -0.00000000000E+00 -0.00000000000E+00 -0.27490758093E+03  0.27490758093E+03  0.00000000000E+00 0.  1.
         -6    2    1    2    0  503 -0.11789730261E+03 -0.79590182185E+02 -0.14123396111E+03  0.26426818253E+03  0.17220995751E+03 0.  0.
        -24    2    3    3    0    0 -0.47820859211E+02  0.25308313761E+02 -0.49558399827E+02  0.10825247529E+03  0.79594083268E+02 0.  0.
          6    2    1    2  501    0  0.11789730261E+03  0.79590182185E+02  0.10070344693E+03  0.24501646514E+03  0.17221356771E+03 0.  0.
         24    2    5    5    0    0  0.52780363591E+02 -0.16023537439E+02  0.11308085575E+02  0.98743365225E+02  0.81116329082E+02 0.  0.
          5    1    5    5  501    0  0.65116939017E+02  0.95613719623E+02  0.89395361352E+02  0.14627309991E+03  0.47000000000E+01 0. -1.
        -13    1    6    6    0    0  0.18305593896E+02 -0.38017937283E+02  0.31958207871E+02  0.52931893727E+02  0.00000000000E+00 0.  1.
         14    1    6    6    0    0  0.34474769695E+02  0.21994399845E+02 -0.20650122296E+02  0.45811471498E+02  0.00000000000E+00 0. -1.
         -5    1    3    3    0  503 -0.70076443398E+02 -0.10489849595E+03 -0.91675561284E+02  0.15601570725E+03  0.47000000000E+01 0.  1.
         13    1    4    4    0    0  0.20586499238E+02  0.99081378552E+01 -0.25218758872E+02  0.34028825218E+02  0.00000000000E+00 0. -1.
        -14    1    4    4    0    0 -0.68407358449E+02  0.15400175906E+02 -0.24339640955E+02  0.74223650070E+02  0.00000000000E+00 0.  1.
</event>
<event>
12    1  0.8462562E-002  0.1804471E+03  0.7818608E-02  0.1170263E+00
         21   -1    0    0  501  502  0.00000000000E+00  0.00000000000E+00  0.16858935523E+03  0.16858935523E+03  0.00000000000E+00 0. -1.
         21   -1    0    0  502  503 -0.00000000000E+00 -0.00000000000E+00 -0.19612200879E+03  0.19612200879E+03  0.00000000000E+00 0. -1.
         -6    2    1    2    0  503 -0.55171245314E+02 -0.14812951603E+02  0.36505460947E+02  0.18410274161E+03  0.17116623775E+03 0.  0.
        -24    2    3    3    0    0  0.52215951205E+01 -0.53241680722E+01  0.75792819150E+02  0.11128159974E+03  0.81138345956E+02 0.  0.
          6    2    1    2  501    0  0.55171245314E+02  0.14812951603E+02 -0.64038114507E+02  0.18060862242E+03  0.15891917612E+03 0.  0.
         24    2    5    5    0    0  0.33840655369E+02  0.65675751022E+02 -0.60593913406E+02  0.12514718579E+03  0.80818942957E+02 0.  0.
          5    1    5    5  501    0  0.21330589945E+02 -0.50862799419E+02 -0.34442011012E+01  0.55461436632E+02  0.47000000000E+01 0. -1.
        -11    1    6    6    0    0  0.60067211747E+02  0.36993482511E+02 -0.36632410007E+02  0.79489125912E+02  0.00000000000E+00 0.  1.
         12    1    6    6    0    0 -0.26226556379E+02  0.28682268511E+02 -0.23961503399E+02  0.45658059875E+02  0.00000000000E+00 0. -1.
         -5    1    3    3    0  503 -0.60392840434E+02 -0.94887835309E+01 -0.39287358203E+02  0.72821141870E+02  0.47000000000E+01 0.  1.
         11    1    4    4    0    0  0.34753087985E+02 -0.19728213024E+02  0.65718319804E+02  0.76914738974E+02  0.00000000000E+00 0. -1.
        -12    1    4    4    0    0 -0.29531492864E+02  0.14404044951E+02  0.10074499346E+02  0.34366860765E+02  0.00000000000E+00 0.  1.
</event>
<event>
12    1  0.8462562E-002  0.2127226E+03  0.7818608E-02  0.1139522E+00
         21   -1    0    0  503  502  0.00000000000E+00  0.00000000000E+00  0.12158428269E+03  0.12158428269E+03  0.00000000000E+00 0.  1.
         21   -1    0    0  501  503 -0.00000000000E+00 -0.00000000000E+00 -0.58097613623E+03  0.58097613623E+03  0.00000000000E+00 0.  1.
          6    2    1    2  501    0 -0.11538450703E+03  0.48440459566E+02 -0.44087875357E+03  0.48951503130E+03  0.17201984752E+03 0.  0.
         24    2    3    3    0    0 -0.11441047772E+03  0.86982372877E+02 -0.40235093762E+03  0.43480753258E+03  0.80719407729E+02 0.  0.
         -6    2    1    2    0  502  0.11538450703E+03 -0.48440459566E+02 -0.18513099972E+02  0.21304538762E+03  0.17142210980E+03 0.  0.
        -24    2    5    5    0    0  0.10670685683E+03 -0.50979915136E+02  0.45042009811E+02  0.14867852948E+03  0.78046251914E+02 0.  0.
          5    1    3    3  501    0 -0.97402931287E+00 -0.38541913311E+02 -0.38527815947E+02  0.54707498722E+02  0.47000000000E+01 0. -1.
        -13    1    4    4    0    0 -0.12298717979E+03  0.66058243042E+02 -0.36887963875E+03  0.39441314095E+03  0.00000000000E+00 0.  1.
         14    1    4    4    0    0  0.85767020686E+01  0.20924129835E+02 -0.33471298865E+02  0.40394391634E+02  0.00000000000E+00 0. -1.
         -5    1    5    5    0  502  0.86776502006E+01  0.25394555691E+01 -0.63555109783E+02  0.64366858142E+02  0.47000000000E+01 0.  1.
         11    1    6    6    0    0 -0.11204767737E+02 -0.14308875587E+02  0.68970034869E+01  0.19438605858E+02  0.00000000000E+00 0. -1.
        -12    1    6    6    0    0  0.11791162457E+03 -0.36671039549E+02  0.38145006324E+02  0.12923992362E+03  0.00000000000E+00 0.  1.
</event>
<event>
12    1  0.8462562E-002  0.1813618E+03  0.7818608E-02  0.1166602E+00
         21   -1    0    0  501  502  0.00000000000E+00  0.00000000000E+00  0.93298707608E+03  0.93298707608E+03  0.00000000000E+00 0. -1.
         21   -1    0    0  502  503 -0.00000000000E+00 -0.00000000000E+00 -0.35394600297E+02  0.35394600297E+02  0.00000000000E+00 0. -1.
         -6    2    1    2    0  503 -0.48506403188E+02 -0.25084329524E+02  0.41036285441E+03  0.44865328354E+03  0.17294508323E+03 0.  0.
        -24    2    3    3    0    0  0.48717605669E+01  0.36181903388E+02  0.13495805066E+03  0.16147272084E+03  0.80789231682E+02 0.  0.
          6    2    1    2  501    0  0.48506403188E+02  0.25084329524E+02  0.48722962137E+03  0.51972839283E+03  0.17246102063E+03 0.  0.
         24    2    5    5    0    0  0.67546976466E+01  0.22976680783E+02  0.99249761453E+02  0.12947448984E+03  0.79621445421E+02 0.  0.
          5    1    5    5  501    0  0.41751705541E+02  0.21076487414E+01  0.38797985992E+03  0.39025390299E+03  0.47000000000E+01 0. -1.
        -13    1    6    6    0    0  0.17864639163E+02 -0.26054897600E+02  0.27621220344E+02  0.41963494071E+02  0.00000000000E+00 0.  1.
         14    1    6    6    0    0 -0.11109941516E+02  0.49031578382E+02  0.71628541109E+02  0.87510995769E+02  0.00000000000E+00 0. -1.
         -5    1    3    3    0  503 -0.53378163755E+02 -0.61266232912E+02  0.27540480375E+03  0.28718056270E+03  0.47000000000E+01 0.  1.
         11    1    4    4    0    0 -0.37680679343E+02  0.13079570412E+02  0.53877894412E+02  0.67035335937E+02  0.00000000000E+00 0. -1.
        -12    1    4    4    0    0  0.42552439910E+02  0.23102332977E+02  0.81080156246E+02  0.94437384907E+02  0.00000000000E+00 0.  1.
</event>
<event>
12    1  0.8462562E-002  0.2010535E+03  0.7818608E-02  0.1148983E+00
         21   -1    0    0  501  502  0.00000000000E+00  0.00000000000E+00  0.54811454301E+02  0.54811454301E+02  0.00000000000E+00 0. -1.
         21   -1    0    0  502  503 -0.00000000000E+00 -0.00000000000E+00 -0.79167890693E+03  0.79167890693E+03  0.00000000000E+00 0. -1.
         -6    2    1    2    0  503  0.30424063864E+01 -0.10454096639E+03 -0.48093516757E+03  0.52103092820E+03  0.17098690839E+03 0.  0.
        -24    2    3    3    0    0 -0.79969477689E+01 -0.47552247843E+02 -0.44087989470E+03  0.45034785903E+03  0.78185325603E+02 0.  0.
          6    2    1    2  501    0 -0.30424063864E+01  0.10454096639E+03 -0.25593228506E+03  0.32545943303E+03  0.17171033203E+03 0.  0.
         24    2    5    5    0    0 -0.40966831686E+02  0.12031387169E+03 -0.15164201384E+03  0.21327388474E+03  0.79603646455E+02 0.  0.
          5    1    5    5  501    0  0.37924425300E+02 -0.15772905307E+02 -0.10429027122E+03  0.11218554830E+03  0.47000000000E+01 0. -1.
        -13    1    6    6    0    0 -0.24676647803E+02  0.78209979114E+02 -0.14642591039E+03  0.16782814130E+03  0.00000000000E+00 0.  1.
         14    1    6    6    0    0 -0.16290183883E+02  0.42103892578E+02 -0.52161034540E+01  0.45445743436E+02  0.00000000000E+00 0. -1.
         -5    1    3    3    0  503  0.11039354155E+02 -0.56988718542E+02 -0.40055272871E+02  0.70683069161E+02  0.47000000000E+01 0.  1.
         13    1    4    4    0    0 -0.36142570091E+02 -0.23506243011E+01 -0.13047031986E+03  0.13540426571E+03  0.00000000000E+00 0. -1.
        -14    1    4    4    0    0  0.28145622322E+02 -0.45201623542E+02 -0.31040957484E+03  0.31494359333E+03  0.00000000000E+00 0.  1.
</event>
<event>
12    1  0.8462562E-002  0.1896995E+03  0.7818608E-02  0.1159161E+00
         21   -1    0    0  501  502  0.00000000000E+00  0.00000000000E+00  0.73280445259E+03  0.73280445259E+03  0.00000000000E+00 0.  1.
         21   -1    0    0  502  503 -0.00000000000E+00 -0.00000000000E+00 -0.50786616563E+02  0.50786616563E+02  0.00000000000E+00 0.  1.
         -6    2    1    2    0  503  0.73471782994E+02  0.19742891519E+02  0.25846953903E+03  0.31950155328E+03  0.17171737035E+03 0.  0.
        -24    2    3    3    0    0 -0.20479341563E+02 -0.22316427188E+02  0.11788409580E+03  0.14519677152E+03  0.79170803105E+02 0.  0.
          6    2    1    2  501    0 -0.73471782994E+02 -0.19742891519E+02  0.42354829699E+03  0.46408951587E+03  0.17377581590E+03 0.  0.
         24    2    5    5    0    0 -0.10194866384E+02 -0.69990628118E+02  0.26396451634E+03  0.28515411899E+03  0.81443123497E+02 0.  0.
          5    1    5    5  501    0 -0.63276916610E+02  0.50247736599E+02  0.15958378065E+03  0.17893539688E+03  0.47000000000E+01 0. -1.
        -13    1    6    6    0    0  0.30462207339E+02 -0.48391949987E+02  0.10384486613E+03  0.11854738766E+03  0.00000000000E+00 0.  1.
         14    1    6    6    0    0 -0.40657073723E+02 -0.21598678132E+02  0.16011965021E+03  0.16660673133E+03  0.00000000000E+00 0. -1.
         -5    1    3    3    0  503  0.93951124557E+02  0.42059318708E+02  0.14058544323E+03  0.17430478176E+03  0.47000000000E+01 0.  1.
         13    1    4    4    0    0  0.12648567467E+02 -0.10986034739E+02  0.10732856982E+03  0.10862827034E+03  0.00000000000E+00 0. -1.
        -14    1    4    4    0    0 -0.33127909029E+02 -0.11330392450E+02  0.10555525981E+02  0.36568501179E+02  0.00000000000E+00 0.  1.
</event>
<event>
12    1  0.8462562E-002  0.2104051E+03  0.7818608E-02  0.1141346E+00
         21   -1    0    0  501  502  0.00000000000E+00  0.00000000000E+00  0.35776438601E+02  0.35776438601E+02  0.00000000000E+00 0.  1.
         21   -1    0    0  502  503 -0.00000000000E+00 -0.00000000000E+00 -0.13726630336E+04  0.13726630336E+04  0.00000000000E+00 0.  1.
         -6    2    1    2    0  503  0.53357992810E+02  0.10800949787E+03 -0.89118591344E+03  0.91557092998E+03  0.17188562616E+03 0.  0.
        -24    2    3    3    0    0  0.78264182831E+02  0.44364085208E+02 -0.33859437511E+03  0.35874909574E+03  0.77209510197E+02 0.  0.
          6    2    1    2  501    0 -0.53357992810E+02 -0.10800949787E+03 -0.44570068157E+03  0.49286854223E+03  0.17250268214E+03 0.  0.
         24    2    5    5    0    0 -0.24072139056E+02  0.77839624556E+01 -0.12322787927E+03  0.14895491223E+03  0.79764639384E+02 0.  0.
          5    1    5    5  501    0 -0.29285853754E+02 -0.11579346032E+03 -0.32247280229E+03  0.34391363000E+03  0.47000000000E+01 0. -1.
        -11    1    6    6    0    0 -0.17850462013E+02 -0.77640046385E+01 -0.12958753967E+03  0.13104140262E+03  0.00000000000E+00 0.  1.
         12    1    6    6    0    0 -0.62216770426E+01  0.15547967094E+02  0.63596604007E+01  0.17913509606E+02  0.00000000000E+00 0. -1.
         -5    1    3    3    0  503 -0.24906190020E+02  0.63645412661E+02 -0.55259153833E+03  0.55682183424E+03  0.47000000000E+01 0.  1.
         13    1    4    4    0    0  0.16217531704E+02  0.42278924129E+02 -0.72269932360E+02  0.85284575882E+02  0.00000000000E+00 0. -1.
        -14    1    4    4    0    0  0.62046651127E+02  0.20851610790E+01 -0.26632444275E+03  0.27346451986E+03  0.00000000000E+00 0.  1.
</event>
<event>
12    1  0.8462562E-002  0.2114528E+03  0.7818608E-02  0.1140673E+00
         21   -1    0    0  503  502  0.00000000000E+00  0.00000000000E+00  0.18043258049E+03  0.18043258049E+03  0.00000000000E+00 0.  1.
         21   -1    0    0  501  503 -0.00000000000E+00 -0.00000000000E+00 -0.54085248857E+03  0.54085248857E+03  0.00000000000E+00 0. -1.
          6    2    1    2  501    0  0.54923355562E+02 -0.10712415942E+03 -0.44610297205E+03  0.49313186584E+03  0.17227598475E+03 0.  0.
         24    2    3    3    0    0 -0.20120868407E+02 -0.10169386511E+03 -0.23714526578E+03  0.27099106217E+03  0.80323017548E+02 0.  0.
         -6    2    1    2    0  502 -0.54923355562E+02  0.10712415942E+03  0.85683063963E+02  0.22815320321E+03  0.17383939763E+03 0.  0.
        -24    2    5    5    0    0 -0.61079169807E+02  0.99040970557E+02  0.12491812479E+03  0.18735232100E+03  0.77178853655E+02 0.  0.
          5    1    3    3  501    0  0.75044223969E+02 -0.54302943130E+01 -0.20895770627E+03  0.22214080368E+03  0.47000000000E+01 0. -1.
        -11    1    4    4    0    0  0.53229386456E+01  0.12704916502E+02 -0.20909490734E+02  0.25039077098E+02  0.00000000000E+00 0.  1.
         12    1    4    4    0    0 -0.25443807053E+02 -0.11439878161E+03 -0.21623577504E+03  0.24595198507E+03  0.00000000000E+00 0. -1.
         -5    1    5    5    0  502  0.61558142451E+01  0.80831888622E+01 -0.39235060826E+02  0.40800882211E+02  0.47000000000E+01 0.  1.
         13    1    6    6    0    0 -0.45254167609E+02  0.62774209756E+02  0.27368122409E+02  0.82082612170E+02  0.00000000000E+00 0. -1.
        -14    1    6    6    0    0 -0.15825002198E+02  0.36266760801E+02  0.97550002380E+02  0.10526970883E+03  0.00000000000E+00 0.  1.
</event>
<event>
12    1  0.8462562E-002  0.2151731E+03  0.7818608E-02  0.1137650E+00
         21   -1    0    0  503  502  0.00000000000E+00  0.00000000000E+00  0.33712745172E+03  0.33712745172E+03  0.00000000000E+00 0. -1.
         21   -1    0    0  501  503 -0.00000000000E+00 -0.00000000000E+00 -0.16782059573E+03  0.16782059573E+03  0.00000000000E+00 0.  1.
          6    2    1    2  501    0 -0.60574606038E+02 -0.11436231551E+03 -0.23728829674E+02  0.21587672364E+03  0.17114812400E+03 0.  0.
         24    2    3    3    0    0 -0.13746038341E+02 -0.12493218798E+03  0.19788236255E+02  0.15091164084E+03  0.81152596288E+02 0.  0.
         -6    2    1    2    0  502  0.60574606038E+02  0.11436231551E+03  0.19303568567E+03  0.28907132380E+03  0.17190530009E+03 0.  0.
        -24    2    5    5    0    0  0.43868441411E+02  0.11386654791E+03  0.64489634056E+02  0.15935810510E+03  0.79662173426E+02 0.  0.
          5    1    3    3  501    0 -0.46828567696E+02  0.10569872468E+02 -0.43517065930E+02  0.64965082803E+02  0.47000000000E+01 0. -1.
        -13    1    4    4    0    0 -0.14710020168E+02 -0.13659924982E+03  0.14791148662E+02  0.13818291437E+03  0.00000000000E+00 0.  1.
         14    1    4    4    0    0  0.96398182705E+00  0.11667061846E+02  0.49970875937E+01  0.12728726468E+02  0.00000000000E+00 0. -1.
         -5    1    5    5    0  502  0.16706164627E+02  0.49576759909E+00  0.12854605161E+03  0.12971321871E+03  0.47000000000E+01 0.  1.
         11    1    6    6    0    0  0.55060692960E+02  0.34520140428E+02  0.36134049271E+02  0.74357175317E+02  0.00000000000E+00 0. -1.
        -12    1    6    6    0    0 -0.11192251550E+02  0.79346407482E+02  0.28355584785E+02  0.85000929780E+02  0.00000000000E+00 0.  1.
</event>
<event>
12    1  0.8462562E-002  0.1850958E+03  0.7818608E-02  0.1163331E+00
         21   -1    0    0  501  502  0.00000000000E+00  0.00000000000E+00  0.98576685225E+03  0.98576685225E+03  0.00000000000E+00 0.  1.
         21   -1    0    0  502  503 -0.00000000000E+00 -0.00000000000E+00 -0.42558007890E+02  0.42558007890E+02  0.00000000000E+00 0.  1.
         -6    2    1    2    0  503 -0.57487349528E+02 -0.27479766716E+02  0.24894398087E+03  0.31021534404E+03  0.17378297136E+03 0.  0.
        -24    2    3    3    0    0 -0.26761336332E+02 -0.74077583094E+02  0.22088648866E+03  0.24756746102E+03  0.79341977822E+02 0.  0.
          6    2    1    2  501    0  0.57487349528E+02  0.27479766716E+02  0.69426486349E+03  0.71810951610E+03  0.17209777307E+03 0.  0.
         24    2    5    5    0    0 -0.26419232089E+02  0.97075261855E+01  0.22199399224E+03  0.23809073229E+03  0.81324364886E+02 0.  0.
          5    1    5    5  501    0  0.83906581617E+02  0.17772240531E+02  0.47227087125E+03  0.48001878380E+03  0.47000000000E+01 0. -1.
        -13    1    6    6    0    0  0.99991626010E+01  0.38280789579E+02  0.94206678871E+02  0.10217778842E+03  0.00000000000E+00 0.  1.
         14    1    6    6    0    0 -0.36418394690E+02 -0.28573263393E+02  0.12778731337E+03  0.13591294387E+03  0.00000000000E+00 0. -1.
         -5    1    3    3    0  503 -0.30726013196E+02  0.46597816378E+02  0.28057492207E+02  0.62647883021E+02  0.47000000000E+01 0.  1.
         11    1    4    4    0    0  0.23303258528E+01  0.12654672079E+02  0.69546542231E+02  0.70726887958E+02  0.00000000000E+00 0. -1.
        -12    1    4    4    0    0 -0.29091662185E+02 -0.86732255173E+02  0.15133994643E+03  0.17684057306E+03  0.00000000000E+00 0.  1.
</event>
<event>
12    1  0.8462562E-002  0.2047767E+03  0.7818608E-02  0.1146347E+00
         21   -1    0    0  503  502  0.00000000000E+00  0.00000000000E+00  0.34765822804E+03  0.34765822804E+03  0.00000000000E+00 0. -1.
         21   -1    0    0  501  503 -0.00000000000E+00 -0.00000000000E+00 -0.14542625446E+03  0.14542625446E+03  0.00000000000E+00 0. -1.
          6    2    1    2  501    0  0.17360211193E+02 -0.10424095320E+03 -0.45986780778E+01  0.20203054300E+03  0.17212681141E+03 0.  0.
         24    2    3    3    0    0  0.13518775230E+02 -0.95359666829E+02  0.59330012971E+02  0.13720306875E+03  0.77642825134E+02 0.  0.
         -6    2    1    2    0  502 -0.17360211193E+02  0.10424095320E+03  0.20683065165E+03  0.29105393950E+03  0.17540217781E+03 0.  0.
        -24    2    5    5    0    0  0.38645296579E+02  0.12666313872E+02  0.52365395402E+02  0.10289406902E+03  0.78683926886E+02 0.  0.
          5    1    3    3  501    0  0.38414359635E+01 -0.88812863744E+01 -0.63928691049E+02  0.64827474246E+02  0.47000000000E+01 0. -1.
        -13    1    4    4    0    0  0.35268480617E+02 -0.11558858515E+02  0.16667429311E+02  0.40685084921E+02  0.00000000000E+00 0.  1.
         14    1    4    4    0    0 -0.21749705387E+02 -0.83800808314E+02  0.42662583660E+02  0.96517983833E+02  0.00000000000E+00 0. -1.
         -5    1    5    5    0  502 -0.56005507772E+02  0.91574639332E+02  0.15446525625E+03  0.18815987048E+03  0.47000000000E+01 0.  1.
         13    1    6    6    0    0  0.20788377422E+02 -0.35000562227E+01  0.69958416289E+02  0.73065635145E+02  0.00000000000E+00 0. -1.
        -14    1    6    6    0    0  0.17856919157E+02  0.16166370095E+02 -0.17593020887E+02  0.29828433880E+02  0.00000000000E+00 0.  1.
</event>
<event>
12    1  0.8462562E-002  0.2373149E+03  0.7818608E-02  0.1121818E+00
         21   -1    0    0  501  502  0.00000000000E+00  0.00000000000E+00  0.53827048260E+03  0.53827048260E+03  0.00000000000E+00 0.  1.
         21   -1    0    0  502  503 -0.00000000000E+00 -0.00000000000E+00 -0.14214219345E+03  0.14214219345E+03  0.00000000000E+00 0.  1.
         -6    2    1    2    0  503 -0.14691505583E+03  0.66719075868E+02  0.22348808510E+02  0.23836492242E+03  0.17401982152E+03 0.  0.
        -24    2    3    3    0    0 -0.10214098353E+03  0.71160633585E+02  0.77834927817E+02  0.16677411001E+03  0.79112018632E+02 0.  0.
          6    2    1    2  501    0  0.14691505583E+03 -0.66719075868E+02  0.37377948064E+03  0.44204775364E+03  0.17221976552E+03 0.  0.
         24    2    5    5    0    0  0.75183339071E+01 -0.14593470788E+02  0.18181899173E+03  0.19910857588E+03  0.79476943202E+02 0.  0.
          5    1    5    5  501    0  0.13939672193E+03 -0.52125605080E+02  0.19196048891E+03  0.24293917776E+03  0.47000000000E+01 0. -1.
        -11    1    6    6    0    0  0.31052610531E+02  0.21240506264E+02  0.97734983125E+02  0.10472607437E+03  0.00000000000E+00 0.  1.
         12    1    6    6    0    0 -0.23534276624E+02 -0.35833977052E+02  0.84084008604E+02  0.94382501506E+02  0.00000000000E+00 0. -1.
         -5    1    3    3    0  503 -0.44774072299E+02 -0.44415577169E+01 -0.55486119307E+02  0.71590812406E+02  0.47000000000E+01 0.  1.
         13    1    4    4    0    0  0.65136551499E+01  0.64524683641E+01 -0.94083864977E+01  0.13136962659E+02  0.00000000000E+00 0. -1.
        -14    1    4    4    0    0 -0.10865463868E+03  0.64708165221E+02  0.87243314315E+02  0.15363714735E+03  0.00000000000E+00 0.  1.
</event>
<event>
12    1  0.8462562E-002  0.1792380E+03  0.7818608E-02  0.1168683E+00
         21   -1    0    0  501  502  0.00000000000E+00  0.00000000000E+00  0.35698371260E+03  0.35698371260E+03  0.00000000000E+00 0. -1.
         21   -1    0    0  502  503 -0.00000000000E+00 -0.00000000000E+00 -0.96758894667E+02  0.96758894667E+02  0.00000000000E+00 0. -1.
         -6    2    1    2    0  503 -0.47987271623E+02  0.59094276840E+01  0.69044833911E+02  0.19207670810E+03  0.17259366480E+03 0.  0.
        -24    2    3    3    0    0 -0.58383398197E+02 -0.11297895049E+02 -0.20650397044E+02  0.10003597875E+03  0.77746347361E+02 0.  0.
          6    2    1    2  501    0  0.47987271623E+02 -0.59094276840E+01  0.19117998402E+03  0.26166589917E+03  0.17199289789E+03 0.  0.
         24    2    5    5    0    0  0.46138200711E+02 -0.69352084872E+02  0.12812071399E+03  0.17207264412E+03  0.79092555011E+02 0.  0.
          5    1    5    5  501    0  0.18490709113E+01  0.63442657188E+02  0.63059270026E+02  0.89593255050E+02  0.47000000000E+01 0. -1.
        -11    1    6    6    0    0 -0.39394304661E+01 -0.34183245838E+02  0.98005251136E+02  0.10387031654E+03  0.00000000000E+00 0.  1.
         12    1    6    6    0    0  0.50077631177E+02 -0.35168839034E+02  0.30115462856E+02  0.68202327573E+02  0.00000000000E+00 0. -1.
         -5    1    3    3    0  503  0.10396126575E+02  0.17207322733E+02  0.89695230955E+02  0.92040729351E+02  0.47000000000E+01 0.  1.
         11    1    4    4    0    0 -0.70548805479E+02 -0.22108967427E+02 -0.24155668143E+00  0.73932393068E+02  0.00000000000E+00 0. -1.
        -12    1    4    4    0    0  0.12165407281E+02  0.10811072378E+02 -0.20408840363E+02  0.26103585678E+02  0.00000000000E+00 0.  1.
</event>
<event>
12    1  0.8462562E-002  0.1807543E+03  0.7818608E-02  0.1167088E+00
         21   -1    0    0  503  502  0.00000000000E+00  0.00000000000E+00  0.85556102254E+03  0.85556102254E+03  0.00000000000E+00 0.  1.
         21   -1    0    0  501  503 -0.00000000000E+00 -0.00000000000E+00 -0.80774185777E+02  0.80774185777E+02  0.00000000000E+00 0.  1.
          6    2    1    2  501    0  0.42692580016E+02  0.35284417502E+02  0.72734975913E+03  0.74945990856E+03  0.17200243000E+03 0.  0.
         24    2    3    3    0    0 -0.25907470478E+02 -0.12627578270E+02  0.24069182029E+03  0.25563851807E+03  0.81165551861E+02 0.  0.
         -6    2    1    2    0  502 -0.42692580016E+02 -0.35284417502E+02  0.47437077631E+02  0.18687529975E+03  0.17205945140E+03 0.  0.
        -24    2    5    5    0    0 -0.25265356325E+01 -0.84882724392E+02  0.19859154693E+02  0.11719076057E+03  0.78280444912E+02 0.  0.
          5    1    3    3  501    0  0.68600050494E+02  0.47911995772E+02  0.48665793884E+03  0.49382139049E+03  0.47000000000E+01 0. -1.
        -13    1    4    4    0    0 -0.13215707512E+02  0.33883757031E+02  0.12800030330E+03  0.13306705663E+03  0.00000000000E+00 0.  1.
         14    1    4    4    0    0 -0.12691762967E+02 -0.46511335301E+02  0.11269151699E+03  0.12257146144E+03  0.00000000000E+00 0. -1.
         -5    1    5    5    0  502 -0.40166044383E+02  0.49598306890E+02  0.27577922938E+02  0.69684539184E+02  0.47000000000E+01 0.  1.
         11    1    6    6    0    0  0.11413638380E+02  0.54308053594E+01  0.22458121423E+02  0.25770758735E+02  0.00000000000E+00 0. -1.
        -12    1    6    6    0    0 -0.13940174013E+02 -0.90313529751E+02 -0.25989667297E+01  0.91420001836E+02  0.00000000000E+00 0.  1.
</event>
<event>
12    1  0.8462562E-002  0.2277543E+03  0.7818608E-02  0.1128401E+00
         21   -1    0    0  503  502  0.00000000000E+00  0.00000000000E+00  0.60036794893E+03  0.60036794893E+03  0.00000000000E+00 0. -1.
         21   -1    0    0  501  503 -0.00000000000E+00 -0.00000000000E+00 -0.89500528211E+02  0.89500528211E+02  0.00000000000E+00 0. -1.
          6    2    1    2  501    0 -0.12240366359E+03  0.82134419200E+02  0.18810925055E+03  0.29539313335E+03  0.17361824043E+03 0.  0.
         24    2    3    3    0    0 -0.19103215384E+02  0.52491319765E+02  0.25374094828E+02  0.10031746379E+03  0.79369246973E+02 0.  0.
         -6    2    1    2    0  502  0.12240366359E+03 -0.82134419200E+02  0.32275817016E+03  0.39447534379E+03  0.17236368752E+03 0.  0.
        -24    2    5    5    0    0  0.30180420137E+02 -0.16472714224E+02  0.56773117080E+02  0.10536165578E+03  0.81827156935E+02 0.  0.
          5    1    3    3  501    0 -0.10330044820E+03  0.29643099435E+02  0.16273515573E+03  0.19507566955E+03  0.47000000000E+01 0. -1.
        -11    1    4    4    0    0  0.20215446478E+02 -0.48765181490E+01  0.22602573745E+02  0.30713531960E+02  0.00000000000E+00 0.  1.
         12    1    4    4    0    0 -0.39318661862E+02  0.57367837914E+02  0.27715210828E+01  0.69603931833E+02  0.00000000000E+00 0. -1.
         -5    1    5    5    0  502  0.92223243448E+02 -0.65661704976E+02  0.26598505308E+03  0.28911368801E+03  0.47000000000E+01 0.  1.
         11    1    6    6    0    0  0.43440484492E+02  0.55551213089E+01  0.64990879724E+02  0.78369314868E+02  0.00000000000E+00 0. -1.
        -12    1    6    6    0    0 -0.13260064354E+02 -0.22027835533E+02 -0.82177626444E+01  0.26992340911E+02  0.00000000000E+00 0.  1.
</event>
<event>
12    1  0.8462562E-002  0.2212878E+03  0.7818608E-02  0.1132993E+00
         21   -1    0    0  503  502  0.00000000000E+00  0.00000000000E+00  0.25499992725E+03  0.25499992725E+03  0.00000000000E+00 0. -1.
         21   -1    0    0  501  503 -0.00000000000E+00 -0.00000000000E+00 -0.41639763377E+03  0.41639763377E+03  0.00000000000E+00 0. -1.
          6    2    1    2  501    0 -0.22795846548E+02 -0.13735666750E+03 -0.32725751950E+03  0.39485140690E+03  0.17153321759E+03 0.  0.
         24    2    3    3    0    0 -0.37520800265E+02 -0.16606025792E+03 -0.26792311800E+03  0.32715073063E+03  0.79126377938E+02 0.  0.
         -6    2    1    2    0  502  0.22795846548E+02  0.13735666750E+03  0.16585981297E+03  0.27654615413E+03  0.17199358441E+03 0.  0.
        -24    2    5    5    0    0 -0.21563174311E+02  0.65440230312E+01  0.50984048109E+02  0.96829148709E+02  0.79175224372E+02 0.  0.
          5    1    3    3  501    0  0.14724953717E+02  0.28703590421E+02 -0.59334401501E+02  0.67700676263E+02  0.47000000000E+01 0. -1.
        -11    1    4    4    0    0 -0.45840084604E+02 -0.13956089406E+03 -0.16670762846E+03  0.22219358653E+03  0.00000000000E+00 0.  1.
         12    1    4    4    0    0  0.83192843386E+01 -0.26499363856E+02 -0.10121548954E+03  0.10495714411E+03  0.00000000000E+00 0. -1.
         -5    1    5    5    0  502  0.44359020859E+02  0.13081264446E+03  0.11487576487E+03  0.17971700542E+03  0.47000000000E+01 0.  1.
         11    1    6    6    0    0 -0.48144183397E+02  0.20125984667E+02  0.36278033989E+02  0.63553232836E+02  0.00000000000E+00 0. -1.
        -12    1    6    6    0    0  0.26581009086E+02 -0.13581961636E+02  0.14706014120E+02  0.33275915873E+02  0.00000000000E+00 0.  1.
</event>
<event>
12    1  0.8462562E-002  0.1851385E+03  0.7818608E-02  0.1163080E+00
         21   -1    0    0  501  502  0.00000000000E+00  0.00000000000E+00  0.47386252220E+03  0.47386252220E+03  0.00000000000E+00 0.  1.
         21   -1    0    0  502  503 -0.00000000000E+00 -0.00000000000E+00 -0.25909706174E+03  0.25909706174E+03  0.00000000000E+00 0.  1.
         -6    2    1    2    0  503 -0.47590963642E+02  0.47726350707E+02 -0.20392988321E+03  0.27543356745E+03  0.17243418582E+03 0.  0.
        -24    2    3    3    0    0 -0.85859558166E+02  0.66508353979E+02 -0.17880875099E+03  0.22573034565E+03  0.84772605463E+02 0.  0.
          6    2    1    2  501    0  0.47590963642E+02 -0.47726350707E+02  0.41869534367E+03  0.45752601649E+03  0.17170195276E+03 0.  0.
         24    2    5    5    0    0  0.55067602048E+02 -0.76131875236E+02  0.19328145219E+03  0.23015784278E+03  0.82379667443E+02 0.  0.
          5    1    5    5  501    0 -0.74766384066E+01  0.28405524529E+02  0.22541389148E+03  0.22736817371E+03  0.47000000000E+01 0. -1.
        -13    1    6    6    0    0  0.20029483024E+02 -0.43335180413E+02  0.17045336760E+03  0.17701262265E+03  0.00000000000E+00 0.  1.
         14    1    6    6    0    0  0.35038119024E+02 -0.32796694823E+02  0.22828084591E+02  0.53145220125E+02  0.00000000000E+00 0. -1.
         -5    1    3    3    0  503  0.38268594524E+02 -0.18782003272E+02 -0.25121132214E+02  0.49703221802E+02  0.47000000000E+01 0.  1.
         11    1    4    4    0    0  0.98914060751E+01  0.25722217266E+02 -0.69669721803E+02  0.74922243101E+02  0.00000000000E+00 0. -1.
        -12    1    4    4    0    0 -0.95750964241E+02  0.40786136713E+02 -0.10913902919E+03  0.15080810255E+03  0.00000000000E+00 0.  1.
</event>
<event>
12    1  0.8462562E-002  0.2140082E+03  0.7818608E-02  0.1138505E+00
         21   -1    0    0  503  502  0.00000000000E+00  0.00000000000E+00  0.97312317200E+03  0.97312317200E+03  0.00000000000E+00 0.  1.
         21   -1    0    0  501  503 -0.00000000000E+00 -0.00000000000E+00 -0.57814773240E+02  0.57814773240E+02  0.00000000000E+00 0.  1.
          6    2    1    2  501    0 -0.11239395075E+03  0.30514561416E+02  0.23483800205E+03  0.31772377534E+03  0.17954378739E+03 0.  0.
         24    2    3    3    0    0  0.18135704509E+02 -0.46280260059E+01  0.89038275970E+02  0.11884531377E+03  0.76459607733E+02 0.  0.
         -6    2    1    2    0  502  0.11239395075E+03 -0.30514561416E+02  0.68047039671E+03  0.71321416990E+03  0.17908364725E+03 0.  0.
        -24    2    5    5    0    0  0.80686798666E+02  0.41104783781E+02  0.27879378195E+03  0.30394547216E+03  0.80354928060E+02 0.  0.
          5    1    3    3  501    0 -0.13052965526E+03  0.35142587422E+02  0.14579972608E+03  0.19887846157E+03  0.47000000000E+01 0. -1.
        -11    1    4    4    0    0 -0.27020588569E+02 -0.13493836242E+02  0.21315044855E+02  0.36966565438E+02  0.00000000000E+00 0.  1.
         12    1    4    4    0    0  0.45156293078E+02  0.88658102360E+01  0.67723231116E+02  0.81878748332E+02  0.00000000000E+00 0. -1.
         -5    1    5    5    0  502  0.31707152087E+02 -0.71619345197E+02  0.40167661477E+03  0.40926869774E+03  0.47000000000E+01 0.  1.
         11    1    6    6    0    0  0.80295154873E+02  0.33135450199E+02  0.28220274907E+03  0.29526879541E+03  0.00000000000E+00 0. -1.
        -12    1    6    6    0    0  0.39164379381E+00  0.79693335825E+01 -0.34089671245E+01  0.86766767524E+01  0.00000000000E+00 0.  1.
</event>
<event>
12    1  0.8462562E-002  0.2231017E+03  0.7818608E-02  0.1133703E+00
         21   -1    0    0  503  502  0.00000000000E+00  0.00000000000E+00  0.35384895865E+03  0.35384895865E+03  0.00000000000E+00 0. -1.
         21   -1    0    0  501  503 -0.00000000000E+00 -0.00000000000E+00 -0.15810244277E+03  0.15810244277E+03  0.00000000000E+00 0. -1.
          6    2    1    2  501    0 -0.47496020508E+01 -0.14219354218E+03  0.20058807066E+03  0.30001654611E+03  0.17185107415E+03 0.  0.
         24    2    3    3    0    0 -0.32113937627E+02 -0.47524699271E+02  0.16759615376E+03  0.19598985116E+03  0.83866852649E+02 0.  0.
         -6    2    1    2    0  502  0.47496020508E+01  0.14219354218E+03 -0.48415547822E+01  0.21193485532E+03  0.15700757972E+03 0.  0.
        -24    2    5    5    0    0 -0.43521770270E+02  0.48703059375E+02  0.14748161906E+02  0.10480669487E+03  0.80627554412E+02 0.  0.
          5    1    3    3  501    0  0.27364335576E+02 -0.94668842913E+02  0.32991916905E+02  0.10402669494E+03  0.47000000000E+01 0. -1.
        -13    1    4    4    0    0 -0.55079957940E+02 -0.54582568352E+02  0.13010465037E+03  0.15146048522E+03  0.00000000000E+00 0.  1.
         14    1    4    4    0    0  0.22966020314E+02  0.70578690817E+01  0.37491503388E+02  0.44529365943E+02  0.00000000000E+00 0. -1.
         -5    1    5    5    0  502  0.48271372321E+02  0.93490482808E+02 -0.19589716688E+02  0.10712816045E+03  0.47000000000E+01 0.  1.
         11    1    6    6    0    0 -0.21072432939E+02  0.34329681502E+02 -0.31696095360E+02  0.51256384218E+02  0.00000000000E+00 0. -1.
        -12    1    6    6    0    0 -0.22449337331E+02  0.14373377873E+02  0.46444257266E+02  0.53550310654E+02  0.00000000000E+00 0.  1.
</event>
<event>
12    1  0.8462562E-002  0.1907915E+03  0.7818608E-02  0.1157900E+00
         21   -1    0    0  501  502  0.00000000000E+00  0.00000000000E+00  0.11425150951E+04  0.11425150951E+04  0.00000000000E+00 0. -1.
         21   -1    0    0  502  503 -0.00000000000E+00 -0.00000000000E+00 -0.34787374024E+02  0.34787374024E+02  0.00000000000E+00 0. -1.
         -6    2    1    2    0  503  0.24192950184E+02  0.77656516426E+02  0.38078887312E+03  0.42591261818E+03  0.17258493286E+03 0.  0.
        -24    2    3    3    0    0 -0.26157287974E+02  0.57003987483E+02  0.12858767995E+03  0.16786377538E+03  0.87805451687E+02 0.  0.
          6    2    1    2  501    0 -0.24192950184E+02 -0.77656516426E+02  0.72693884794E+03  0.75138985093E+03  0.17184523867E+03 0.  0.
         24    2    5    5    0    0 -0.58141640716E+02 -0.25275486102E+02  0.61241817729E+03  0.62087793602E+03  0.80087995250E+02 0.  0.
          5    1    5    5  501    0  0.33948690531E+02 -0.52381030324E+02  0.11452067066E+03  0.13051191492E+03  0.47000000000E+01 0. -1.
        -11    1    6    6    0    0 -0.64099506083E+01 -0.15181059605E+02  0.19112493885E+02  0.25235678315E+02  0.00000000000E+00 0.  1.
         12    1    6    6    0    0 -0.51731690107E+02 -0.10094426497E+02  0.59330568340E+03  0.59564225770E+03  0.00000000000E+00 0. -1.
         -5    1    3    3    0  503  0.50350238159E+02  0.20652528943E+02  0.25220119317E+03  0.25804884280E+03  0.47000000000E+01 0.  1.
         13    1    4    4    0    0  0.30201856572E+02  0.13434550821E+02  0.62449971306E+02  0.70658603243E+02  0.00000000000E+00 0. -1.
        -14    1    4    4    0    0 -0.56359144546E+02  0.43569436663E+02  0.66137708646E+02  0.97205172136E+02  0.00000000000E+00 0.  1.
</event>
<event>
12    1  0.8462562E-002  0.2107265E+03  0.7818608E-02  0.1141102E+00
         21   -1    0    0  503  502  0.00000000000E+00  0.00000000000E+00  0.35318548982E+03  0.35318548982E+03  0.00000000000E+00 0. -1.
         21   -1    0    0  501  503 -0.00000000000E+00 -0.00000000000E+00 -0.13227872290E+03  0.13227872290E+03  0.00000000000E+00 0.  1.
          6    2    1    2  501    0  0.78271960672E+02 -0.93552447061E+02  0.54942271070E+02  0.21722946451E+03  0.17114738362E+03 0.  0.
         24    2    3    3    0    0 -0.87722205022E+01 -0.13016135942E+02  0.54420266987E+02  0.98548592529E+02  0.80646686126E+02 0.  0.
         -6    2    1    2    0  502 -0.78271960672E+02  0.93552447061E+02  0.16596449585E+03  0.26823474822E+03  0.17183453114E+03 0.  0.
        -24    2    5    5    0    0 -0.68174450655E+02  0.12878348281E+03  0.16112019815E+03  0.23096890851E+03  0.78447289826E+02 0.  0.
          5    1    3    3  501    0  0.87044181175E+02 -0.80536311120E+02  0.52200408301E+00  0.11868087198E+03  0.47000000000E+01 0. -1.
        -11    1    4    4    0    0  0.28363890890E+02 -0.23791643039E+02  0.75437673102E+01  0.37781754990E+02  0.00000000000E+00 0.  1.
         12    1    4    4    0    0 -0.37136111392E+02  0.10775507098E+02  0.46876499676E+02  0.60766837539E+02  0.00000000000E+00 0. -1.
         -5    1    5    5    0  502 -0.10097510018E+02 -0.35231035752E+02  0.48442977006E+01  0.37265839705E+02  0.47000000000E+01 0.  1.
         13    1    6    6    0    0 -0.81015262596E+00  0.61543780838E+02  0.10135974104E+03  0.11858368527E+03  0.00000000000E+00 0. -1.
        -14    1    6    6    0    0 -0.67364298029E+02  0.67239701975E+02  0.59760457101E+02  0.11238522324E+03  0.00000000000E+00 0.  1.
</event>
<event>
12    1  0.8462562E-002  0.1815501E+03  0.7818608E-02  0.1167145E+00
         21   -1    0    0  503  502  0.00000000000E+00  0.00000000000E+00  0.41494556202E+02  0.41494556202E+02  0.00000000000E+00 0.  1.
         21   -1    0    0  501  503 -0.00000000000E+00 -0.00000000000E+00 -0.77937825270E+03  0.77937825270E+03  0.00000000000E+00 0.  1.
          6    2    1    2  501    0 -0.43587892723E+02 -0.22301211960E+02 -0.36925573028E+03  0.40996282394E+03  0.17123806300E+03 0.  0.
         24    2    3    3    0    0 -0.97408057763E+01 -0.45455825145E+02 -0.12047540996E+03  0.15778134329E+03  0.90661527384E+02 0.  0.
         -6    2    1    2    0  502  0.43587892723E+02  0.22301211960E+02 -0.36862796622E+03  0.41090998496E+03  0.17482331028E+03 0.  0.
        -24    2    5    5    0    0 -0.37171911093E+02 -0.32405684163E+02 -0.18847678851E+03  0.20599164214E+03  0.66911714098E+02 0.  0.
          5    1    3    3  501    0 -0.33847086947E+02  0.23154613184E+02 -0.24878032032E+03  0.25218148066E+03  0.47000000000E+01 0. -1.
        -13    1    4    4    0    0 -0.44841792304E+02 -0.35842625206E+02 -0.41537571434E+02  0.70857956217E+02  0.00000000000E+00 0.  1.
         14    1    4    4    0    0  0.35100986528E+02 -0.96131999386E+01 -0.78937838530E+02  0.86923387072E+02  0.00000000000E+00 0. -1.
         -5    1    5    5    0  502  0.80759803816E+02  0.54706896123E+02 -0.18015117771E+03  0.20491834282E+03  0.47000000000E+01 0.  1.
         11    1    6    6    0    0  0.97112754164E+00 -0.93880319826E+01 -0.13936507876E+03  0.13968429908E+03  0.00000000000E+00 0. -1.
        -12    1    6    6    0    0 -0.38143038635E+02 -0.23017652180E+02 -0.49111709749E+02  0.66307343052E+02  0.00000000000E+00 0.  1.
</event>
<event>
12    1  0.8462562E-002  0.2244917E+03  0.7818608E-02  0.1130970E+00
         21   -1    0    0  503  502  0.00000000000E+00  0.00000000000E+00  0.11249104709E+04  0.11249104709E+04  0.00000000000E+00 0.  1.
         21   -1    0    0  501  503 -0.00000000000E+00 -0.00000000000E+00 -0.93954573489E+02  0.93954573489E+02  0.00000000000E+00 0.  1.
          6    2    1    2  501    0  0.13418906190E+03  0.44606484140E+02  0.73933106273E+02  0.23635280149E+03  0.17435624397E+03 0.  0.
         24    2    3    3    0    0  0.15775020728E+03  0.23835615347E+02  0.25269730641E+02  0.17824281363E+03  0.75356996147E+02 0.  0.
         -6    2    1    2    0  502 -0.13418906190E+03 -0.44606484140E+02  0.95702279113E+03  0.98251224289E+03  0.17158450372E+03 0.  0.
        -24    2    5    5    0    0 -0.11394060762E+03 -0.68198551991E+02  0.47707221350E+03  0.50153279162E+03  0.79396093260E+02 0.  0.
          5    1    3    3  501    0 -0.23561145380E+02  0.20770868793E+02  0.48663375632E+02  0.58109987867E+02  0.47000000000E+01 0. -1.
        -13    1    4    4    0    0  0.34666933809E+02 -0.23352367159E+02  0.19952918473E+02  0.46316825314E+02  0.00000000000E+00 0.  1.
         14    1    4    4    0    0  0.12308327347E+03  0.47187982506E+02  0.53168121676E+01  0.13192598831E+03  0.00000000000E+00 0. -1.
         -5    1    5    5    0  502 -0.20248454279E+02  0.23592067852E+02  0.47995057764E+03  0.48097945126E+03  0.47000000000E+01 0.  1.
         13    1    6    6    0    0 -0.77117811727E+02 -0.14224933491E+00  0.25147946614E+03  0.26303820827E+03  0.00000000000E+00 0. -1.
        -14    1    6    6    0    0 -0.36822795892E+02 -0.68056302656E+02  0.22559274736E+03  0.23849458335E+03  0.00000000000E+00 0.  1.
</event>
<event>
12    1  0.8462562E-002  0.3213052E+03  0.7818608E-02  0.1075057E+00
         21   -1    0    0  501  502  0.00000000000E+00  0.00000000000E+00  0.45560755351E+03  0.45560755351E+03  0.00000000000E+00 0. -1.
         21   -1    0    0  502  503 -0.00000000000E+00 -0.00000000000E+00 -0.23974465278E+03  0.23974465278E+03  0.00000000000E+00 0.  1.
         -6    2    1    2    0  503  0.16854879210E+03 -0.21341327863E+03  0.18949810632E+03  0.37302356851E+03  0.17112313563E+03 0.  0.
        -24    2    3    3    0    0  0.16849591963E+03 -0.23281188590E+03  0.16032467079E+03  0.33767546954E+03  0.75686679935E+02 0.  0.
          6    2    1    2  501    0 -0.16854879210E+03  0.21341327863E+03  0.26364794415E+02  0.32232863778E+03  0.17101674051E+03 0.  0.
         24    2    5    5    0    0 -0.98511064997E+02  0.97568055767E+02 -0.49578617542E+02  0.16703893852E+03  0.78867054152E+02 0.  0.
          5    1    5    5  501    0 -0.70037727106E+02  0.11584522286E+03  0.75943411957E+02  0.15528969927E+03  0.47000000000E+01 0. -1.
        -11    1    6    6    0    0 -0.75809046055E+02  0.22084867715E+02 -0.37070734956E+02  0.87229537635E+02  0.00000000000E+00 0.  1.
         12    1    6    6    0    0 -0.22702018942E+02  0.75483188051E+02 -0.12507882586E+02  0.79809400882E+02  0.00000000000E+00 0. -1.
         -5    1    3    3    0  503  0.52872474737E-01  0.19398607274E+02  0.29173435529E+02  0.35348098962E+02  0.47000000000E+01 0.  1.
         13    1    4    4    0    0  0.77733103481E+02 -0.61164008123E+02  0.81327881838E+02  0.12805348738E+03  0.00000000000E+00 0. -1.
        -14    1    4    4    0    0  0.90762816149E+02 -0.17164787778E+03  0.78996788950E+02  0.20962198216E+03  0.00000000000E+00 0.  1.
</event>
<event>
12    1  0.8462562E-002  0.1739966E+03  0.7818608E-02  0.1175066E+00
         21   -1    0    0  501  502  0.00000000000E+00  0.00000000000E+00  0.53035153880E+03  0.53035153880E+03  0.00000000000E+00 0.  1.
         21   -1    0    0  502  503 -0.00000000000E+00 -0.00000000000E+00 -0.12481079947E+03  0.12481079947E+03  0.00000000000E+00 0.  1.
         -6    2    1    2    0  503  0.10794128030E+01  0.79250705490E+01 -0.40142436938E+02  0.17856712452E+03  0.17381263142E+03 0.  0.
        -24    2    3    3    0    0  0.12322826638E+02  0.62415565288E+02  0.11430033699E+02  0.10255766393E+03  0.79623325187E+02 0.  0.
          6    2    1    2  501    0 -0.10794128030E+01 -0.79250705490E+01  0.44568317626E+03  0.47659521375E+03  0.16865803357E+03 0.  0.
         24    2    5    5    0    0  0.10063788719E+02  0.14372149855E+02  0.44370363645E+03  0.45115222737E+03  0.79734413699E+02 0.  0.
          5    1    5    5  501    0 -0.11143201522E+02 -0.22297220404E+02  0.19795398126E+01  0.25442986377E+02  0.47000000000E+01 0. -1.
        -13    1    6    6    0    0 -0.11197247871E+02 -0.19917834920E+02  0.32454481082E+03  0.32534817156E+03  0.00000000000E+00 0.  1.
         14    1    6    6    0    0  0.21261036590E+02  0.34289984775E+02  0.11915882563E+03  0.12580405581E+03  0.00000000000E+00 0. -1.
         -5    1    3    3    0  503 -0.11243413835E+02 -0.54490494739E+02 -0.51572470637E+02  0.76009460590E+02  0.47000000000E+01 0.  1.
         11    1    4    4    0    0 -0.28723570726E+02  0.19376753166E+01  0.44973474551E+01  0.29138020438E+02  0.00000000000E+00 0. -1.
        -12    1    4    4    0    0  0.41046397364E+02  0.60477889972E+02  0.69326862435E+01  0.73419643492E+02  0.00000000000E+00 0.  1.
</event>
<event>
12    1  0.8462562E-002  0.1888543E+03  0.7818608E-02  0.1160056E+00
         21   -1    0    0  503  502  0.00000000000E+00  0.00000000000E+00  0.43443674907E+03  0.43443674907E+03  0.00000000000E+00 0. -1.
         21   -1    0    0  501  503 -0.00000000000E+00 -0.00000000000E+00 -0.14014138617E+03  0.14014138617E+03  0.00000000000E+00 0. -1.
          6    2    1    2  501    0 -0.67389047898E+02  0.17724656864E+02 -0.39964610897E+02  0.19065667817E+03  0.17290850635E+03 0.  0.
         24    2    3    3    0    0  0.95136623168E+01  0.44634455897E+02  0.16898163679E+02  0.91189953811E+02  0.77118838921E+02 0.  0.
         -6    2    1    2    0  502  0.67389047898E+02 -0.17724656864E+02  0.33425997379E+03  0.38392145707E+03  0.17552922230E+03 0.  0.
        -24    2    5    5    0    0  0.72502295472E+02 -0.48856906232E+02  0.33203597103E+03  0.35194649124E+03  0.77297260655E+02 0.  0.
          5    1    3    3  501    0 -0.76902710215E+02 -0.26909799033E+02 -0.56862774576E+02  0.99466724360E+02  0.47000000000E+01 0. -1.
        -11    1    4    4    0    0  0.20302192646E+02 -0.81986179876E+01 -0.16804659164E+02  0.27600596601E+02  0.00000000000E+00 0.  1.
         12    1    4    4    0    0 -0.10788530329E+02  0.52833073885E+02  0.33702822843E+02  0.63589357210E+02  0.00000000000E+00 0. -1.
         -5    1    5    5    0  502 -0.51132475738E+01  0.31132249367E+02  0.22240027638E+01  0.31974965828E+02  0.47000000000E+01 0.  1.
         11    1    6    6    0    0  0.48886592278E+02  0.72409986089E+01  0.93378334061E+02  0.10564962961E+03  0.00000000000E+00 0. -1.
        -12    1    6    6    0    0  0.23615703194E+02 -0.56097904841E+02  0.23865763697E+03  0.24629686163E+03  0.00000000000E+00 0.  1.
</event>
<event>
12    1  0.8462562E-002  0.2240012E+03  0.7818608E-02  0.1131336E+00
         21   -1    0    0  501  502  0.00000000000E+00  0.00000000000E+00  0.82971626289E+03  0.82971626289E+03  0.00000000000E+00 0.  1.
         21   -1    0    0  502  503 -0.00000000000E+00 -0.00000000000E+00 -0.61270041544E+02  0.61270041544E+02  0.00000000000E+00 0. -1.
         -6    2    1    2    0  503  0.10870210058E+03  0.90496313110E+02  0.45307570464E+03  0.50542472645E+03  0.17369752622E+03 0.  0.
        -24    2    3    3    0    0  0.22251097959E+02  0.23084059774E+02  0.84685026752E+02  0.12103954293E+03  0.80318316844E+02 0.  0.
          6    2    1    2  501    0 -0.10870210058E+03 -0.90496313110E+02  0.31537051671E+03  0.38556157799E+03  0.17086087398E+03 0.  0.
         24    2    5    5    0    0  0.65902096399E+01 -0.32833901437E+02  0.83026136201E+02  0.11981118445E+03  0.79623392790E+02 0.  0.
          5    1    5    5  501    0 -0.11529231022E+03 -0.57662411673E+02  0.23234438051E+03  0.26575039354E+03  0.47000000000E+01 0. -1.
        -11    1    6    6    0    0  0.93756784119E+01 -0.27500219865E+02  0.98770994844E+02  0.10295569368E+03  0.00000000000E+00 0.  1.
         12    1    6    6    0    0 -0.27854687719E+01 -0.53336815723E+01 -0.15744858643E+02  0.16855490769E+02  0.00000000000E+00 0. -1.
         -5    1    3    3    0  503  0.86451002617E+02  0.67412253335E+02  0.36839067789E+03  0.38438518352E+03  0.47000000000E+01 0.  1.
         11    1    4    4    0    0 -0.52905790202E+01  0.48564172205E+02  0.44866245574E+02  0.66328342661E+02  0.00000000000E+00 0. -1.
        -12    1    4    4    0    0  0.27541676979E+02 -0.25480112431E+02  0.39818781178E+02  0.54711200268E+02  0.00000000000E+00 0.  1.
</event>
<event>
12    1  0.8462562E-002  0.1725585E+03  0.7818608E-02  0.1175303E+00
         21   -1    0    0  503  502  0.00000000000E+00  0.00000000000E+00  0.18778125476E+03  0.18778125476E+03  0.00000000000E+00 0. -1.
         21   -1    0    0  501  503 -0.00000000000E+00 -0.00000000000E+00 -0.28826404663E+03  0.28826404663E+03  0.00000000000E+00 0. -1.
          6    2    1    2  501    0  0.70200646861E+01 -0.74362295157E+01 -0.21008087678E+03  0.27162375742E+03  0.17187469851E+03 0.  0.
         24    2    3    3    0    0  0.49278695100E+02 -0.53955879845E+02 -0.14595355296E+03  0.18171117003E+03  0.79855387615E+02 0.  0.
         -6    2    1    2    0  502 -0.70200646861E+01  0.74362295157E+01  0.10959808492E+03  0.20442154397E+03  0.17225518455E+03 0.  0.
        -24    2    5    5    0    0  0.61472595927E+02  0.16502616929E+01  0.56429147193E+02  0.11739426135E+03  0.82556408185E+02 0.  0.
          5    1    3    3  501    0 -0.42258630414E+02  0.46519650329E+02 -0.64127323821E+02  0.89912587393E+02  0.47000000000E+01 0. -1.
        -11    1    4    4    0    0 -0.80564436884E+01 -0.49303608992E+02 -0.78645227199E+02  0.93170939170E+02  0.00000000000E+00 0.  1.
         12    1    4    4    0    0  0.57335138788E+02 -0.46522708526E+01 -0.67308325761E+02  0.88540230860E+02  0.00000000000E+00 0. -1.
         -5    1    5    5    0  502 -0.68492660613E+02  0.57859678228E+01  0.53168937722E+02  0.87027282618E+02  0.47000000000E+01 0.  1.
         13    1    6    6    0    0  0.50232805333E+02 -0.37023087082E+02  0.38387496422E+02  0.73264204017E+02  0.00000000000E+00 0. -1.
        -14    1    6    6    0    0  0.11239790594E+02  0.38673348775E+02  0.18041650772E+02  0.44130057338E+02  0.00000000000E+00 0.  1.
</event>
<event>
12    1  0.8462562E-002  0.2831672E+03  0.7818608E-02  0.1093986E+00
         21   -1    0    0  503  502  0.00000000000E+00  0.00000000000E+00  0.22817220570E+04  0.22817220570E+04  0.00000000000E+00 0. -1.
         21   -1    0    0  501  503 -0.00000000000E+00 -0.00000000000E+00 -0.35508608754E+02  0.35508608754E+02  0.00000000000E+00 0.  1.
          6    2    1    2  501    0 -0.20871109255E+03  0.85193058091E+02  0.10029426115E+04  0.10421204509E+04  0.17118111776E+03 0.  0.
         24    2    3    3    0    0 -0.66452601707E+02 -0.16278585972E+02  0.44635422092E+03  0.45872804505E+03  0.80736535376E+02 0.  0.
         -6    2    1    2    0  502  0.20871109255E+03 -0.85193058091E+02  0.12432708368E+04  0.12751102148E+04  0.17136367475E+03 0.  0.
        -24    2    5    5    0    0  0.13505799239E+03 -0.23719279470E+02  0.10077406974E+04  0.10207475973E+04  0.87069390205E+02 0.  0.
          5    1    3    3  501    0 -0.14225849085E+03  0.10147164406E+03  0.55658839053E+03  0.58339240588E+03  0.47000000000E+01 0. -1.
        -13    1    4    4    0    0 -0.70046794854E+02 -0.31548223792E+02  0.42680116894E+03  0.43366009928E+03  0.00000000000E+00 0.  1.
         14    1    4    4    0    0  0.35941931475E+01  0.15269637820E+02  0.19553051980E+02  0.25067945773E+02  0.00000000000E+00 0. -1.
         -5    1    5    5    0  502  0.73653100167E+02 -0.61473778621E+02  0.23553013944E+03  0.25436261755E+03  0.47000000000E+01 0.  1.
         11    1    6    6    0    0  0.42837308728E+02 -0.50501339578E+02  0.43506470221E+03  0.44007580646E+03  0.00000000000E+00 0. -1.
        -12    1    6    6    0    0  0.92220683661E+02  0.26782060108E+02  0.57267599514E+03  0.58067179081E+03  0.00000000000E+00 0.  1.
</event>
<event>
12    1  0.8462562E-002  0.2195881E+03  0.7818608E-02  0.1134342E+00
         21   -1    0    0  503  502  0.00000000000E+00  0.00000000000E+00  0.15491704668E+03  0.15491704668E+03  0.00000000000E+00 0. -1.
         21   -1    0    0  501  503 -0.00000000000E+00 -0.00000000000E+00 -0.31966654516E+03  0.31966654516E+03  0.00000000000E+00 0. -1.
          6    2    1    2  501    0  0.13508876735E+03  0.10119069474E+02 -0.41198608974E+02  0.22262373799E+03  0.17179241167E+03 0.  0.
         24    2    3    3    0    0  0.11524760009E+02  0.50144991897E+01 -0.50255777848E+02  0.98534081471E+02  0.83817400991E+02 0.  0.
         -6    2    1    2    0  502 -0.13508876735E+03 -0.10119069474E+02 -0.12355088951E+03  0.25195985385E+03  0.17282237998E+03 0.  0.
        -24    2    5    5    0    0 -0.16977831206E+03 -0.13745516858E+02 -0.10739505861E+03  0.21323497160E+03  0.70155826726E+02 0.  0.
          5    1    3    3  501    0  0.12356400734E+03  0.51045702839E+01  0.90571688736E+01  0.12408965652E+03  0.47000000000E+01 0. -1.
        -11    1    4    4    0    0  0.36562007932E+02  0.87584663352E+00 -0.60881852820E+02  0.71022162275E+02  0.00000000000E+00 0.  1.
         12    1    4    4    0    0 -0.25037247923E+02  0.41386525562E+01  0.10626074972E+02  0.27511919196E+02  0.00000000000E+00 0. -1.
         -5    1    5    5    0  502  0.34689544706E+02  0.36264473840E+01 -0.16155830906E+02  0.38724882244E+02  0.47000000000E+01 0.  1.
         13    1    6    6    0    0 -0.91332150658E+02 -0.20428668257E+02 -0.95319331450E+02  0.13358393309E+03  0.00000000000E+00 0. -1.
        -14    1    6    6    0    0 -0.78446161399E+02  0.66831513989E+01 -0.12075727157E+02  0.79651038519E+02  0.00000000000E+00 0.  1.
</event>
<event>
12    1  0.8462562E-002  0.2013260E+03  0.7818608E-02  0.1148976E+00
         21   -1    0    0  501  502  0.00000000000E+00  0.00000000000E+00  0.25048686650E+03  0.25048686650E+03  0.00000000000E+00 0. -1.
         21   -1    0    0  502  503 -0.00000000000E+00 -0.00000000000E+00 -0.69876024712E+03  0.69876024712E+03  0.00000000000E+00 0. -1.
         -6    2    1    2    0  503  0.99718551834E+02  0.30361021220E+02 -0.64049544965E+03  0.67089214944E+03  0.17028292330E+03 0.  0.
        -24    2    3    3    0    0  0.32444815056E+02  0.78817427009E+02 -0.37669333943E+03  0.39432855408E+03  0.79575648073E+02 0.  0.
          6    2    1    2  501    0 -0.99718551834E+02 -0.30361021220E+02  0.19222206903E+03  0.27835496417E+03  0.17223989395E+03 0.  0.
         24    2    5    5    0    0 -0.10043818177E+03 -0.36592910355E+02  0.59640970597E+02  0.14554234440E+03  0.78731564152E+02 0.  0.
          5    1    5    5  501    0  0.71962993679E+00  0.62318891345E+01  0.13258109843E+03  0.13281261978E+03  0.47000000000E+01 0. -1.
        -13    1    6    6    0    0 -0.62797057848E+01 -0.21835111675E+02  0.43222903036E+02  0.48830586250E+02  0.00000000000E+00 0.  1.
         14    1    6    6    0    0 -0.94158475986E+02 -0.14757798679E+02  0.16418067560E+02  0.96711758149E+02  0.00000000000E+00 0. -1.
         -5    1    3    3    0  503  0.67273736778E+02 -0.48456405789E+02 -0.26380211022E+03  0.27656359536E+03  0.47000000000E+01 0.  1.
         11    1    4    4    0    0  0.16826043832E+02 -0.10526584437E+02 -0.12967955196E+03  0.13118959916E+03  0.00000000000E+00 0. -1.
        -12    1    4    4    0    0  0.15618771225E+02  0.89344011446E+02 -0.24701378747E+03  0.26313895492E+03  0.00000000000E+00 0.  1.
</event>
<event>
12    1  0.8462562E-002  0.2066806E+03  0.7818608E-02  0.1144520E+00
         21   -1    0    0  503  502  0.00000000000E+00  0.00000000000E+00  0.27821264776E+03  0.27821264776E+03  0.00000000000E+00 0.  1.
         21   -1    0    0  501  503 -0.00000000000E+00 -0.00000000000E+00 -0.42196830593E+03  0.42196830593E+03  0.00000000000E+00 0.  1.
          6    2    1    2  501    0  0.51394187295E+02 -0.10213389712E+03 -0.35176104483E+03  0.40798615904E+03  0.17217484682E+03 0.  0.
         24    2    3    3    0    0  0.86436146414E+02 -0.11072553527E+03 -0.32479518981E+03  0.36269816414E+03  0.79540501498E+02 0.  0.
         -6    2    1    2    0  502 -0.51394187295E+02  0.10213389712E+03  0.20800538666E+03  0.29219479466E+03  0.17040792740E+03 0.  0.
        -24    2    5    5    0    0 -0.37459121241E+02  0.54569545097E+02  0.21833248872E+03  0.24134902113E+03  0.78735337398E+02 0.  0.
          5    1    3    3  501    0 -0.35041959119E+02  0.85916381496E+01 -0.26965855017E+02  0.45287994897E+02  0.47000000000E+01 0. -1.
        -11    1    4    4    0    0  0.44236365073E+02 -0.27186386496E+02 -0.20045306523E+03  0.20706855620E+03  0.00000000000E+00 0.  1.
         12    1    4    4    0    0  0.42199781340E+02 -0.83539148771E+02 -0.12434212458E+03  0.15562960794E+03  0.00000000000E+00 0. -1.
         -5    1    5    5    0  502 -0.13935066053E+02  0.47564352019E+02 -0.10327102057E+02  0.50845773530E+02  0.47000000000E+01 0.  1.
         13    1    6    6    0    0 -0.33931551657E+02  0.12760577129E+02  0.26301760017E+02  0.44788001815E+02  0.00000000000E+00 0. -1.
        -14    1    6    6    0    0 -0.35275695838E+01  0.41808967968E+02  0.19203072870E+03  0.19656101932E+03  0.00000000000E+00 0.  1.
</event>
<event>
12    1  0.8462562E-002  0.1958705E+03  0.7818608E-02  0.1153539E+00
         21   -1    0    0  503  502  0.00000000000E+00  0.00000000000E+00  0.40159782899E+02  0.40159782899E+02  0.00000000000E+00 0.  1.
         21   -1    0    0  501  503 -0.00000000000E+00 -0.00000000000E+00 -0.13735387638E+04  0.13735387638E+04  0.00000000000E+00 0.  1.
          6    2    1    2  501    0 -0.76712911075E+02 -0.48479561605E+02 -0.10580646351E+04  0.10758180364E+04  0.17218750419E+03 0.  0.
         24    2    3    3    0    0 -0.52185647916E+02  0.14445567379E+01 -0.28942622521E+03  0.30515527000E+03  0.81404977588E+02 0.  0.
         -6    2    1    2    0  502  0.76712911075E+02  0.48479561605E+02 -0.27531434575E+03  0.33788051033E+03  0.17358027442E+03 0.  0.
        -24    2    5    5    0    0  0.90568647737E+02  0.38937940417E+02 -0.99872763059E+02  0.16157151195E+03  0.80074599692E+02 0.  0.
          5    1    3    3  501    0 -0.24527263159E+02 -0.49924118343E+02 -0.76863840993E+03  0.77066276636E+03  0.47000000000E+01 0. -1.
        -13    1    4    4    0    0 -0.17154772797E+02 -0.23959204919E+02 -0.22868880727E+03  0.23057948803E+03  0.00000000000E+00 0.  1.
         14    1    4    4    0    0 -0.35030875119E+02  0.25403761657E+02 -0.60737417934E+02  0.74575781962E+02  0.00000000000E+00 0. -1.
         -5    1    5    5    0  502 -0.13855736662E+02  0.95416211881E+01 -0.17544158269E+03  0.17630899838E+03  0.47000000000E+01 0.  1.
         13    1    6    6    0    0 -0.13398285117E+02  0.40613259071E+01 -0.25432919799E+02  0.29031738179E+02  0.00000000000E+00 0. -1.
        -14    1    6    6    0    0  0.10396693285E+03  0.34876614509E+02 -0.74439843260E+02  0.13253977377E+03  0.00000000000E+00 0.  1.
</event>
<event>
12    1  0.8462562E-002  0.1740717E+03  0.7818608E-02  0.1173687E+00
         21   -1    0    0  503  502  0.00000000000E+00  0.00000000000E+00  0.12295872993E+03  0.12295872993E+03  0.00000000000E+00 0. -1.
         21   -1    0    0  501  503 -0.00000000000E+00 -0.00000000000E+00 -0.37911287839E+03  0.37911287839E+03  0.00000000000E+00 0. -1.
          6    2    1    2  501    0 -0.11613466368E+02 -0.24212370544E+02 -0.27662973712E+03  0.32679983362E+03  0.17190988426E+03 0.  0.
         24    2    3    3    0    0 -0.46086839643E+02  0.43579176846E+02 -0.15212494883E+03  0.18082846769E+03  0.74389469884E+02 0.  0.
         -6    2    1    2    0  502  0.11613466368E+02  0.24212370544E+02  0.20475588661E+02  0.17527177470E+03  0.17198788849E+03 0.  0.
        -24    2    5    5    0    0  0.22605883281E+01  0.31489050374E+02  0.79647169214E+02  0.11474250622E+03  0.76324967199E+02 0.  0.
          5    1    3    3  501    0  0.34473373275E+02 -0.67791547390E+02 -0.12450478829E+03  0.14597136592E+03  0.47000000000E+01 0. -1.
        -11    1    4    4    0    0 -0.56002894948E+02  0.33657789086E+01 -0.81231645140E+02  0.98723010906E+02  0.00000000000E+00 0.  1.
         12    1    4    4    0    0  0.99160553048E+01  0.40213397938E+02 -0.70893303685E+02  0.82105456785E+02  0.00000000000E+00 0. -1.
         -5    1    5    5    0  502  0.93528780401E+01 -0.72766798299E+01 -0.59171580553E+02  0.60529268475E+02  0.47000000000E+01 0.  1.
         11    1    6    6    0    0 -0.25188223207E+02 -0.90177133512E+01  0.52156314572E+02  0.58617803543E+02  0.00000000000E+00 0. -1.
        -12    1    6    6    0    0  0.27448811535E+02  0.40506763725E+02  0.27490854641E+02  0.56124702682E+02  0.00000000000E+00 0.  1.
</event>
<event>
12    1  0.8462562E-002  0.2296103E+03  0.7818608E-02  0.1126991E+00
         21   -1    0    0  501  502  0.00000000000E+00  0.00000000000E+00  0.38109923093E+03  0.38109923093E+03  0.00000000000E+00 0.  1.
         21   -1    0    0  502  503 -0.00000000000E+00 -0.00000000000E+00 -0.20115822385E+03  0.20115822385E+03  0.00000000000E+00 0.  1.
         -6    2    1    2    0  503  0.43397018453E+02 -0.14612859180E+03 -0.73114502836E+02  0.24055875225E+03  0.17113128355E+03 0.  0.
        -24    2    3    3    0    0 -0.13527618611E+02 -0.62303369322E+02  0.23172197423E+02  0.10070060671E+03  0.74424157128E+02 0.  0.
          6    2    1    2  501    0 -0.43397018453E+02  0.14612859180E+03  0.25305550992E+03  0.34169870254E+03  0.17170918922E+03 0.  0.
         24    2    5    5    0    0 -0.26794198886E+02  0.16769970113E+03  0.25177300153E+03  0.31404547120E+03  0.79961208258E+02 0.  0.
          5    1    5    5  501    0 -0.16602819567E+02 -0.21571109338E+02  0.12825083868E+01  0.27653231337E+02  0.47000000000E+01 0. -1.
        -13    1    6    6    0    0 -0.45042311231E+02  0.59096362206E+02  0.73597788015E+02  0.10458405341E+03  0.00000000000E+00 0.  1.
         14    1    6    6    0    0  0.18248112345E+02  0.10860333893E+03  0.17817521352E+03  0.20946141779E+03  0.00000000000E+00 0. -1.
         -5    1    3    3    0  503  0.56924637064E+02 -0.83825222475E+02 -0.96286700258E+02  0.13985814554E+03  0.47000000000E+01 0.  1.
         13    1    4    4    0    0  0.24326759854E+02 -0.84321848193E+01 -0.91877885006E+01  0.27336942831E+02  0.00000000000E+00 0. -1.
        -14    1    4    4    0    0 -0.37854378465E+02 -0.53871184502E+02  0.32359985923E+02  0.73363663878E+02  0.00000000000E+00 0.  1.
</event>
<event>
12    1  0.8462562E-002  0.2300955E+03  0.7818608E-02  0.1126580E+00
         21   -1    0    0  501  502  0.00000000000E+00  0.00000000000E+00  0.46121500415E+03  0.46121500415E+03  0.00000000000E+00 0.  1.
         21   -1    0    0  502  503 -0.00000000000E+00 -0.00000000000E+00 -0.13898180386E+03  0.13898180386E+03  0.00000000000E+00 0. -1.
         -6    2    1    2    0  503  0.10459239052E+03 -0.11028520159E+03  0.35855271686E+02  0.23283289784E+03  0.17269384460E+03 0.  0.
        -24    2    3    3    0    0  0.54499874026E+02  0.12172600830E+02  0.82170697926E+01  0.97588179688E+02  0.79608568001E+02 0.  0.
          6    2    1    2  501    0 -0.10459239052E+03  0.11028520159E+03  0.28637792860E+03  0.36736391017E+03  0.17274701348E+03 0.  0.
         24    2    5    5    0    0 -0.10922114654E+03  0.11808916577E+03  0.30043772606E+03  0.34998302574E+03  0.79693043248E+02 0.  0.
          5    1    5    5  501    0  0.46287560246E+01 -0.78039641779E+01 -0.14059797458E+02  0.17380884436E+02  0.47000000000E+01 0. -1.
        -11    1    6    6    0    0 -0.23122809205E+02  0.60736982900E+02  0.17912193315E+03  0.19054740180E+03  0.00000000000E+00 0.  1.
         12    1    6    6    0    0 -0.86098337335E+02  0.57352182871E+02  0.12131579291E+03  0.15943562394E+03  0.00000000000E+00 0. -1.
         -5    1    3    3    0  503  0.50092516490E+02 -0.12245780242E+03  0.27638201893E+02  0.13524471815E+03  0.47000000000E+01 0.  1.
         11    1    4    4    0    0  0.41989689933E+02 -0.25871330699E+02 -0.14677775150E+02  0.51457719500E+02  0.00000000000E+00 0. -1.
        -12    1    4    4    0    0  0.12510184094E+02  0.38043931529E+02  0.22894844943E+02  0.46130460189E+02  0.00000000000E+00 0.  1.
</event>
<event>
12    1  0.8462562E-002  0.1966561E+03  0.7818608E-02  0.1152635E+00
         21   -1    0    0  501  502  0.00000000000E+00  0.00000000000E+00  0.51268911479E+03  0.51268911479E+03  0.00000000000E+00 0. -1.
         21   -1    0    0  502  503 -0.00000000000E+00 -0.00000000000E+00 -0.11873984675E+03  0.11873984675E+03  0.00000000000E+00 0. -1.
         -6    2    1    2    0  503  0.73084754809E+02  0.60760322004E+02  0.62012595493E+01  0.19675387944E+03  0.17216397806E+03 0.  0.
        -24    2    3    3    0    0  0.21592087418E+02  0.80482334355E+02 -0.41464231121E+02  0.12371593337E+03  0.81502916045E+02 0.  0.
          6    2    1    2  501    0 -0.73084754809E+02 -0.60760322004E+02  0.38774800849E+03  0.43467508210E+03  0.17193228549E+03 0.  0.
         24    2    5    5    0    0 -0.15232657263E+02 -0.77952785668E+02  0.14145602412E+03  0.18105276927E+03  0.80384251323E+02 0.  0.
          5    1    5    5  501    0 -0.57852097547E+02  0.17192463663E+02  0.24629198438E+03  0.25362231283E+03  0.47000000000E+01 0. -1.
        -11    1    6    6    0    0  0.23818613699E+02 -0.21888001344E+02  0.89651954153E+02  0.95309411103E+02  0.00000000000E+00 0.  1.
         12    1    6    6    0    0 -0.39051270962E+02 -0.56064784324E+02  0.51804069965E+02  0.85743358168E+02  0.00000000000E+00 0. -1.
         -5    1    3    3    0  503  0.51492667392E+02 -0.19722012351E+02  0.47665490670E+02  0.73037946077E+02  0.47000000000E+01 0.  1.
         13    1    4    4    0    0  0.40922299162E+02  0.86988127915E+02 -0.35297303013E+02  0.10240834227E+03  0.00000000000E+00 0. -1.
        -14    1    4    4    0    0 -0.19330211745E+02 -0.65057935599E+01 -0.61669281084E+01  0.21307591094E+02  0.00000000000E+00 0.  1.
</event>
<event>
12    1  0.8462562E-002  0.1929311E+03  0.7818608E-02  0.1157293E+00
         21   -1    0    0  503  502  0.00000000000E+00  0.00000000000E+00  0.46654410305E+03  0.46654410305E+03  0.00000000000E+00 0. -1.
         21   -1    0    0  501  503 -0.00000000000E+00 -0.00000000000E+00 -0.80078326330E+02  0.80078326330E+02  0.00000000000E+00 0.  1.
          6    2    1    2  501    0 -0.58486664051E+02 -0.58896409763E+02  0.13776527803E+03  0.23186166577E+03  0.16700623722E+03 0.  0.
         24    2    3    3    0    0  0.10920107683E+02 -0.63591076749E+02  0.42127356272E+02  0.11350609160E+03  0.83341735577E+02 0.  0.
         -6    2    1    2    0  502  0.58486664051E+02  0.58896409763E+02  0.24870049869E+03  0.31476076361E+03  0.17416349590E+03 0.  0.
        -24    2    5    5    0    0  0.83287639591E+02  0.11915541068E+02  0.22967959746E+03  0.25813766678E+03  0.82483492239E+02 0.  0.
          5    1    3    3  501    0 -0.69406771734E+02  0.46946669858E+01  0.95637921759E+02  0.11835557418E+03  0.47000000000E+01 0. -1.
        -11    1    4    4    0    0  0.27120909227E+01 -0.78304364727E+02  0.12386095420E+02  0.79324298498E+02  0.00000000000E+00 0.  1.
         12    1    4    4    0    0  0.82080167603E+01  0.14713287978E+02  0.29741260852E+02  0.34181793097E+02  0.00000000000E+00 0. -1.
         -5    1    5    5    0  502 -0.24800975540E+02  0.46980868695E+02  0.19020901230E+02  0.56623096830E+02  0.47000000000E+01 0.  1.
         13    1    6    6    0    0  0.66579899707E+02  0.30363633488E+02  0.21927148413E+03  0.23115972191E+03  0.00000000000E+00 0. -1.
        -14    1    6    6    0    0  0.16707739884E+02 -0.18448092420E+02  0.10408113336E+02  0.26977944866E+02  0.00000000000E+00 0.  1.
</event>
<event>
12    1  0.8462562E-002  0.2290434E+03  0.7818608E-02  0.1127720E+00
         21   -1    0    0  501  502  0.00000000000E+00  0.00000000000E+00  0.31176690384E+03  0.31176690384E+03  0.00000000000E+00 0. -1.
         21   -1    0    0  502  503 -0.00000000000E+00 -0.00000000000E+00 -0.16981094447E+03  0.16981094447E+03  0.00000000000E+00 0.  1.
         -6    2    1    2    0  503  0.95057268416E+02 -0.11335513558E+03  0.10374330050E+03  0.24936874598E+03  0.17186281747E+03 0.  0.
        -24    2    3    3    0    0  0.38694084886E+02 -0.12743076375E+01 -0.18379770421E+01  0.85330894805E+02  0.76020572107E+02 0.  0.
          6    2    1    2  501    0 -0.95057268416E+02  0.11335513558E+03  0.38212658865E+02  0.23220910233E+03  0.17485876834E+03 0.  0.
         24    2    5    5    0    0 -0.13486124294E+03  0.95528989223E+02  0.18201363107E+02  0.18399427225E+03  0.78798857678E+02 0.  0.
          5    1    5    5  501    0  0.39803974526E+02  0.17826146353E+02  0.20011295757E+02  0.48214830081E+02  0.47000000000E+01 0. -1.
        -11    1    6    6    0    0 -0.29648373331E+02  0.27269320826E+02 -0.29377656988E+02  0.49856680893E+02  0.00000000000E+00 0.  1.
         12    1    6    6    0    0 -0.10521286961E+03  0.68259668396E+02  0.47579020096E+02  0.13413759136E+03  0.00000000000E+00 0. -1.
         -5    1    3    3    0  503  0.56363183529E+02 -0.11208082794E+03  0.10558127754E+03  0.16403785117E+03  0.47000000000E+01 0.  1.
         13    1    4    4    0    0  0.30984250014E+01  0.66748642046E+01  0.33648298527E+02  0.34443606713E+02  0.00000000000E+00 0. -1.
        -14    1    4    4    0    0  0.35595659885E+02 -0.79491718420E+01 -0.35486275569E+02  0.50887288092E+02  0.00000000000E+00 0.  1.
</event>
<event>
12    1  0.8462562E-002  0.2151351E+03  0.7818608E-02  0.1139703E+00
         21   -1    0    0  503  502  0.00000000000E+00  0.00000000000E+00  0.54613645691E+03  0.54613645691E+03  0.00000000000E+00 0. -1.
         21   -1    0    0  501  503 -0.00000000000E+00 -0.00000000000E+00 -0.83374800344E+02  0.83374800344E+02  0.00000000000E+00 0.  1.
          6    2    1    2  501    0  0.28746507440E+02 -0.11089295638E+03  0.16744597329E+03  0.26414233096E+03  0.16914315703E+03 0.  0.
         24    2    3    3    0    0 -0.32139091198E+02 -0.21497033635E+02  0.44643347174E+02  0.10043142080E+03  0.81230525044E+02 0.  0.
         -6    2    1    2    0  502 -0.28746507440E+02  0.11089295638E+03  0.29531568328E+03  0.36536892629E+03  0.18209747402E+03 0.  0.
        -24    2    5    5    0    0 -0.14161811823E+02  0.71344444775E+02  0.30378764872E+03  0.32211777237E+03  0.78627838905E+02 0.  0.
          5    1    3    3  501    0  0.60885598638E+02 -0.89395922750E+02  0.12280262612E+03  0.16371091016E+03  0.47000000000E+01 0. -1.
        -13    1    4    4    0    0 -0.37994333995E+02 -0.43489255055E+02  0.94439743793E+01  0.58515582310E+02  0.00000000000E+00 0.  1.
         14    1    4    4    0    0  0.58552427968E+01  0.21992221420E+02  0.35199372794E+02  0.41915838490E+02  0.00000000000E+00 0. -1.
         -5    1    5    5    0  502 -0.14584695617E+02  0.39548511609E+02 -0.84719654412E+01  0.43251153917E+02  0.47000000000E+01 0.  1.
         13    1    6    6    0    0 -0.18936889103E+02  0.69810422520E+02  0.13417020996E+03  0.15242619887E+03  0.00000000000E+00 0. -1.
        -14    1    6    6    0    0  0.47750772804E+01  0.15340222554E+01  0.16961743875E+03  0.16969157350E+03  0.00000000000E+00 0.  1.
</event>
<event>
12    1  0.8462562E-002  0.3115591E+03  0.7818608E-02  0.1079687E+00
         21   -1    0    0  501  502  0.00000000000E+00  0.00000000000E+00  0.18252108482E+04  0.18252108482E+04  0.00000000000E+00 0. -1.
         21   -1    0    0  502  503 -0.00000000000E+00 -0.00000000000E+00 -0.10093517604E+03  0.10093517604E+03  0.00000000000E+00 0.  1.
         -6    2    1    2    0  503  0.25264666751E+03  0.58419898038E+02  0.19832835657E+03  0.36871727423E+03  0.17139156398E+03 0.  0.
        -24    2    3    3    0    0  0.18374006326E+03  0.10324060963E+03  0.16738633337E+03  0.28075981236E+03  0.79930302884E+02 0.  0.
          6    2    1    2  501    0 -0.25264666751E+03 -0.58419898038E+02  0.15259473156E+04  0.15574287501E+04  0.17270170335E+03 0.  0.
         24    2    5    5    0    0 -0.10171081466E+03 -0.19538252754E+02  0.39811126597E+03  0.41886401368E+03  0.78915453003E+02 0.  0.
          5    1    5    5  501    0 -0.15093585285E+03 -0.38881645284E+02  0.11278360497E+04  0.11385647364E+04  0.47000000000E+01 0. -1.
        -13    1    6    6    0    0  0.50104005998E+01  0.94309094737E+01  0.10575304238E+03  0.10629088456E+03  0.00000000000E+00 0.  1.
         14    1    6    6    0    0 -0.10672121526E+03 -0.28969162228E+02  0.29235822359E+03  0.31257312911E+03  0.00000000000E+00 0. -1.
         -5    1    3    3    0  503  0.68906604251E+02 -0.44820711594E+02  0.30942023201E+02  0.87957461861E+02  0.47000000000E+01 0.  1.
         13    1    4    4    0    0  0.52850604556E+02  0.72768096450E+02  0.80727273035E+02  0.12085228535E+03  0.00000000000E+00 0. -1.
        -14    1    4    4    0    0  0.13088945870E+03  0.30472513182E+02  0.86659060330E+02  0.15990752701E+03  0.00000000000E+00 0.  1.
</event>
<event>
12    1  0.8462562E-002  0.2239799E+03  0.7818608E-02  0.1131094E+00
         21   -1    0    0  501  502  0.00000000000E+00  0.00000000000E+00  0.52607674425E+03  0.52607674425E+03  0.00000000000E+00 0. -1.
         21   -1    0    0  502  503 -0.00000000000E+00 -0.00000000000E+00 -0.18496901374E+03  0.18496901374E+03  0.00000000000E+00 0.  1.
         -6    2    1    2    0  503 -0.14133344160E+03 -0.32854145758E+00 -0.77206848169E+02  0.23691324241E+03  0.17375769731E+03 0.  0.
        -24    2    3    3    0    0 -0.13714717028E+03  0.34033864383E+02 -0.12143164377E+02  0.16306425629E+03  0.80466421565E+02 0.  0.
          6    2    1    2  501    0  0.14133344160E+03  0.32854145758E+00  0.41831457867E+03  0.47413251557E+03  0.17274057410E+03 0.  0.
         24    2    5    5    0    0  0.59926937313E+02  0.95239326408E+01  0.87690429437E+02  0.13347727605E+03  0.80278444786E+02 0.  0.
          5    1    5    5  501    0  0.81406504283E+02 -0.91953911833E+01  0.33062414924E+03  0.34065523953E+03  0.47000000000E+01 0. -1.
        -11    1    6    6    0    0  0.77551030433E+02  0.63239478950E+01  0.85216488206E+02  0.11539499339E+03  0.00000000000E+00 0.  1.
         12    1    6    6    0    0 -0.17624093121E+02  0.31999847459E+01  0.24739412305E+01  0.18082282652E+02  0.00000000000E+00 0. -1.
         -5    1    3    3    0  503 -0.41862713196E+01 -0.34362405841E+02 -0.65063683792E+02  0.73848986122E+02  0.47000000000E+01 0.  1.
         13    1    4    4    0    0  0.50557153027E+01  0.12261555870E+02  0.11154493068E+02  0.17329994956E+02  0.00000000000E+00 0. -1.
        -14    1    4    4    0    0 -0.14220288558E+03  0.21772308514E+02 -0.23297657445E+02  0.14573426134E+03  0.00000000000E+00 0.  1.
</event>
<event>
12    1  0.8462562E-002  0.2024423E+03  0.7818608E-02  0.1147950E+00
         21   -1    0    0  501  502  0.00000000000E+00  0.00000000000E+00  0.11221216937E+03  0.11221216937E+03  0.00000000000E+00 0. -1.
         21   -1    0    0  502  503 -0.00000000000E+00 -0.00000000000E+00 -0.36644777941E+03  0.36644777941E+03  0.00000000000E+00 0.  1.
         -6    2    1    2    0  503 -0.42892652155E+02 -0.95188549744E+02 -0.15064989092E+03  0.25234553885E+03  0.17344232970E+03 0.  0.
        -24    2    3    3    0    0  0.29734996175E+01 -0.65202545295E+02 -0.13821982725E+02  0.10487747179E+03  0.80919857084E+02 0.  0.
          6    2    1    2  501    0  0.42892652155E+02  0.95188549744E+02 -0.10358571912E+03  0.22631440993E+03  0.17201038144E+03 0.  0.
         24    2    5    5    0    0  0.79459920558E+02  0.11343432568E+03 -0.83158730587E+02  0.18038592945E+03  0.80265084898E+02 0.  0.
          5    1    5    5  501    0 -0.36567268403E+02 -0.18245775941E+02 -0.20426988534E+02  0.45928480475E+02  0.47000000000E+01 0. -1.
        -13    1    6    6    0    0 -0.49374264856E+01 -0.95157463201E+01 -0.80742976642E+01  0.13420949709E+02  0.00000000000E+00 0.  1.
         14    1    6    6    0    0  0.84397347043E+02  0.12295007200E+03 -0.75084432923E+02  0.16696497975E+03  0.00000000000E+00 0. -1.
         -5    1    3    3    0  503 -0.45866151772E+02 -0.29986004449E+02 -0.13682790819E+03  0.14746806706E+03  0.47000000000E+01 0.  1.
         11    1    4    4    0    0 -0.22124750054E+02 -0.69158605260E+02  0.57011990380E+01  0.72834888047E+02  0.00000000000E+00 0. -1.
        -12    1    4    4    0    0  0.25098249671E+02  0.39560599647E+01 -0.19523181763E+02  0.32042583747E+02  0.00000000000E+00 0.  1.
</event>
<event>
12    1  0.8462562E-002  0.2005314E+03  0.7818608E-02  0.1150575E+00
         21   -1    0    0  503  502  0.00000000000E+00  0.00000000000E+00  0.22735291935E+03  0.22735291935E+03  0.00000000000E+00 0. -1.
         21   -1    0    0  501  503 -0.00000000000E+00 -0.00000000000E+00 -0.23322996259E+03  0.23322996259E+03  0.00000000000E+00 0. -1.
          6    2    1    2  501    0  0.14872786190E+02  0.90864820616E+02 -0.12126021190E+03  0.22922578846E+03  0.17135579276E+03 0.  0.
         24    2    3    3    0    0  0.50529964053E+02  0.26634241130E+02 -0.12059458610E+03  0.15560829916E+03  0.80051411611E+02 0.  0.
         -6    2    1    2    0  502 -0.14872786190E+02 -0.90864820616E+02  0.11538316866E+03  0.23135709348E+03  0.17814380062E+03 0.  0.
        -24    2    5    5    0    0  0.40605474415E+02 -0.62056783028E+02  0.12754974117E+03  0.16749900146E+03  0.79291425430E+02 0.  0.
          5    1    3    3  501    0 -0.35657177863E+02  0.64230579486E+02 -0.66562579921E+00  0.73617489307E+02  0.47000000000E+01 0. -1.
        -13    1    4    4    0    0  0.27326511178E+02  0.54272180909E+02 -0.88260825817E+02  0.10715494019E+03  0.00000000000E+00 0.  1.
         14    1    4    4    0    0  0.23203452876E+02 -0.27637939779E+02 -0.32333760285E+02  0.48453358963E+02  0.00000000000E+00 0. -1.
         -5    1    5    5    0  502 -0.55478260606E+02 -0.28808037587E+02 -0.12166572507E+02  0.63858092017E+02  0.47000000000E+01 0.  1.
         11    1    6    6    0    0  0.40817553172E+02 -0.21560151135E+02  0.11681211014E+03  0.12560247545E+03  0.00000000000E+00 0. -1.
        -12    1    6    6    0    0 -0.21207875648E+00 -0.40496631893E+02  0.10737631033E+02  0.41896526017E+02  0.00000000000E+00 0.  1.
</event>
<event>
12    1  0.8462562E-002  0.1755810E+03  0.7818608E-02  0.1172199E+00
         21   -1    0    0  501  502  0.00000000000E+00  0.00000000000E+00  0.33019588950E+03  0.33019588950E+03  0.00000000000E+00 0. -1.
         21   -1    0    0  502  503 -0.00000000000E+00 -0.00000000000E+00 -0.15973537401E+03  0.15973537401E+03  0.00000000000E+00 0. -1.
         -6    2    1    2    0  503 -0.37966995917E+02 -0.79547067336E+01 -0.72769796436E+02  0.19006345468E+03  0.17124223601E+03 0.  0.
        -24    2    3    3    0    0  0.33424474583E+02 -0.33797958973E+02 -0.66081157028E+02  0.11369956502E+03  0.79381195760E+02 0.  0.
          6    2    1    2  501    0  0.37966995917E+02  0.79547067336E+01  0.24323031193E+03  0.29986780884E+03  0.17104077876E+03 0.  0.
         24    2    5    5    0    0  0.58947454601E+02  0.41579868270E+02  0.88218404688E+02  0.13980028396E+03  0.80981137429E+02 0.  0.
          5    1    5    5  501    0 -0.20980458685E+02 -0.33625161536E+02  0.15501190724E+03  0.16006752488E+03  0.47000000000E+01 0. -1.
        -11    1    6    6    0    0  0.41391131954E+02  0.61231202050E+02  0.38040443812E+02  0.83123770814E+02  0.00000000000E+00 0.  1.
         12    1    6    6    0    0  0.17556322648E+02 -0.19651333780E+02  0.50177960877E+02  0.56676513143E+02  0.00000000000E+00 0. -1.
         -5    1    3    3    0  503 -0.71391470500E+02  0.25843252239E+02 -0.66886394087E+01  0.76363889657E+02  0.47000000000E+01 0.  1.
         13    1    4    4    0    0  0.56244767637E+02 -0.60398764640E+01 -0.39184965370E+02  0.68814355373E+02  0.00000000000E+00 0. -1.
        -14    1    4    4    0    0 -0.22820293054E+02 -0.27758082509E+02 -0.26896191657E+02  0.44885209650E+02  0.00000000000E+00 0.  1.
</event>
<event>
12    1  0.8462562E-002  0.1746486E+03  0.7818608E-02  0.1173586E+00
         21   -1    0    0  501  502  0.00000000000E+00  0.00000000000E+00  0.16692990876E+03  0.16692990876E+03  0.00000000000E+00 0.  1.
         21   -1    0    0  502  503 -0.00000000000E+00 -0.00000000000E+00 -0.20256971652E+03  0.20256971652E+03  0.00000000000E+00 0.  1.
         -6    2    1    2    0  503 -0.25511452750E+02 -0.22310360073E+02 -0.78667921294E+02  0.19154840809E+03  0.17132881956E+03 0.  0.
        -24    2    3    3    0    0  0.31988667103E+02  0.25990397234E+02 -0.11270701327E+02  0.90535031750E+02  0.79817214272E+02 0.  0.
          6    2    1    2  501    0  0.25511452750E+02  0.22310360073E+02  0.43028113534E+02  0.17795121720E+03  0.16931222862E+03 0.  0.
         24    2    5    5    0    0  0.18710975946E+02 -0.11071895678E+02 -0.35944063283E+02  0.91815764596E+02  0.81642338577E+02 0.  0.
          5    1    5    5  501    0  0.68004768040E+01  0.33382255751E+02  0.78972176816E+02  0.86135452602E+02  0.47000000000E+01 0. -1.
        -13    1    6    6    0    0  0.21566830632E+02  0.12435906502E+02  0.19436878222E+02  0.31584366213E+02  0.00000000000E+00 0.  1.
         14    1    6    6    0    0 -0.28558546864E+01 -0.23507802179E+02 -0.55380941504E+02  0.60231398383E+02  0.00000000000E+00 0. -1.
         -5    1    3    3    0  503 -0.57500119854E+02 -0.48300757307E+02 -0.67397219967E+02  0.10101337634E+03  0.47000000000E+01 0.  1.
         11    1    4    4    0    0  0.23421577054E+02 -0.23996072083E+02 -0.20044849009E+02  0.39066324614E+02  0.00000000000E+00 0. -1.
        -12    1    4    4    0    0  0.85670900500E+01  0.49986469317E+02  0.87741476813E+01  0.51468707136E+02  0.00000000000E+00 0.  1.
</event>
<event>
12    1  0.8462562E-002  0.2432340E+03  0.7818608E-02  0.1117683E+00
         21   -1    0    0  503  502  0.00000000000E+00  0.00000000000E+00  0.18774517295E+04  0.18774517295E+04  0.00000000000E+00 0.  1.
         21   -1    0    0  501  503 -0.00000000000E+00 -0.00000000000E+00 -0.39418020169E+02  0.39418020169E+02  0.00000000000E+00 0.  1.
          6    2    1    2  501    0 -0.14039880748E+03  0.99059553750E+02  0.13490285320E+04  0.13707810786E+04  0.17215738365E+03 0.  0.
         24    2    3    3    0    0 -0.14801504320E+03  0.46047289777E+02  0.11817576402E+04  0.11950826198E+04  0.87421632865E+02 0.  0.
         -6    2    1    2    0  502  0.14039880748E+03 -0.99059553750E+02  0.48900517731E+03  0.54608867114E+03  0.17193647947E+03 0.  0.
        -24    2    5    5    0    0  0.15839158757E+03 -0.69437468004E+02  0.46847717020E+03  0.50553380490E+03  0.78639124620E+02 0.  0.
          5    1    3    3  501    0  0.76162357273E+01  0.53012263973E+02  0.16727089181E+03  0.17569845880E+03  0.47000000000E+01 0. -1.
        -11    1    4    4    0    0 -0.73789187955E+02  0.68041278016E+02  0.69344224688E+03  0.70066868742E+03  0.00000000000E+00 0.  1.
         12    1    4    4    0    0 -0.74225855250E+02 -0.21993988239E+02  0.48831539334E+03  0.49441393233E+03  0.00000000000E+00 0. -1.
         -5    1    5    5    0  502 -0.17992780091E+02 -0.29622085745E+02  0.20528007111E+02  0.40554866234E+02  0.47000000000E+01 0.  1.
         13    1    6    6    0    0 -0.67146650260E+01 -0.64680517750E+01  0.78936641753E+01  0.12216069511E+02  0.00000000000E+00 0. -1.
        -14    1    6    6    0    0  0.16510625259E+03 -0.62969416229E+02  0.46058350603E+03  0.49331773539E+03  0.00000000000E+00 0.  1.
</event>
<event>
12    1  0.8462562E-002  0.2150654E+03  0.7818608E-02  0.1137840E+00
         21   -1    0    0  503  502  0.00000000000E+00  0.00000000000E+00  0.48173163350E+03  0.48173163350E+03  0.00000000000E+00 0.  1.
         21   -1    0    0  501  503 -0.00000000000E+00 -0.00000000000E+00 -0.16156840271E+03  0.16156840271E+03  0.00000000000E+00 0. -1.
          6    2    1    2  501    0 -0.31672096628E+01 -0.12830819102E+03 -0.45350971426E+02  0.21979503342E+03  0.17256918324E+03 0.  0.
         24    2    3    3    0    0  0.16286488480E+01 -0.11711320794E+03  0.28070454275E+02  0.14522209156E+03  0.81137842609E+02 0.  0.
         -6    2    1    2    0  502  0.31672096628E+01  0.12830819102E+03  0.36551420222E+03  0.42350500280E+03  0.17112227288E+03 0.  0.
        -24    2    5    5    0    0  0.51507492104E+01  0.31054510208E+02  0.28490451272E+03  0.29708417816E+03  0.78086584803E+02 0.  0.
          5    1    3    3  501    0 -0.47958585107E+01 -0.11194983079E+02 -0.73421425701E+02  0.74572941855E+02  0.47000000000E+01 0. -1.
        -13    1    4    4    0    0  0.41327353447E+02 -0.56788589885E+02  0.12265696517E+02  0.71297555323E+02  0.00000000000E+00 0.  1.
         14    1    4    4    0    0 -0.39698704599E+02 -0.60324618056E+02  0.15804757758E+02  0.73924536239E+02  0.00000000000E+00 0. -1.
         -5    1    5    5    0  502 -0.19835395476E+01  0.97253680812E+02  0.80609689497E+02  0.12642082464E+03  0.47000000000E+01 0.  1.
         11    1    6    6    0    0  0.16280566842E+02  0.79856112506E+01  0.94628013914E+01  0.20454130486E+02  0.00000000000E+00 0. -1.
        -12    1    6    6    0    0 -0.11129817632E+02  0.23068898957E+02  0.27544171133E+03  0.27663004768E+03  0.00000000000E+00 0.  1.
</event>
<event>
12    1  0.8462562E-002  0.1754908E+03  0.7818608E-02  0.1172356E+00
         21   -1    0    0  501  502  0.00000000000E+00  0.00000000000E+00  0.18847225078E+03  0.18847225078E+03  0.00000000000E+00 0.  1.
         21   -1    0    0  502  503 -0.00000000000E+00 -0.00000000000E+00 -0.19309381438E+03  0.19309381438E+03  0.00000000000E+00 0. -1.
         -6    2    1    2    0  503  0.28754879818E+02  0.18166522770E+02 -0.77662424774E+02  0.19148186097E+03  0.17168862862E+03 0.  0.
        -24    2    3    3    0    0 -0.23153641524E+02 -0.31460316029E+02 -0.75471026397E+02  0.11948040304E+03  0.83987191201E+02 0.  0.
          6    2    1    2  501    0 -0.28754879818E+02 -0.18166522770E+02  0.73040861171E+02  0.19008420419E+03  0.17216321215E+03 0.  0.
         24    2    5    5    0    0 -0.14003821825E+02  0.52520095199E+02  0.25024934923E+02  0.10324060428E+03  0.84130301191E+02 0.  0.
          5    1    5    5  501    0 -0.14751057993E+02 -0.70686617970E+02  0.48015926248E+02  0.86843599911E+02  0.47000000000E+01 0. -1.
        -11    1    6    6    0    0  0.24660009310E+02  0.25478170040E+02  0.40270958762E+02  0.53656344707E+02  0.00000000000E+00 0.  1.
         12    1    6    6    0    0 -0.38663831135E+02  0.27041925159E+02 -0.15246023839E+02  0.49584259571E+02  0.00000000000E+00 0. -1.
         -5    1    3    3    0  503  0.51908521343E+02  0.49626838799E+02 -0.21913983774E+01  0.72001457930E+02  0.47000000000E+01 0.  1.
         11    1    4    4    0    0  0.17131217024E+01  0.21176999605E+02 -0.52962393214E+02  0.57065008483E+02  0.00000000000E+00 0. -1.
        -12    1    4    4    0    0 -0.24866763227E+02 -0.52637315634E+02 -0.22508633182E+02  0.62415394561E+02  0.00000000000E+00 0.  1.
</event>
<event>
12    1  0.8462562E-002  0.1830375E+03  0.7818608E-02  0.1164992E+00
         21   -1    0    0  501  502  0.00000000000E+00  0.00000000000E+00  0.35557837425E+03  0.35557837425E+03  0.00000000000E+00 0. -1.
         21   -1    0    0  502  503 -0.00000000000E+00 -0.00000000000E+00 -0.17625519500E+03  0.17625519500E+03  0.00000000000E+00 0. -1.
         -6    2    1    2    0  503 -0.49232097834E+02 -0.35833586857E+02 -0.92037878926E+02  0.20451175978E+03  0.17218084483E+03 0.  0.
        -24    2    3    3    0    0  0.29173898301E+02  0.16021108936E+02 -0.37272955121E+02  0.95618708643E+02  0.81522217742E+02 0.  0.
          6    2    1    2  501    0  0.49232097834E+02  0.35833586857E+02  0.27136105818E+03  0.32732180947E+03  0.17261198583E+03 0.  0.
         24    2    5    5    0    0 -0.21082280839E+01  0.81608173563E+02  0.15984112647E+03  0.19621144747E+03  0.79280563766E+02 0.  0.
          5    1    5    5  501    0  0.51340325918E+02 -0.45774586707E+02  0.11151993171E+03  0.13111036200E+03  0.47000000000E+01 0. -1.
        -13    1    6    6    0    0  0.11514139792E+01  0.54662048866E+02  0.15998404306E+03  0.16906850497E+03  0.00000000000E+00 0.  1.
         14    1    6    6    0    0 -0.32596420631E+01  0.26946124697E+02 -0.14291658741E+00  0.27142942503E+02  0.00000000000E+00 0. -1.
         -5    1    3    3    0  503 -0.78405996135E+02 -0.51854695792E+02 -0.54764923806E+02  0.10889305113E+03  0.47000000000E+01 0.  1.
         13    1    4    4    0    0 -0.53571047958E+01  0.42728243106E+02 -0.26816636462E+02  0.50730004158E+02  0.00000000000E+00 0. -1.
        -14    1    4    4    0    0  0.34531003097E+02 -0.26707134170E+02 -0.10456318658E+02  0.44888704485E+02  0.00000000000E+00 0.  1.
</event>
<event>
12    1  0.8462562E-002  0.1825405E+03  0.7818608E-02  0.1165415E+00
         21   -1    0    0  501  502  0.00000000000E+00  0.00000000000E+00  0.17209047397E+03  0.17209047397E+03  0.00000000000E+00 0.  1.
         21   -1    0    0  502  503 -0.00000000000E+00 -0.00000000000E+00 -0.23174398833E+03  0.23174398833E+03  0.00000000000E+00 0. -1.
         -6    2    1    2    0  503 -0.27831673136E+02 -0.55249146139E+02  0.52309361718E+02  0.18969260761E+03  0.17152243550E+03 0.  0.
        -24    2    3    3    0    0 -0.35703733400E+02 -0.80869356835E+02 -0.12384698480E+02  0.11950873515E+03  0.79462869113E+02 0.  0.
          6    2    1    2  501    0  0.27831673136E+02  0.55249146139E+02 -0.11196287608E+03  0.21414185468E+03  0.17173810913E+03 0.  0.
         24    2    5    5    0    0 -0.30892643433E+02  0.78470890139E+02 -0.55082287147E+02  0.12902260805E+03  0.80627160511E+02 0.  0.
          5    1    5    5  501    0  0.58724316569E+02 -0.23221744000E+02 -0.56880588934E+02  0.85119246639E+02  0.47000000000E+01 0. -1.
        -13    1    6    6    0    0 -0.10084183934E+02  0.38811189631E+02  0.17485851633E+02  0.43746476584E+02  0.00000000000E+00 0.  1.
         14    1    6    6    0    0 -0.20808459499E+02  0.39659700508E+02 -0.72568138779E+02  0.85276131461E+02  0.00000000000E+00 0. -1.
         -5    1    3    3    0  503  0.78720602637E+01  0.25620210696E+02  0.64694060198E+02  0.70183872462E+02  0.47000000000E+01 0.  1.
         13    1    4    4    0    0 -0.12939499355E+02  0.15297809397E+02 -0.17111028484E+01  0.20109238894E+02  0.00000000000E+00 0. -1.
        -14    1    4    4    0    0 -0.22764234045E+02 -0.96167166232E+02 -0.10673595631E+02  0.99399496258E+02  0.00000000000E+00 0.  1.
</event>
<event>
12    1  0.8462562E-002  0.2165897E+03  0.7818608E-02  0.1137372E+00
         21   -1    0    0  501  502  0.00000000000E+00  0.00000000000E+00  0.97523527411E+02  0.97523527411E+02  0.00000000000E+00 0.  1.
         21   -1    0    0  502  503 -0.00000000000E+00 -0.00000000000E+00 -0.60094672548E+03  0.60094672548E+03  0.00000000000E+00 0.  1.
         -6    2    1    2    0  503  0.90917441530E+02 -0.95913791039E+02 -0.41224152378E+03  0.46346984177E+03  0.16551671763E+03 0.  0.
        -24    2    3    3    0    0  0.99727925558E+02 -0.17681208813E+02 -0.30283194358E+03  0.32859765119E+03  0.77530291091E+02 0.  0.
          6    2    1    2  501    0 -0.90917441530E+02  0.95913791039E+02 -0.91181674284E+02  0.23500041112E+03  0.17159737473E+03 0.  0.
         24    2    5    5    0    0 -0.10391783978E+03  0.11631688925E+03 -0.41821691628E+02  0.17982981515E+03  0.79127570270E+02 0.  0.
          5    1    5    5  501    0  0.13000398252E+02 -0.20403098214E+02 -0.49359982656E+02  0.55170595966E+02  0.47000000000E+01 0. -1.
        -13    1    6    6    0    0 -0.16844444991E+02 -0.44847751090E+01  0.12358199592E+02  0.21367583673E+02  0.00000000000E+00 0.  1.
         14    1    6    6    0    0 -0.87073394790E+02  0.12080166436E+03 -0.54179891220E+02  0.15846223148E+03  0.00000000000E+00 0. -1.
         -5    1    3    3    0  503 -0.88104840286E+01 -0.78232582226E+02 -0.10940958021E+03  0.13487219058E+03  0.47000000000E+01 0.  1.
         11    1    4    4    0    0  0.14959406471E+02  0.13200419002E+02 -0.10265852659E+02  0.22437081686E+02  0.00000000000E+00 0. -1.
        -12    1    4    4    0    0  0.84768519087E+02 -0.30881627815E+02 -0.29256609092E+03  0.30616056950E+03  0.00000000000E+00 0.  1.
</event>
<event>
12    1  0.8462562E-002  0.2627646E+03  0.7818608E-02  0.1105551E+00
         21   -1    0    0  501  502  0.00000000000E+00  0.00000000000E+00  0.96468509484E+02  0.96468509484E+02  0.00000000000E+00 0. -1.
         21   -1    0    0  502  503 -0.00000000000E+00 -0.00000000000E+00 -0.10290559292E+04  0.10290559292E+04  0.00000000000E+00 0. -1.
         -6    2    1    2    0  503 -0.14539890397E+03  0.13446612346E+03 -0.15547770809E+03  0.30531716564E+03  0.17269416403E+03 0.  0.
        -24    2    3    3    0    0 -0.28927782035E+02  0.90818793259E+02 -0.28110334898E+02  0.12722968874E+03  0.79450191853E+02 0.  0.
          6    2    1    2  501    0  0.14539890397E+03 -0.13446612346E+03 -0.77710971162E+03  0.82020727303E+03  0.17210022432E+03 0.  0.
         24    2    5    5    0    0  0.51223586520E+02 -0.56023545428E+02 -0.18135852513E+03  0.21196078134E+03  0.79208362734E+02 0.  0.
          5    1    5    5  501    0  0.94175317446E+02 -0.78442578032E+02 -0.59575118648E+03  0.60824649170E+03  0.47000000000E+01 0. -1.
        -11    1    6    6    0    0 -0.14241032122E+02 -0.29456187624E+02 -0.27817602143E+02  0.42945232265E+02  0.00000000000E+00 0.  1.
         12    1    6    6    0    0  0.65464618642E+02 -0.26567357804E+02 -0.15354092299E+03  0.16901554907E+03  0.00000000000E+00 0. -1.
         -5    1    3    3    0  503 -0.11647112193E+03  0.43647330200E+02 -0.12736737319E+03  0.17808747691E+03  0.47000000000E+01 0.  1.
         11    1    4    4    0    0 -0.22000275800E+02  0.49686892131E+02  0.24903008340E+02  0.59774235330E+02  0.00000000000E+00 0. -1.
        -12    1    4    4    0    0 -0.69275062348E+01  0.41131901128E+02 -0.53013343238E+02  0.67455453407E+02  0.00000000000E+00 0.  1.
</event>
<event>
12    1  0.8462562E-002  0.2662400E+03  0.7818608E-02  0.1103768E+00
         21   -1    0    0  501  502  0.00000000000E+00  0.00000000000E+00  0.31037622525E+03  0.31037622525E+03  0.00000000000E+00 0.  1.
         21   -1    0    0  502  503 -0.00000000000E+00 -0.00000000000E+00 -0.24152720454E+03  0.24152720454E+03  0.00000000000E+00 0.  1.
         -6    2    1    2    0  503 -0.20020580194E+03  0.21119009888E+02 -0.34220581084E+02  0.26843026617E+03  0.17422796536E+03 0.  0.
        -24    2    3    3    0    0 -0.19371973542E+03 -0.24906163133E+02 -0.55069172054E+02  0.21727228188E+03  0.77633613277E+02 0.  0.
          6    2    1    2  501    0  0.20020580194E+03 -0.21119009888E+02  0.10306960179E+03  0.28347316362E+03  0.17089562888E+03 0.  0.
         24    2    5    5    0    0  0.22130288052E+03 -0.22886924965E+01  0.89464216275E+02  0.25174204179E+03  0.79937516683E+02 0.  0.
          5    1    5    5  501    0 -0.21097078576E+02 -0.18830317392E+02  0.13605385513E+02  0.31731121828E+02  0.47000000000E+01 0. -1.
        -11    1    6    6    0    0  0.19622074363E+03 -0.27573823890E+02  0.85839117697E+02  0.21594270101E+03  0.00000000000E+00 0.  1.
         12    1    6    6    0    0  0.25082136889E+02  0.25285131393E+02  0.36250985777E+01  0.35799340779E+02  0.00000000000E+00 0. -1.
         -5    1    3    3    0  503 -0.64860665217E+01  0.46025173021E+02  0.20848590970E+02  0.51157984284E+02  0.47000000000E+01 0.  1.
         13    1    4    4    0    0 -0.30719875470E+02 -0.22340315157E+02  0.13647065321E+02  0.40361402628E+02  0.00000000000E+00 0. -1.
        -14    1    4    4    0    0 -0.16299985995E+03 -0.25658479760E+01 -0.68716237375E+02  0.17691087925E+03  0.00000000000E+00 0.  1.
</event>
<event>
12    1  0.8462562E-002  0.2199510E+03  0.7818608E-02  0.1134163E+00
         21   -1    0    0  501  502  0.00000000000E+00  0.00000000000E+00  0.61925281480E+03  0.61925281480E+03  0.00000000000E+00 0.  1.
         21   -1    0    0  502  503 -0.00000000000E+00 -0.00000000000E+00 -0.12676093174E+03  0.12676093174E+03  0.00000000000E+00 0. -1.
         -6    2    1    2    0  503  0.10916224039E+03  0.80987800771E+02  0.13652745849E+02  0.21907413782E+03  0.17126488780E+03 0.  0.
        -24    2    3    3    0    0  0.10630915292E+03  0.65298635011E+02 -0.48516983029E+02  0.15471999873E+03  0.77581135821E+02 0.  0.
          6    2    1    2  501    0 -0.10916224039E+03 -0.80987800771E+02  0.47883913721E+03  0.52693960872E+03  0.17292487765E+03 0.  0.
         24    2    5    5    0    0 -0.77299580395E+02 -0.11116259169E+03  0.44345182187E+03  0.47037018945E+03  0.79159648085E+02 0.  0.
          5    1    5    5  501    0 -0.31862659991E+02  0.30174790921E+02  0.35387315342E+02  0.56569419264E+02  0.47000000000E+01 0. -1.
        -13    1    6    6    0    0 -0.59621554481E+02 -0.22090007004E+02  0.14307821919E+03  0.15656971283E+03  0.00000000000E+00 0.  1.
         14    1    6    6    0    0 -0.17678025913E+02 -0.89072584688E+02  0.30037360268E+03  0.31380047663E+03  0.00000000000E+00 0. -1.
         -5    1    3    3    0  503  0.28530874683E+01  0.15689165760E+02  0.62169728878E+02  0.64354139098E+02  0.47000000000E+01 0.  1.
         11    1    4    4    0    0  0.64304473438E+02  0.49788547062E+02 -0.67883496144E+02  0.10593457307E+03  0.00000000000E+00 0. -1.
        -12    1    4    4    0    0  0.42004679479E+02  0.15510087949E+02  0.19366513114E+02  0.48785425657E+02  0.00000000000E+00 0.  1.
</event>
<event>
12    1  0.8462562E-002  0.1945468E+03  0.7818608E-02  0.1154426E+00
         21   -1    0    0  501  502  0.00000000000E+00  0.00000000000E+00  0.44228097923E+02  0.44228097923E+02  0.00000000000E+00 0. -1.
         21   -1    0    0  502  503 -0.00000000000E+00 -0.00000000000E+00 -0.98887987433E+03  0.98887987433E+03  0.00000000000E+00 0. -1.
         -6    2    1    2    0  503 -0.45335650011E+02 -0.83547295632E+02 -0.66188098926E+03  0.68987659976E+03  0.16972862806E+03 0.  0.
        -24    2    3    3    0    0 -0.45954740511E+02 -0.78054586060E+02 -0.24267685532E+03  0.27060968115E+03  0.78314665561E+02 0.  0.
          6    2    1    2  501    0  0.45335650011E+02  0.83547295632E+02 -0.28277078715E+03  0.34323137250E+03  0.16974388127E+03 0.  0.
         24    2    5    5    0    0  0.58750950206E+02  0.23080076187E+02 -0.75885913785E+02  0.12722281772E+03  0.80265866792E+02 0.  0.
          5    1    5    5  501    0 -0.13415300195E+02  0.60467219444E+02 -0.20688487337E+03  0.21600855477E+03  0.47000000000E+01 0. -1.
        -11    1    6    6    0    0 -0.28866093666E+01 -0.24236310718E+02 -0.18243311802E+02  0.30472113421E+02  0.00000000000E+00 0.  1.
         12    1    6    6    0    0  0.61637559573E+02  0.47316386905E+02 -0.57642601983E+02  0.96750704303E+02  0.00000000000E+00 0. -1.
         -5    1    3    3    0  503  0.61909049927E+00 -0.54927095714E+01 -0.41920413394E+03  0.41926691861E+03  0.47000000000E+01 0.  1.
         13    1    4    4    0    0 -0.31456670473E+02 -0.47992756727E+02 -0.22624496479E+03  0.23340867788E+03  0.00000000000E+00 0. -1.
        -14    1    4    4    0    0 -0.14498070038E+02 -0.30061829333E+02 -0.16431890525E+02  0.37201003264E+02  0.00000000000E+00 0.  1.
</event>
<event>
12    1  0.8462562E-002  0.2237850E+03  0.7818608E-02  0.1131105E+00
         21   -1    0    0  503  502  0.00000000000E+00  0.00000000000E+00  0.36613857479E+03  0.36613857479E+03  0.00000000000E+00 0. -1.
         21   -1    0    0  501  503 -0.00000000000E+00 -0.00000000000E+00 -0.13795203288E+03  0.13795203288E+03  0.00000000000E+00 0. -1.
          6    2    1    2  501    0  0.70075530727E+02 -0.12496673101E+03  0.90415552993E+02  0.24129680680E+03  0.17181941940E+03 0.  0.
         24    2    3    3    0    0  0.98726796710E+02 -0.11629973677E+03  0.11690359343E+03  0.20105108507E+03  0.59012536712E+02 0.  0.
         -6    2    1    2    0  502 -0.70075530727E+02  0.12496673101E+03  0.13777098891E+03  0.26279380087E+03  0.17190832592E+03 0.  0.
        -24    2    5    5    0    0  0.66375711743E+01  0.11398407469E+03  0.56738851784E+02  0.15057162841E+03  0.80100507776E+02 0.  0.
          5    1    3    3  501    0 -0.28651265982E+02 -0.86669942426E+01 -0.26488040438E+02  0.40245721733E+02  0.47000000000E+01 0. -1.
        -13    1    4    4    0    0  0.47025323956E+02 -0.68665831152E+02  0.97364254065E+02  0.12808659348E+03  0.00000000000E+00 0.  1.
         14    1    4    4    0    0  0.51701472754E+02 -0.47633905617E+02  0.19539339366E+02  0.72964491584E+02  0.00000000000E+00 0. -1.
         -5    1    5    5    0  502 -0.76713101902E+02  0.10982656319E+02  0.81032137128E+02  0.11222217246E+03  0.47000000000E+01 0.  1.
         13    1    6    6    0    0  0.68485098571E+01  0.55058758603E+02 -0.15250634133E+02  0.57540862242E+02  0.00000000000E+00 0. -1.
        -14    1    6    6    0    0 -0.21093868274E+00  0.58925316090E+02  0.71989485917E+02  0.93030766169E+02  0.00000000000E+00 0.  1.
</event>
<event>
12    1  0.8462562E-002  0.2210568E+03  0.7818608E-02  0.1133623E+00
         21   -1    0    0  503  502  0.00000000000E+00  0.00000000000E+00  0.14845067967E+04  0.14845067967E+04  0.00000000000E+00 0.  1.
         21   -1    0    0  501  503 -0.00000000000E+00 -0.00000000000E+00 -0.38614127127E+02  0.38614127127E+02  0.00000000000E+00 0.  1.
          6    2    1    2  501    0  0.51716746383E+00 -0.13482292384E+03  0.10298947299E+04  0.10533514418E+04  0.17518166886E+03 0.  0.
         24    2    3    3    0    0 -0.40744132896E+02 -0.29385084245E+02  0.65818793548E+03  0.66475439612E+03  0.78507841714E+02 0.  0.
         -6    2    1    2    0  502 -0.51716746383E+00  0.13482292384E+03  0.41599793969E+03  0.46976948200E+03  0.17161466177E+03 0.  0.
        -24    2    5    5    0    0  0.51162175995E+02  0.72076476904E+02  0.14973663605E+03  0.19133628901E+03  0.79849411641E+02 0.  0.
          5    1    3    3  501    0  0.41261300360E+02 -0.10543783960E+03  0.37170679438E+03  0.38859704568E+03  0.47000000000E+01 0. -1.
        -11    1    4    4    0    0  0.13321085218E+02 -0.36290247204E+02  0.28300378010E+03  0.28563188355E+03  0.00000000000E+00 0.  1.
         12    1    4    4    0    0 -0.54065218114E+02  0.69051629590E+01  0.37518415538E+03  0.37912251257E+03  0.00000000000E+00 0. -1.
         -5    1    5    5    0  502 -0.51679343459E+02  0.62746446938E+02  0.26626130364E+03  0.27843319299E+03  0.47000000000E+01 0.  1.
         13    1    6    6    0    0 -0.15224687415E+02  0.17207726189E+02  0.59590504619E+01  0.23736200831E+02  0.00000000000E+00 0. -1.
        -14    1    6    6    0    0  0.66386863410E+02  0.54868750714E+02  0.14377758559E+03  0.16760008817E+03  0.00000000000E+00 0.  1.
</event>
<event>
12    1  0.8462562E-002  0.2045985E+03  0.7818608E-02  0.1145917E+00
         21   -1    0    0  503  502  0.00000000000E+00  0.00000000000E+00  0.23834764256E+04  0.23834764256E+04  0.00000000000E+00 0. -1.
         21   -1    0    0  501  503 -0.00000000000E+00 -0.00000000000E+00 -0.20045250739E+02  0.20045250739E+02  0.00000000000E+00 0.  1.
          6    2    1    2  501    0  0.74318719473E+02  0.81065149545E+02  0.75878629622E+03  0.78588625349E+03  0.17252747478E+03 0.  0.
         24    2    3    3    0    0  0.62016805382E+02  0.85573312993E+02  0.31776810672E+03  0.34464845581E+03  0.81468474875E+02 0.  0.
         -6    2    1    2    0  502 -0.74318719473E+02 -0.81065149545E+02  0.16046448786E+04  0.16176354228E+04  0.17252345980E+03 0.  0.
        -24    2    5    5    0    0 -0.33522654509E+02 -0.47284087509E+02  0.14635988576E+04  0.14668987348E+04  0.79440096457E+02 0.  0.
          5    1    3    3  501    0  0.12301914091E+02 -0.45081634477E+01  0.44101818951E+03  0.44123779768E+03  0.47000000000E+01 0. -1.
        -11    1    4    4    0    0 -0.10139645051E+02  0.88297133757E+01  0.45542953821E+01  0.14195698168E+02  0.00000000000E+00 0.  1.
         12    1    4    4    0    0  0.72156450433E+02  0.76743599617E+02  0.31321381134E+03  0.33045275764E+03  0.00000000000E+00 0. -1.
         -5    1    5    5    0  502 -0.40796064963E+02 -0.33781062037E+02  0.14104602097E+03  0.15073668797E+03  0.47000000000E+01 0.  1.
         13    1    6    6    0    0 -0.40537600268E+01 -0.63122801041E+02  0.10765692158E+04  0.10784257960E+04  0.00000000000E+00 0. -1.
        -14    1    6    6    0    0 -0.29468894483E+02  0.15838713532E+02  0.38702964178E+03  0.38847293883E+03  0.00000000000E+00 0.  1.
</event>
<event>
12    1  0.8462562E-002  0.2334159E+03  0.7818608E-02  0.1124578E+00
         21   -1    0    0  501  502  0.00000000000E+00  0.00000000000E+00  0.10798427936E+03  0.10798427936E+03  0.00000000000E+00 0.  1.
         21   -1    0    0  502  503 -0.00000000000E+00 -0.00000000000E+00 -0.50384464214E+03  0.50384464214E+03  0.00000000000E+00 0. -1.
         -6    2    1    2    0  503 -0.12975861958E+03  0.84127210973E+02 -0.17246731737E+03  0.28873850705E+03  0.17236665255E+03 0.  0.
        -24    2    3    3    0    0  0.15223845048E+02  0.35518383560E+02 -0.49986111670E+02  0.92762822585E+02  0.67919134750E+02 0.  0.
          6    2    1    2  501    0  0.12975861958E+03 -0.84127210973E+02 -0.22339304542E+03  0.32309041445E+03  0.17483785685E+03 0.  0.
         24    2    5    5    0    0  0.65278820183E+02  0.21008021201E+02 -0.13649663643E+03  0.17214626097E+03  0.79374694272E+02 0.  0.
          5    1    5    5  501    0  0.64479799400E+02 -0.10513523217E+03 -0.86896408984E+02  0.15094415348E+03  0.47000000000E+01 0. -1.
        -13    1    6    6    0    0  0.42350525555E+02  0.21903390327E+01 -0.11868000171E+02  0.44036507899E+02  0.00000000000E+00 0.  1.
         14    1    6    6    0    0  0.22928294628E+02  0.18817682168E+02 -0.12462863626E+03  0.12810975308E+03  0.00000000000E+00 0. -1.
         -5    1    3    3    0  503 -0.14498246463E+03  0.48608827412E+02 -0.12248120570E+03  0.19597568447E+03  0.47000000000E+01 0.  1.
         11    1    4    4    0    0 -0.10479313158E+02 -0.11974972429E+02 -0.32181774631E+02  0.35901010951E+02  0.00000000000E+00 0. -1.
        -12    1    4    4    0    0  0.25703158206E+02  0.47493355989E+02 -0.17804337039E+02  0.56861811633E+02  0.00000000000E+00 0.  1.
</event>
<event>
12    1  0.8462562E-002  0.1946246E+03  0.7818608E-02  0.1156754E+00
         21   -1    0    0  503  502  0.00000000000E+00  0.00000000000E+00  0.13412082766E+03  0.13412082766E+03  0.00000000000E+00 0. -1.
         21   -1    0    0  501  503 -0.00000000000E+00 -0.00000000000E+00 -0.41067824545E+03  0.41067824545E+03  0.00000000000E+00 0. -1.
          6    2    1    2  501    0  0.24780479033E+02 -0.63170904407E+02 -0.30179127445E+03  0.35910544204E+03  0.18241192358E+03 0.  0.
         24    2    3    3    0    0  0.13874511446E+02 -0.11550523616E+03 -0.21534686845E+03  0.25735797162E+03  0.79529178004E+02 0.  0.
         -6    2    1    2    0  502 -0.24780479033E+02  0.63170904407E+02  0.25233856665E+02  0.18569363107E+03  0.17099924501E+03 0.  0.
        -24    2    5    5    0    0 -0.18824465713E+02 -0.18500542139E+02  0.31696975403E+02  0.10341628802E+03  0.94834591844E+02 0.  0.
          5    1    3    3  501    0  0.10905967587E+02  0.52334331754E+02 -0.86444405998E+02  0.10174747042E+03  0.47000000000E+01 0. -1.
        -11    1    4    4    0    0  0.64221664302E+01 -0.23651308870E+02 -0.15634316681E+01  0.24557543678E+02  0.00000000000E+00 0.  1.
         12    1    4    4    0    0  0.74523450154E+01 -0.91853927291E+02 -0.21378343679E+03  0.23280042794E+03  0.00000000000E+00 0. -1.
         -5    1    5    5    0  502 -0.59560133199E+01  0.81671446545E+02 -0.64631187381E+01  0.82277343050E+02  0.47000000000E+01 0.  1.
         13    1    6    6    0    0 -0.54670571135E+02 -0.41862166076E+01  0.22660576715E+01  0.54877415893E+02  0.00000000000E+00 0. -1.
        -14    1    6    6    0    0  0.35846105422E+02 -0.14314325531E+02  0.29430917732E+02  0.48538872132E+02  0.00000000000E+00 0.  1.
</event>
<event>
12    1  0.8462562E-002  0.2102188E+03  0.7818608E-02  0.1141464E+00
         21   -1    0    0  501  502  0.00000000000E+00  0.00000000000E+00  0.14837642926E+03  0.14837642926E+03  0.00000000000E+00 0. -1.
         21   -1    0    0  502  503 -0.00000000000E+00 -0.00000000000E+00 -0.30278569338E+03  0.30278569338E+03  0.00000000000E+00 0.  1.
         -6    2    1    2    0  503 -0.51887371687E+02  0.10838143303E+03 -0.10743262010E+03  0.23575844828E+03  0.17205070099E+03 0.  0.
        -24    2    3    3    0    0 -0.75311795115E+02  0.12140417791E+03 -0.12503841831E+03  0.20334935037E+03  0.72838941111E+02 0.  0.
          6    2    1    2  501    0  0.51887371687E+02 -0.10838143303E+03 -0.46976644021E+02  0.21540367435E+03  0.17249087940E+03 0.  0.
         24    2    5    5    0    0  0.11842012118E+02 -0.18313537204E+02  0.29953727934E+02  0.90278821465E+02  0.82325092724E+02 0.  0.
          5    1    5    5  501    0  0.40045359569E+02 -0.90067895823E+02 -0.76930371955E+02  0.12512485289E+03  0.47000000000E+01 0. -1.
        -11    1    6    6    0    0  0.41440021847E+02 -0.31877007395E+02  0.14600400888E+02  0.54282508391E+02  0.00000000000E+00 0.  1.
         12    1    6    6    0    0 -0.29598009729E+02  0.13563470191E+02  0.15353327046E+02  0.35996313074E+02  0.00000000000E+00 0. -1.
         -5    1    3    3    0  503  0.23424423428E+02 -0.13022744887E+02  0.17605798209E+02  0.32409097919E+02  0.47000000000E+01 0.  1.
         11    1    4    4    0    0 -0.50242853667E+02  0.65939077049E+02 -0.11483747151E+03  0.14163315675E+03  0.00000000000E+00 0. -1.
        -12    1    4    4    0    0 -0.25068941448E+02  0.55465100865E+02 -0.10200946799E+02  0.61716193620E+02  0.00000000000E+00 0.  1.
</event>
<event>
12    1  0.8462562E-002  0.1895621E+03  0.7818608E-02  0.1159098E+00
         21   -1    0    0  501  502  0.00000000000E+00  0.00000000000E+00  0.86154983867E+03  0.86154983867E+03  0.00000000000E+00 0.  1.
         21   -1    0    0  502  503 -0.00000000000E+00 -0.00000000000E+00 -0.51350593074E+02  0.51350593074E+02  0.00000000000E+00 0. -1.
         -6    2    1    2    0  503  0.81197987895E+02  0.51149290940E+01  0.20584487034E+03  0.27983191929E+03  0.17121482608E+03 0.  0.
        -24    2    3    3    0    0  0.83340190243E+02 -0.14792250780E+02  0.22399379557E+03  0.25240276822E+03  0.79809391435E+02 0.  0.
          6    2    1    2  501    0 -0.81197987895E+02 -0.51149290940E+01  0.60435437525E+03  0.63306851245E+03  0.17003603981E+03 0.  0.
         24    2    5    5    0    0 -0.10196162831E+03 -0.58317038851E+02  0.39107364516E+03  0.41222387685E+03  0.56505557580E+02 0.  0.
          5    1    5    5  501    0  0.20763640417E+02  0.53202109757E+02  0.21328073009E+03  0.22084463560E+03  0.47000000000E+01 0. -1.
        -13    1    6    6    0    0 -0.29770926496E+02 -0.39433374052E+02  0.97364129380E+02  0.10918366519E+03  0.00000000000E+00 0.  1.
         14    1    6    6    0    0 -0.72190701816E+02 -0.18883664799E+02  0.29370951578E+03  0.30304021167E+03  0.00000000000E+00 0. -1.
         -5    1    3    3    0  503 -0.21422023483E+01  0.19907179874E+02 -0.18148925226E+02  0.27429151067E+02  0.47000000000E+01 0.  1.
         13    1    4    4    0    0 -0.22800884816E+01 -0.25103681757E+02  0.24889730238E+02  0.35424459242E+02  0.00000000000E+00 0. -1.
        -14    1    4    4    0    0  0.85620278724E+02  0.10311430978E+02  0.19910406533E+03  0.21697830898E+03  0.00000000000E+00 0.  1.
</event>
<event>
12    1  0.8462562E-002  0.1848624E+03  0.7818608E-02  0.1163283E+00
         21   -1    0    0  501  502  0.00000000000E+00  0.00000000000E+00  0.27120979745E+03  0.27120979745E+03  0.00000000000E+00 0. -1.
         21   -1    0    0  502  503 -0.00000000000E+00 -0.00000000000E+00 -0.27684326713E+03  0.27684326713E+03  0.00000000000E+00 0. -1.
         -6    2    1    2    0  503 -0.49311839539E+02 -0.43838990246E+02 -0.20529045780E+03  0.27625761134E+03  0.17268636650E+03 0.  0.
        -24    2    3    3    0    0 -0.99760021968E+02 -0.31915157369E+02 -0.16255010013E+03  0.20890759223E+03  0.79051930941E+02 0.  0.
          6    2    1    2  501    0  0.49311839539E+02  0.43838990246E+02  0.19965698813E+03  0.27179545323E+03  0.17221016493E+03 0.  0.
         24    2    5    5    0    0  0.12793118965E+02  0.93542850760E+02  0.13815003375E+03  0.18456423096E+03  0.77875507724E+02 0.  0.
          5    1    5    5  501    0  0.36518720574E+02 -0.49703860514E+02  0.61506954380E+02  0.87231222274E+02  0.47000000000E+01 0. -1.
        -11    1    6    6    0    0  0.24267431839E+02  0.42520313004E+02  0.11933237524E+03  0.12898488689E+03  0.00000000000E+00 0.  1.
         12    1    6    6    0    0 -0.11474312874E+02  0.51022537756E+02  0.18817658506E+02  0.55579344064E+02  0.00000000000E+00 0. -1.
         -5    1    3    3    0  503  0.50448182429E+02 -0.11923832877E+02 -0.42740357672E+02  0.67350019115E+02  0.47000000000E+01 0.  1.
         11    1    4    4    0    0 -0.95171006266E+02 -0.52268002537E+02 -0.12210757846E+03  0.16340050563E+03  0.00000000000E+00 0. -1.
        -12    1    4    4    0    0 -0.45890157018E+01  0.20352845168E+02 -0.40442521673E+02  0.45507086600E+02  0.00000000000E+00 0.  1.
</event>
<event>
12    1  0.8462562E-002  0.1776764E+03  0.7818608E-02  0.1170514E+00
         21   -1    0    0  501  502  0.00000000000E+00  0.00000000000E+00  0.12104134133E+03  0.12104134133E+03  0.00000000000E+00 0. -1.
         21   -1    0    0  502  503 -0.00000000000E+00 -0.00000000000E+00 -0.55645493458E+03  0.55645493458E+03  0.00000000000E+00 0. -1.
         -6    2    1    2    0  503  0.23891756960E+02  0.35645469374E+02 -0.46622286756E+03  0.49893150816E+03  0.17241656551E+03 0.  0.
        -24    2    3    3    0    0 -0.10209930507E+02 -0.14499723244E+02 -0.40193432596E+03  0.41042968891E+03  0.81159364778E+02 0.  0.
          6    2    1    2  501    0 -0.23891756960E+02 -0.35645469374E+02  0.30809274301E+02  0.17856476775E+03  0.17057183051E+03 0.  0.
         24    2    5    5    0    0 -0.21542608876E+01 -0.25290718865E+02 -0.48186602268E+02  0.95847308239E+02  0.78870124622E+02 0.  0.
          5    1    5    5  501    0 -0.21737496072E+02 -0.10354750509E+02  0.78995876569E+02  0.82717459515E+02  0.47000000000E+01 0. -1.
        -11    1    6    6    0    0 -0.24621236069E+02  0.18171094664E+02 -0.58657605144E+01  0.31157681128E+02  0.00000000000E+00 0.  1.
         12    1    6    6    0    0  0.22466975182E+02 -0.43461813529E+02 -0.42320841753E+02  0.64689627111E+02  0.00000000000E+00 0. -1.
         -5    1    3    3    0  503  0.34101687466E+02  0.50145192618E+02 -0.64288541593E+02  0.88501819252E+02  0.47000000000E+01 0.  1.
         11    1    4    4    0    0  0.93907260428E+00  0.25866129642E+02 -0.28590976132E+03  0.28707896150E+03  0.00000000000E+00 0. -1.
        -12    1    4    4    0    0 -0.11149003111E+02 -0.40365852886E+02 -0.11602456465E+03  0.12335072741E+03  0.00000000000E+00 0.  1.
</event>
<event>
12    1  0.8462562E-002  0.3429563E+03  0.7818608E-02  0.1065582E+00
         21   -1    0    0  501  502  0.00000000000E+00  0.00000000000E+00  0.52214440912E+03  0.52214440912E+03  0.00000000000E+00 0.  1.
         21   -1    0    0  502  503 -0.00000000000E+00 -0.00000000000E+00 -0.40047281835E+03  0.40047281835E+03  0.00000000000E+00 0. -1.
         -6    2    1    2    0  503 -0.63061216280E+02  0.28977348993E+03 -0.24452195268E+03  0.42090342573E+03  0.17153225933E+03 0.  0.
        -24    2    3    3    0    0 -0.71712816295E+02  0.28975889385E+03 -0.18506160374E+03  0.36063342082E+03  0.81888475697E+02 0.  0.
          6    2    1    2  501    0  0.63061216280E+02 -0.28977348993E+03  0.36619354344E+03  0.50171380173E+03  0.17226037016E+03 0.  0.
         24    2    5    5    0    0  0.19209918556E+02 -0.19734757777E+03  0.14620622754E+03  0.25905767734E+03  0.80121980701E+02 0.  0.
          5    1    5    5  501    0  0.43851297725E+02 -0.92425912154E+02  0.21998731590E+03  0.24265612439E+03  0.47000000000E+01 0. -1.
        -11    1    6    6    0    0 -0.34106710397E+01 -0.23402875200E+02  0.58173386895E+02  0.62797055563E+02  0.00000000000E+00 0.  1.
         12    1    6    6    0    0  0.22620589596E+02 -0.17394470257E+03  0.88032840649E+02  0.19626062177E+03  0.00000000000E+00 0. -1.
         -5    1    3    3    0  503  0.86516000144E+01  0.14596078645E-01 -0.59460348940E+02  0.60270004911E+02  0.47000000000E+01 0.  1.
         13    1    4    4    0    0  0.43102281051E+01  0.69845871396E+02 -0.77106431990E+02  0.10412696899E+03  0.00000000000E+00 0. -1.
        -14    1    4    4    0    0 -0.76023044400E+02  0.21991302245E+03 -0.10795517175E+03  0.25650645183E+03  0.00000000000E+00 0.  1.
</event>
<event>
12    1  0.8462562E-002  0.1872428E+03  0.7818608E-02  0.1160978E+00
         21   -1    0    0  503  502  0.00000000000E+00  0.00000000000E+00  0.15950193858E+03  0.15950193858E+03  0.00000000000E+00 0. -1.
         21   -1    0    0  501  503 -0.00000000000E+00 -0.00000000000E+00 -0.22157398072E+03  0.22157398072E+03  0.00000000000E+00 0. -1.
          6    2    1    2  501    0 -0.47464278391E+02 -0.57571737282E+02 -0.48207015401E+02  0.19334884644E+03  0.17173379816E+03 0.  0.
         24    2    3    3    0    0  0.23760468026E+02 -0.59550843026E+02 -0.62258433949E+02  0.12057238235E+03  0.80936543310E+02 0.  0.
         -6    2    1    2    0  502  0.47464278391E+02  0.57571737282E+02 -0.13865026741E+02  0.18772707286E+03  0.17170280213E+03 0.  0.
        -24    2    5    5    0    0 -0.11532655760E+02  0.81236399047E+02 -0.37100849936E+02  0.11988425500E+03  0.79141688452E+02 0.  0.
          5    1    3    3  501    0 -0.71224746416E+02  0.19791057439E+01  0.14051418549E+02  0.72776464086E+02  0.47000000000E+01 0. -1.
        -13    1    4    4    0    0  0.31074552745E+02  0.99226232549E+01 -0.26873619250E+02  0.42264378526E+02  0.00000000000E+00 0.  1.
         14    1    4    4    0    0 -0.73140847197E+01 -0.69473466281E+02 -0.35384814699E+02  0.78308003829E+02  0.00000000000E+00 0. -1.
         -5    1    5    5    0  502  0.58996934151E+02 -0.23664661765E+02  0.23235823195E+02  0.67842817860E+02  0.47000000000E+01 0.  1.
         11    1    6    6    0    0 -0.18445978320E+02  0.66349019276E+02  0.10382666483E+02  0.69643709252E+02  0.00000000000E+00 0. -1.
        -12    1    6    6    0    0  0.69133225601E+01  0.14887379772E+02 -0.47483516419E+02  0.50240545745E+02  0.00000000000E+00 0.  1.
</event>
<event>
12    1  0.8462562E-002  0.1812010E+03  0.7818608E-02  0.1167379E+00
         21   -1    0    0  503  502  0.00000000000E+00  0.00000000000E+00  0.41726696592E+03  0.41726696592E+03  0.00000000000E+00 0. -1.
         21   -1    0    0  501  503 -0.00000000000E+00 -0.00000000000E+00 -0.77380369160E+02  0.77380369160E+02  0.00000000000E+00 0. -1.
          6    2    1    2  501    0 -0.23586929680E+02 -0.27455817376E+02  0.16977054389E+03  0.24610503426E+03  0.17445768874E+03 0.  0.
         24    2    3    3    0    0 -0.75882894733E+02 -0.37525387749E+02  0.82527113269E+02  0.14378313830E+03  0.81832133024E+02 0.  0.
         -6    2    1    2    0  502  0.23586929680E+02  0.27455817376E+02  0.17011605287E+03  0.24854230081E+03  0.17754897547E+03 0.  0.
        -24    2    5    5    0    0 -0.57534868014E+02  0.33930117756E+02  0.72219533422E+02  0.12115124482E+03  0.70713854268E+02 0.  0.
          5    1    3    3  501    0  0.52295965053E+02  0.10069570373E+02  0.87243430620E+02  0.10232189597E+03  0.47000000000E+01 0. -1.
        -13    1    4    4    0    0 -0.69824015084E+02 -0.61470277013E+02  0.64293880433E+02  0.11308267374E+03  0.00000000000E+00 0.  1.
         14    1    4    4    0    0 -0.60588796493E+01  0.23944889265E+02  0.18233232836E+02  0.30700464559E+02  0.00000000000E+00 0. -1.
         -5    1    5    5    0  502  0.81121797695E+02 -0.64743003801E+01  0.97896519446E+02  0.12739105599E+03  0.47000000000E+01 0.  1.
         13    1    6    6    0    0 -0.55893803175E+01  0.21358655828E+02 -0.90682983454E+01  0.23867705922E+02  0.00000000000E+00 0. -1.
        -14    1    6    6    0    0 -0.51945487697E+02  0.12571461928E+02  0.81287831767E+02  0.97283538898E+02  0.00000000000E+00 0.  1.
</event>
<event>
12    1  0.8462562E-002  0.1865133E+03  0.7818608E-02  0.1162353E+00
         21   -1    0    0  503  502  0.00000000000E+00  0.00000000000E+00  0.10181969064E+03  0.10181969064E+03  0.00000000000E+00 0. -1.
         21   -1    0    0  501  503 -0.00000000000E+00 -0.00000000000E+00 -0.39514758074E+03  0.39514758074E+03  0.00000000000E+00 0.  1.
          6    2    1    2  501    0  0.76338370466E+01  0.69084602718E+02 -0.24168375514E+03  0.30343609412E+03  0.16979831541E+03 0.  0.
         24    2    3    3    0    0  0.24856096357E+01  0.95152467304E+02 -0.24533732572E+03  0.27620603009E+03  0.83899924762E+02 0.  0.
         -6    2    1    2    0  502 -0.76338370466E+01 -0.69084602718E+02 -0.51644134958E+02  0.19353117726E+03  0.17307871647E+03 0.  0.
        -24    2    5    5    0    0  0.48863144738E+02 -0.82112271921E+02 -0.54685777422E+02  0.13528196521E+03  0.78617070314E+02 0.  0.
          5    1    3    3  501    0  0.51482274108E+01 -0.26067864585E+02  0.36535705760E+01  0.27230064037E+02  0.47000000000E+01 0. -1.
        -13    1    4    4    0    0 -0.13994016407E+02  0.90740867386E+02 -0.24198825381E+03  0.25882050245E+03  0.00000000000E+00 0.  1.
         14    1    4    4    0    0  0.16479626043E+02  0.44115999177E+01 -0.33490719104E+01  0.17385527631E+02  0.00000000000E+00 0. -1.
         -5    1    5    5    0  502 -0.56496981784E+02  0.13027669203E+02  0.30416424640E+01  0.58249212050E+02  0.47000000000E+01 0.  1.
         11    1    6    6    0    0  0.16176084162E+02 -0.48061572646E+02  0.13385147474E+02  0.52447522696E+02  0.00000000000E+00 0. -1.
        -12    1    6    6    0    0  0.32687060576E+02 -0.34050699276E+02 -0.68070924896E+02  0.82834442513E+02  0.00000000000E+00 0.  1.
</event>
<event>
12    1  0.8462562E-002  0.2649319E+03  0.7818608E-02  0.1104331E+00
         21   -1    0    0  503  502  0.00000000000E+00  0.00000000000E+00  0.28987531785E+03  0.28987531785E+03  0.00000000000E+00 0. -1.
         21   -1    0    0  501  503 -0.00000000000E+00 -0.00000000000E+00 -0.43150040395E+03  0.43150040395E+03  0.00000000000E+00 0.  1.
          6    2    1    2  501    0 -0.88187688365E+02 -0.18085791681E+03 -0.31014830490E+03  0.40738690261E+03  0.17112995919E+03 0.  0.
         24    2    3    3    0    0 -0.56563238588E+02 -0.14038777114E+03 -0.31240574012E+03  0.35576205852E+03  0.77853513557E+02 0.  0.
         -6    2    1    2    0  502  0.88187688365E+02  0.18085791681E+03  0.16852321881E+03  0.31398881919E+03  0.17234340385E+03 0.  0.
        -24    2    5    5    0    0  0.11479404184E+03  0.12786261796E+03  0.17104613184E+03  0.25445013567E+03  0.77211211701E+02 0.  0.
          5    1    3    3  501    0 -0.31624449778E+02 -0.40470145663E+02  0.22574352214E+01  0.51624844092E+02  0.47000000000E+01 0. -1.
        -11    1    4    4    0    0 -0.30722185757E+01 -0.41079796458E+02 -0.28013488396E+02  0.49817102847E+02  0.00000000000E+00 0.  1.
         12    1    4    4    0    0 -0.53491020012E+02 -0.99307974685E+02 -0.28439225173E+03  0.30594495567E+03  0.00000000000E+00 0. -1.
         -5    1    5    5    0  502 -0.26606353475E+02  0.52995298850E+02 -0.25229130347E+01  0.59538683523E+02  0.47000000000E+01 0.  1.
         13    1    6    6    0    0  0.49002867271E+02  0.86198871749E+02  0.51377687057E+02  0.11167449673E+03  0.00000000000E+00 0. -1.
        -14    1    6    6    0    0  0.65791174569E+02  0.41663746207E+02  0.11966844478E+03  0.14277563894E+03  0.00000000000E+00 0.  1.
</event>
<event>
12    1  0.8462562E-002  0.2096726E+03  0.7818608E-02  0.1141968E+00
         21   -1    0    0  501  502  0.00000000000E+00  0.00000000000E+00  0.40395502199E+03  0.40395502199E+03  0.00000000000E+00 0.  1.
         21   -1    0    0  502  503 -0.00000000000E+00 -0.00000000000E+00 -0.19170475010E+03  0.19170475010E+03  0.00000000000E+00 0.  1.
         -6    2    1    2    0  503 -0.10358052885E+03  0.57920260228E+02 -0.90239132136E+02  0.22760757446E+03  0.17198379133E+03 0.  0.
        -24    2    3    3    0    0 -0.95445062210E+02  0.40725903175E+02  0.46336638907E+01  0.13073255622E+03  0.79379917645E+02 0.  0.
          6    2    1    2  501    0  0.10358052885E+03 -0.57920260228E+02  0.30248940403E+03  0.36805219764E+03  0.17285513628E+03 0.  0.
         24    2    5    5    0    0  0.11388754515E+03 -0.90750511784E+02  0.28273098034E+03  0.32809540461E+03  0.80645886162E+02 0.  0.
          5    1    5    5  501    0 -0.10307016305E+02  0.32830251555E+02  0.19758423689E+02  0.39956793027E+02  0.47000000000E+01 0. -1.
        -13    1    6    6    0    0  0.75041146049E+02 -0.98966982025E+02  0.23669620063E+03  0.26730269082E+03  0.00000000000E+00 0.  1.
         14    1    6    6    0    0  0.38846399102E+02  0.82164702416E+01  0.46034779713E+02  0.60792713787E+02  0.00000000000E+00 0. -1.
         -5    1    3    3    0  503 -0.81354666353E+01  0.17194357054E+02 -0.94872796027E+02  0.96875018234E+02  0.47000000000E+01 0.  1.
         13    1    4    4    0    0 -0.24740655146E+02  0.45456768757E+02 -0.20327393354E+02  0.55602344946E+02  0.00000000000E+00 0. -1.
        -14    1    4    4    0    0 -0.70704407065E+02 -0.47308655826E+01  0.24961057245E+02  0.75130211275E+02  0.00000000000E+00 0.  1.
</event>
<event>
12    1  0.8462562E-002  0.2055672E+03  0.7818608E-02  0.1145171E+00
         21   -1    0    0  501  502  0.00000000000E+00  0.00000000000E+00  0.54129532091E+03  0.54129532091E+03  0.00000000000E+00 0. -1.
         21   -1    0    0  502  503 -0.00000000000E+00 -0.00000000000E+00 -0.15417064818E+03  0.15417064818E+03  0.00000000000E+00 0.  1.
         -6    2    1    2    0  503 -0.93291074301E+02  0.61547337882E+02 -0.50833386861E+02  0.21175911965E+03  0.17252997476E+03 0.  0.
        -24    2    3    3    0    0  0.47371827051E+01  0.68829131672E+02 -0.13299825170E+02  0.10643380481E+03  0.79946101784E+02 0.  0.
          6    2    1    2  501    0  0.93291074301E+02 -0.61547337882E+02  0.43795805960E+03  0.48370684944E+03  0.17226071776E+03 0.  0.
         24    2    5    5    0    0  0.12940576345E+03 -0.38464125054E+02  0.29259796365E+03  0.33208642542E+03  0.80265092574E+02 0.  0.
          5    1    5    5  501    0 -0.36114689145E+02 -0.23083212828E+02  0.14536009595E+03  0.15162042402E+03  0.47000000000E+01 0. -1.
        -11    1    6    6    0    0  0.82525040892E+02 -0.63016661540E+02  0.18384621646E+03  0.21114192694E+03  0.00000000000E+00 0.  1.
         12    1    6    6    0    0  0.46880722555E+02  0.24552536485E+02  0.10875174719E+03  0.12094449848E+03  0.00000000000E+00 0. -1.
         -5    1    3    3    0  503 -0.98028257006E+02 -0.72817937898E+01 -0.37533561691E+02  0.10532531484E+03  0.47000000000E+01 0.  1.
         13    1    4    4    0    0 -0.36713965684E+02  0.43687887529E+02 -0.54986467738E+01  0.57330462316E+02  0.00000000000E+00 0. -1.
        -14    1    4    4    0    0  0.41451148390E+02  0.25141244143E+02 -0.78011783958E+01  0.49103342496E+02  0.00000000000E+00 0.  1.
</event>
<event>
12    1  0.8462562E-002  0.2656198E+03  0.7818608E-02  0.1103815E+00
         21   -1    0    0  501  502  0.00000000000E+00  0.00000000000E+00  0.88603382931E+02  0.88603382931E+02  0.00000000000E+00 0.  1.
         21   -1    0    0  502  503 -0.00000000000E+00 -0.00000000000E+00 -0.80326217874E+03  0.80326217874E+03  0.00000000000E+00 0.  1.
         -6    2    1    2    0  503 -0.68399082776E+02  0.19083504247E+03 -0.39897366953E+03  0.47929924826E+03  0.17161390517E+03 0.  0.
        -24    2    3    3    0    0 -0.26464976486E+02  0.17617695269E+03 -0.38622308459E+03  0.43284500968E+03  0.80298304423E+02 0.  0.
          6    2    1    2  501    0  0.68399082776E+02 -0.19083504247E+03 -0.31568512628E+03  0.41256631341E+03  0.17163162892E+03 0.  0.
         24    2    5    5    0    0  0.10932018585E+03 -0.14247840980E+03 -0.27209562827E+03  0.33552713547E+03  0.79318518769E+02 0.  0.
          5    1    5    5  501    0 -0.40921103076E+02 -0.48356632676E+02 -0.43589498007E+02  0.77039177937E+02  0.47000000000E+01 0. -1.
        -13    1    6    6    0    0  0.48355022680E+02 -0.12316746637E+03 -0.17978247760E+03  0.22322672833E+03  0.00000000000E+00 0.  1.
         14    1    6    6    0    0  0.60965163171E+02 -0.19310943430E+02 -0.92313150669E+02  0.11230040714E+03  0.00000000000E+00 0. -1.
         -5    1    3    3    0  503 -0.41934106290E+02  0.14658089781E+02 -0.12750584940E+02  0.46454238586E+02  0.47000000000E+01 0.  1.
         13    1    4    4    0    0  0.81192808493E+01 -0.37820082263E+01 -0.41345335332E+02  0.42304409480E+02  0.00000000000E+00 0. -1.
        -14    1    4    4    0    0 -0.34584257335E+02  0.17995896092E+03 -0.34487774926E+03  0.39054060020E+03  0.00000000000E+00 0.  1.
</event>
<event>
12    1  0.8462562E-002  0.2045784E+03  0.7818608E-02  0.1146129E+00
         21   -1    0    0  501  502  0.00000000000E+00  0.00000000000E+00  0.88917664579E+02  0.88917664579E+02  0.00000000000E+00 0. -1.
         21   -1    0    0  502  503 -0.00000000000E+00 -0.00000000000E+00 -0.12053281745E+04  0.12053281745E+04  0.00000000000E+00 0. -1.
         -6    2    1    2    0  503 -0.10287391197E+03 -0.33352308270E+02 -0.10646773812E+04  0.10841541569E+04  0.17365739697E+03 0.  0.
        -24    2    3    3    0    0 -0.14003338682E+03 -0.13004694547E+02 -0.81791621606E+03  0.83373847327E+03  0.79714702644E+02 0.  0.
          6    2    1    2  501    0  0.10287391197E+03  0.33352308270E+02 -0.51733128685E+02  0.21009168220E+03  0.17253051932E+03 0.  0.
         24    2    5    5    0    0  0.18591803010E+02 -0.35695392333E+02  0.89338929553E+00  0.89002049104E+02  0.79377266439E+02 0.  0.
          5    1    5    5  501    0  0.84282108961E+02  0.69047700603E+02 -0.52626517981E+02  0.12108963310E+03  0.47000000000E+01 0. -1.
        -11    1    6    6    0    0 -0.20665948317E+02 -0.37281706400E+02 -0.16921295607E+02  0.45862155389E+02  0.00000000000E+00 0.  1.
         12    1    6    6    0    0  0.39257751327E+02  0.15863140670E+01  0.17814684903E+02  0.43139893715E+02  0.00000000000E+00 0. -1.
         -5    1    3    3    0  503  0.37159474845E+02 -0.20347613723E+02 -0.24676116518E+03  0.25041568360E+03  0.47000000000E+01 0.  1.
         11    1    4    4    0    0 -0.49129580692E+02 -0.33285070856E+02 -0.46369855947E+03  0.46748044418E+03  0.00000000000E+00 0. -1.
        -12    1    4    4    0    0 -0.90903806125E+02  0.20280376308E+02 -0.35421765659E+03  0.36625802909E+03  0.00000000000E+00 0.  1.
</event>
<event>
12    1  0.8462562E-002  0.2134290E+03  0.7818608E-02  0.1140051E+00
         21   -1    0    0  503  502  0.00000000000E+00  0.00000000000E+00  0.20486716459E+04  0.20486716459E+04  0.00000000000E+00 0.  1.
         21   -1    0    0  501  503 -0.00000000000E+00 -0.00000000000E+00 -0.41204671368E+02  0.41204671368E+02  0.00000000000E+00 0. -1.
          6    2    1    2  501    0 -0.40220519414E+02 -0.11091274680E+03  0.27589265699E+03  0.34519825213E+03  0.17066267171E+03 0.  0.
         24    2    3    3    0    0 -0.12851739936E+00 -0.11038686063E+03  0.27158386172E+03  0.30459897999E+03  0.82688990495E+02 0.  0.
         -6    2    1    2    0  502  0.40220519414E+02  0.11091274680E+03  0.17315743175E+04  0.17446780651E+04  0.17785557678E+03 0.  0.
        -24    2    5    5    0    0 -0.84559937467E+01  0.58775601943E+02  0.14502437180E+04  0.14544080511E+04  0.92573550696E+02 0.  0.
          5    1    3    3  501    0 -0.40092002014E+02 -0.52588616415E+00  0.43087952666E+01  0.40599272141E+02  0.47000000000E+01 0. -1.
        -11    1    4    4    0    0  0.27364247499E+01 -0.11427064360E+02  0.13710991046E+03  0.13761247533E+03  0.00000000000E+00 0.  1.
         12    1    4    4    0    0 -0.28649421493E+01 -0.98959796272E+02  0.13447395126E+03  0.16698650466E+03  0.00000000000E+00 0. -1.
         -5    1    5    5    0  502  0.48676513160E+02  0.52137144853E+02  0.28133059953E+03  0.29027001402E+03  0.47000000000E+01 0.  1.
         13    1    6    6    0    0 -0.28523095612E+00  0.15498662581E+02  0.32781301342E+02  0.36261599747E+02  0.00000000000E+00 0. -1.
        -14    1    6    6    0    0 -0.81707627906E+01  0.43276939362E+02  0.14174624166E+04  0.14181464513E+04  0.00000000000E+00 0.  1.
</event>
<event>
12    1  0.8462562E-002  0.2098171E+03  0.7818608E-02  0.1141854E+00
         21   -1    0    0  503  502  0.00000000000E+00  0.00000000000E+00  0.15516441484E+03  0.15516441484E+03  0.00000000000E+00 0.  1.
         21   -1    0    0  501  503 -0.00000000000E+00 -0.00000000000E+00 -0.31990319721E+03  0.31990319721E+03  0.00000000000E+00 0.  1.
          6    2    1    2  501    0  0.52465255744E+02 -0.10749549013E+03 -0.16344477177E+03  0.26596501725E+03  0.17238130270E+03 0.  0.
         24    2    3    3    0    0 -0.35347001702E+01 -0.40339831082E+02 -0.11119738262E+02  0.90263897622E+02  0.79900729395E+02 0.  0.
         -6    2    1    2    0  502 -0.52465255744E+02  0.10749549013E+03 -0.12940105991E+01  0.20910259481E+03  0.17150608512E+03 0.  0.
        -24    2    5    5    0    0 -0.73621874742E+02  0.23528068760E+02  0.29667687959E+02  0.11702193909E+03  0.82705574540E+02 0.  0.
          5    1    3    3  501    0  0.55999955914E+02 -0.67155659048E+02 -0.15232503351E+03  0.17570111962E+03  0.47000000000E+01 0. -1.
        -11    1    4    4    0    0 -0.10698607680E+02 -0.33124703559E+02 -0.43852228333E+02  0.55988607072E+02  0.00000000000E+00 0.  1.
         12    1    4    4    0    0  0.71639075101E+01 -0.72151275236E+01  0.32732490071E+02  0.34275290549E+02  0.00000000000E+00 0. -1.
         -5    1    5    5    0  502  0.21156618998E+02  0.83967421370E+02 -0.30961698559E+02  0.92080655713E+02  0.47000000000E+01 0.  1.
         13    1    6    6    0    0 -0.28043673949E+02 -0.20175984312E+02 -0.16999130971E+02  0.38503096567E+02  0.00000000000E+00 0. -1.
        -14    1    6    6    0    0 -0.45578200793E+02  0.43704053072E+02  0.46666818930E+02  0.78518842525E+02  0.00000000000E+00 0.  1.
</event>
<event>
12    1  0.8462562E-002  0.2295262E+03  0.7818608E-02  0.1127147E+00
         21   -1    0    0  501  502  0.00000000000E+00  0.00000000000E+00  0.61866332750E+03  0.61866332750E+03  0.00000000000E+00 0. -1.
         21   -1    0    0  502  503 -0.00000000000E+00 -0.00000000000E+00 -0.21378275373E+03  0.21378275373E+03  0.00000000000E+00 0. -1.
         -6    2    1    2    0  503 -0.13275995146E+03 -0.70518394939E+02 -0.12104232486E+03  0.25861931012E+03  0.17214718825E+03 0.  0.
        -24    2    3    3    0    0 -0.81836204886E+02 -0.10979378136E+03 -0.56903725494E+02  0.16767078692E+03  0.78253561932E+02 0.  0.
          6    2    1    2  501    0  0.13275995146E+03  0.70518394939E+02  0.52592289863E+03  0.57382677111E+03  0.17344803026E+03 0.  0.
         24    2    5    5    0    0 -0.16147135616E+01  0.15263208460E+02  0.14774659260E+03  0.16867359677E+03  0.79913414333E+02 0.  0.
          5    1    5    5  501    0  0.13437466502E+03  0.55255186479E+02  0.37817630603E+03  0.40515317434E+03  0.47000000000E+01 0. -1.
        -13    1    6    6    0    0  0.37408586219E+02  0.18834983476E+02  0.69022040712E+02  0.80735376567E+02  0.00000000000E+00 0.  1.
         14    1    6    6    0    0 -0.39023299781E+02 -0.35717750164E+01  0.78724551886E+02  0.87938220202E+02  0.00000000000E+00 0. -1.
         -5    1    3    3    0  503 -0.50923746577E+02  0.39275386421E+02 -0.64138599363E+02  0.90948523200E+02  0.47000000000E+01 0.  1.
         13    1    4    4    0    0 -0.60915269525E+02 -0.69782417157E+02 -0.74842639910E+02  0.11908684459E+03  0.00000000000E+00 0. -1.
        -14    1    4    4    0    0 -0.20920935361E+02 -0.40011364203E+02  0.17938914416E+02  0.48583942328E+02  0.00000000000E+00 0.  1.
</event>
<event>
12    1  0.8462562E-002  0.1781736E+03  0.7818608E-02  0.1169665E+00
         21   -1    0    0  503  502  0.00000000000E+00  0.00000000000E+00  0.22271260799E+03  0.22271260799E+03  0.00000000000E+00 0.  1.
         21   -1    0    0  501  503 -0.00000000000E+00 -0.00000000000E+00 -0.14271463026E+03  0.14271463026E+03  0.00000000000E+00 0.  1.
          6    2    1    2  501    0 -0.65236567929E+01  0.43491574592E+02  0.29884582943E+02  0.18066244377E+03  0.17266080949E+03 0.  0.
         24    2    3    3    0    0 -0.43134356093E+02  0.48997375115E+02 -0.31939225218E+02  0.10844796878E+03  0.80495542622E+02 0.  0.
         -6    2    1    2    0  502  0.65236567929E+01 -0.43491574592E+02  0.50113394778E+02  0.18476479448E+03  0.17231541366E+03 0.  0.
        -24    2    5    5    0    0 -0.60962205776E+02 -0.38668499412E+02  0.46401536165E+02  0.11684225334E+03  0.79292914098E+02 0.  0.
          5    1    3    3  501    0  0.36610699301E+02 -0.55058005233E+01  0.61823808161E+02  0.72214474991E+02  0.47000000000E+01 0. -1.
        -11    1    4    4    0    0 -0.32156740354E+02 -0.17158769834E+02 -0.13842408646E+02  0.38988352229E+02  0.00000000000E+00 0.  1.
         12    1    4    4    0    0 -0.10977615739E+02  0.66156144949E+02 -0.18096816572E+02  0.69459616554E+02  0.00000000000E+00 0. -1.
         -5    1    5    5    0  502  0.67485862569E+02 -0.48230751800E+01  0.37118586136E+01  0.67922541142E+02  0.47000000000E+01 0.  1.
         13    1    6    6    0    0 -0.76306290894E+02 -0.13717301768E+02  0.29026214016E+02  0.82784874814E+02  0.00000000000E+00 0. -1.
        -14    1    6    6    0    0  0.15344085118E+02 -0.24951197643E+02  0.17375322148E+02  0.34057378521E+02  0.00000000000E+00 0.  1.
</event>
<event>
12    1  0.8462562E-002  0.2097544E+03  0.7818608E-02  0.1142491E+00
         21   -1    0    0  503  502  0.00000000000E+00  0.00000000000E+00  0.61822373615E+03  0.61822373615E+03  0.00000000000E+00 0. -1.
         21   -1    0    0  501  503 -0.00000000000E+00 -0.00000000000E+00 -0.15304505453E+03  0.15304505453E+03  0.00000000000E+00 0. -1.
          6    2    1    2  501    0  0.52125950971E+02  0.10238733288E+03 -0.50654756919E+02  0.21578415513E+03  0.17548964787E+03 0.  0.
         24    2    3    3    0    0  0.59357228697E+02  0.27030131631E+01 -0.57628583513E+02  0.11548470732E+03  0.80529976454E+02 0.  0.
         -6    2    1    2    0  502 -0.52125950971E+02 -0.10238733288E+03  0.51583343854E+03  0.55548463555E+03  0.17111038342E+03 0.  0.
        -24    2    5    5    0    0 -0.10126581517E+03 -0.79360540201E+02  0.39094097776E+03  0.41923054865E+03  0.79790627098E+02 0.  0.
          5    1    3    3  501    0 -0.72312777257E+01  0.99684319715E+02  0.69738265936E+01  0.10029944781E+03  0.47000000000E+01 0. -1.
        -13    1    4    4    0    0 -0.17568441061E+02  0.81835888000E+01 -0.28815299083E+00  0.19383092609E+02  0.00000000000E+00 0.  1.
         14    1    4    4    0    0  0.76925669758E+02 -0.54805756369E+01 -0.57340430522E+02  0.96101614707E+02  0.00000000000E+00 0. -1.
         -5    1    5    5    0  502  0.49139864200E+02 -0.23026792677E+02  0.12489246078E+03  0.13625408689E+03  0.47000000000E+01 0.  1.
         11    1    6    6    0    0 -0.92464526211E+02 -0.66122405707E+02  0.22075291637E+03  0.24830165370E+03  0.00000000000E+00 0. -1.
        -12    1    6    6    0    0 -0.88012889595E+01 -0.13238134495E+02  0.17018806138E+03  0.17092889495E+03  0.00000000000E+00 0.  1.
</event>
<event>
12    1  0.8462562E-002  0.2564014E+03  0.7818608E-02  0.1109418E+00
         21   -1    0    0  503  502  0.00000000000E+00  0.00000000000E+00  0.69051045597E+02  0.69051045597E+02  0.00000000000E+00 0.  1.
         21   -1    0    0  501  503 -0.00000000000E+00 -0.00000000000E+00 -0.10886797144E+04  0.10886797144E+04  0.00000000000E+00 0.  1.
          6    2    1    2  501    0 -0.18879121226E+03  0.11926043999E+02 -0.71602094174E+03  0.76034010170E+03  0.17218225487E+03 0.  0.
         24    2    3    3    0    0 -0.89568222375E+02  0.53766582115E+02 -0.25280386130E+03  0.28474785411E+03  0.79109015440E+02 0.  0.
         -6    2    1    2    0  502  0.18879121226E+03 -0.11926043999E+02 -0.30360772703E+03  0.39739065826E+03  0.17308186216E+03 0.  0.
        -24    2    5    5    0    0  0.12910629450E+03 -0.33448744660E+02 -0.14207563602E+03  0.22378126198E+03  0.11002414764E+03 0.  0.
          5    1    3    3  501    0 -0.99222989883E+02 -0.41840538117E+02 -0.46321708044E+03  0.47559224759E+03  0.47000000000E+01 0. -1.
        -11    1    4    4    0    0 -0.79949667808E+02  0.22720842033E+02 -0.23129051618E+03  0.24577121255E+03  0.00000000000E+00 0.  1.
         12    1    4    4    0    0 -0.96185545678E+01  0.31045740082E+02 -0.21513345118E+02  0.38976641561E+02  0.00000000000E+00 0. -1.
         -5    1    5    5    0  502  0.59684917754E+02  0.21522700661E+02 -0.16153209100E+03  0.17360939628E+03  0.47000000000E+01 0.  1.
         13    1    6    6    0    0  0.11316741091E+02 -0.36281152784E+02 -0.84477242476E+02  0.92632581593E+02  0.00000000000E+00 0. -1.
        -14    1    6    6    0    0  0.11778955341E+03  0.28324081240E+01 -0.57598393546E+02  0.13114868039E+03  0.00000000000E+00 0.  1.
</event>
<event>
12    1  0.8462562E-002  0.3869572E+03  0.7818608E-02  0.1048405E+00
         21   -1    0    0  501  502  0.00000000000E+00  0.00000000000E+00  0.52805989843E+03  0.52805989843E+03  0.00000000000E+00 0. -1.
         21   -1    0    0  502  503 -0.00000000000E+00 -0.00000000000E+00 -0.31738278717E+03  0.31738278717E+03  0.00000000000E+00 0. -1.
         -6    2    1    2    0  503 -0.33432858646E+03 -0.87726132256E+02 -0.32886489903E+02  0.38821284098E+03  0.17365543664E+03 0.  0.
        -24    2    3    3    0    0 -0.33571146065E+03 -0.10777473938E+03 -0.44850406224E+02  0.36435735351E+03  0.80169463373E+02 0.  0.
          6    2    1    2  501    0  0.33432858646E+03  0.87726132256E+02  0.24356360117E+03  0.45722984462E+03  0.17396673530E+03 0.  0.
         24    2    5    5    0    0  0.82606650640E+02  0.62316790415E+02  0.99681041706E+02  0.16613905373E+03  0.83418427220E+02 0.  0.
          5    1    5    5  501    0  0.25172193582E+03  0.25409341841E+02  0.14388255946E+03  0.29109079089E+03  0.47000000000E+01 0. -1.
        -13    1    6    6    0    0  0.12809163707E+02  0.11602587478E+02 -0.14823597716E+02  0.22769140526E+02  0.00000000000E+00 0.  1.
         14    1    6    6    0    0  0.69797486933E+02  0.50714202937E+02  0.11450463942E+03  0.14336991320E+03  0.00000000000E+00 0. -1.
         -5    1    3    3    0  503  0.13828741883E+01  0.20048607124E+02  0.11963916321E+02  0.23855487468E+02  0.47000000000E+01 0.  1.
         11    1    4    4    0    0 -0.69336851164E+02  0.10410250023E+02 -0.61516281247E+01  0.70383341519E+02  0.00000000000E+00 0. -1.
        -12    1    4    4    0    0 -0.26637460949E+03 -0.11818498940E+03 -0.38698778099E+02  0.29397401199E+03  0.00000000000E+00 0.  1.
</event>
<event>
12    1  0.8462562E-002  0.2270338E+03  0.7818608E-02  0.1128842E+00
         21   -1    0    0  501  502  0.00000000000E+00  0.00000000000E+00  0.52045816217E+02  0.52045816217E+02  0.00000000000E+00 0. -1.
         21   -1    0    0  502  503 -0.00000000000E+00 -0.00000000000E+00 -0.15178306276E+04  0.15178306276E+04  0.00000000000E+00 0. -1.
         -6    2    1    2    0  503 -0.14868401957E+03  0.11359316761E+02 -0.11972109021E+04  0.12185476138E+04  0.17119687873E+03 0.  0.
        -24    2    3    3    0    0 -0.36489568729E+02 -0.13747361671E+02 -0.27993465929E+03  0.29408250592E+03  0.81244250488E+02 0.  0.
          6    2    1    2  501    0  0.14868401957E+03 -0.11359316761E+02 -0.26857390935E+03  0.35132883006E+03  0.17048175942E+03 0.  0.
         24    2    5    5    0    0  0.49898594423E+02  0.27133787200E+02 -0.73012091090E+02  0.12882760751E+03  0.89664234113E+02 0.  0.
          5    1    5    5  501    0  0.98785425150E+02 -0.38493103961E+02 -0.19556181826E+03  0.22250122255E+03  0.47000000000E+01 0. -1.
        -11    1    6    6    0    0 -0.27420177772E+01 -0.11040271805E+02 -0.61805502759E+02  0.62843666621E+02  0.00000000000E+00 0.  1.
         12    1    6    6    0    0  0.52640612200E+02  0.38174059005E+02 -0.11206588331E+02  0.65983940893E+02  0.00000000000E+00 0. -1.
         -5    1    3    3    0  503 -0.11219445084E+03  0.25106678432E+02 -0.91727624279E+03  0.92446510788E+03  0.47000000000E+01 0.  1.
         11    1    4    4    0    0 -0.55767718375E+02 -0.30710974375E+02 -0.21589123800E+03  0.22508271592E+03  0.00000000000E+00 0. -1.
        -12    1    4    4    0    0  0.19278149646E+02  0.16963612704E+02 -0.64043421291E+02  0.68999790003E+02  0.00000000000E+00 0.  1.
</event>
<event>
12    1  0.8462562E-002  0.1801231E+03  0.7818608E-02  0.1167934E+00
         21   -1    0    0  501  502  0.00000000000E+00  0.00000000000E+00  0.10290440361E+04  0.10290440361E+04  0.00000000000E+00 0. -1.
         21   -1    0    0  502  503 -0.00000000000E+00 -0.00000000000E+00 -0.41732377401E+02  0.41732377401E+02  0.00000000000E+00 0. -1.
         -6    2    1    2    0  503 -0.52729524974E+02 -0.89824667396E+01  0.22765773540E+03  0.29029705861E+03  0.17199782045E+03 0.  0.
        -24    2    3    3    0    0 -0.80277681085E+02  0.22533875845E+02  0.21782358869E+03  0.24704221846E+03  0.81427638245E+02 0.  0.
          6    2    1    2  501    0  0.52729524974E+02  0.89824667396E+01  0.75965392330E+03  0.78047935488E+03  0.17091767817E+03 0.  0.
         24    2    5    5    0    0  0.71890177197E+02 -0.22068504291E+02  0.71090155339E+03  0.71940418017E+03  0.80660643233E+02 0.  0.
          5    1    5    5  501    0 -0.19160652223E+02  0.31050971031E+02  0.48752369903E+02  0.61075174717E+02  0.47000000000E+01 0. -1.
        -13    1    6    6    0    0  0.76481970806E+02 -0.39299788892E+02  0.46691901962E+03  0.47477082487E+03  0.00000000000E+00 0.  1.
         14    1    6    6    0    0 -0.45917936090E+01  0.17231284601E+02  0.24398253378E+03  0.24463335530E+03  0.00000000000E+00 0. -1.
         -5    1    3    3    0  503  0.27548156111E+02 -0.31516342585E+02  0.98341467071E+01  0.43254840151E+02  0.47000000000E+01 0.  1.
         11    1    4    4    0    0 -0.65082409558E+01 -0.26944190353E+02  0.52016874162E+02  0.58941511617E+02  0.00000000000E+00 0. -1.
        -12    1    4    4    0    0 -0.73769440129E+02  0.49478066198E+02  0.16580671453E+03  0.18810070685E+03  0.00000000000E+00 0.  1.
</event>
<event>
12    1  0.8462562E-002  0.1788251E+03  0.7818608E-02  0.1169058E+00
         21   -1    0    0  503  502  0.00000000000E+00  0.00000000000E+00  0.30559051408E+03  0.30559051408E+03  0.00000000000E+00 0. -1.
         21   -1    0    0  501  503 -0.00000000000E+00 -0.00000000000E+00 -0.10459172703E+03  0.10459172703E+03  0.00000000000E+00 0. -1.
          6    2    1    2  501    0  0.63615621843E+01  0.48240004119E+02  0.91260517558E+02  0.20076582052E+03  0.17207807866E+03 0.  0.
         24    2    3    3    0    0 -0.26595076722E+02  0.90884942468E+02  0.58712303195E+02  0.13762940414E+03  0.80792001247E+02 0.  0.
         -6    2    1    2    0  502 -0.63615621843E+01 -0.48240004119E+02  0.10973826949E+03  0.20941642059E+03  0.17159598466E+03 0.  0.
        -24    2    5    5    0    0  0.43607602016E+02 -0.76299872362E+02  0.50892249679E+02  0.12714116535E+03  0.76495499040E+02 0.  0.
          5    1    3    3  501    0  0.32956638906E+02 -0.42644938349E+02  0.32548214364E+02  0.63136416378E+02  0.47000000000E+01 0. -1.
        -11    1    4    4    0    0 -0.44227956259E+01  0.61113834761E+02 -0.74905547239E+01  0.61729817191E+02  0.00000000000E+00 0.  1.
         12    1    4    4    0    0 -0.22172281096E+02  0.29771107706E+02  0.66202857919E+02  0.75899586953E+02  0.00000000000E+00 0. -1.
         -5    1    5    5    0  502 -0.49969164200E+02  0.28059868243E+02  0.58846019811E+02  0.82275255237E+02  0.47000000000E+01 0.  1.
         13    1    6    6    0    0  0.20988438859E+02 -0.34452033926E+01 -0.15252601779E+02  0.26172998551E+02  0.00000000000E+00 0. -1.
        -14    1    6    6    0    0  0.22619163157E+02 -0.72854668969E+02  0.66144851458E+02  0.10096816680E+03  0.00000000000E+00 0.  1.
</event>
<event>
12    1  0.8462562E-002  0.1984607E+03  0.7818608E-02  0.1151631E+00
         21   -1    0    0  501  502  0.00000000000E+00  0.00000000000E+00  0.11494560657E+04  0.11494560657E+04  0.00000000000E+00 0. -1.
         21   -1    0    0  502  503 -0.00000000000E+00 -0.00000000000E+00 -0.46219723186E+02  0.46219723186E+02  0.00000000000E+00 0. -1.
         -6    2    1    2    0  503 -0.46331471844E+02 -0.86259706755E+02  0.23885674114E+03  0.30880559199E+03  0.16947273693E+03 0.  0.
        -24    2    3    3    0    0 -0.21945575549E+02 -0.23161642643E+01  0.19373159479E+03  0.21031925234E+03  0.78837073658E+02 0.  0.
          6    2    1    2  501    0  0.46331471844E+02  0.86259706755E+02  0.86437960134E+03  0.88687019686E+03  0.17262476235E+03 0.  0.
         24    2    5    5    0    0  0.43031215263E+02 -0.13728965708E+02  0.52671985911E+03  0.53467022832E+03  0.79989206086E+02 0.  0.
          5    1    5    5  501    0  0.33002565811E+01  0.99988672463E+02  0.33765974223E+03  0.35219996854E+03  0.47000000000E+01 0. -1.
        -11    1    6    6    0    0 -0.13873480598E+02 -0.20305389721E+02  0.66546429589E+02  0.70945116862E+02  0.00000000000E+00 0.  1.
         12    1    6    6    0    0  0.56904695861E+02  0.65764240136E+01  0.46017342952E+03  0.46372511146E+03  0.00000000000E+00 0. -1.
         -5    1    3    3    0  503 -0.24385896295E+02 -0.83943542491E+02  0.45125146349E+02  0.98486339647E+02  0.47000000000E+01 0.  1.
         13    1    4    4    0    0 -0.36635074572E+02  0.67272812044E+01  0.36520052648E+02  0.52164156724E+02  0.00000000000E+00 0. -1.
        -14    1    4    4    0    0  0.14689499023E+02 -0.90434454687E+01  0.15721154214E+03  0.15815509562E+03  0.00000000000E+00 0.  1.
</event>
<event>
12    1  0.8462562E-002  0.2022761E+03  0.7818608E-02  0.1148090E+00
         21   -1    0    0  503  502  0.00000000000E+00  0.00000000000E+00  0.24724912095E+03  0.24724912095E+03  0.00000000000E+00 0.  1.
         21   -1    0    0  501  503 -0.00000000000E+00 -0.00000000000E+00 -0.45718708860E+03  0.45718708860E+03  0.00000000000E+00 0. -1.
          6    2    1    2  501    0 -0.31207458943E+02  0.99322873069E+02 -0.38691144715E+03  0.43659601100E+03  0.17342626755E+03 0.  0.
         24    2    3    3    0    0 -0.69382663174E+01  0.13616385481E+03 -0.30594256943E+03  0.34426887086E+03  0.79570501830E+02 0.  0.
         -6    2    1    2    0  502  0.31207458943E+02 -0.99322873069E+02  0.17697347950E+03  0.26784019855E+03  0.17198785104E+03 0.  0.
        -24    2    5    5    0    0  0.37074646470E+02 -0.31594624025E+01  0.32322714804E+02  0.93978876893E+02  0.80017246867E+02 0.  0.
          5    1    3    3  501    0 -0.24269192625E+02 -0.36840981738E+02 -0.80968877724E+02  0.92327140138E+02  0.47000000000E+01 0. -1.
        -13    1    4    4    0    0  0.21909758143E+02  0.12304279738E+03 -0.25971322177E+03  0.28821957784E+03  0.00000000000E+00 0.  1.
         14    1    4    4    0    0 -0.28848024460E+02  0.13121057425E+02 -0.46229347659E+02  0.56049293022E+02  0.00000000000E+00 0. -1.
         -5    1    5    5    0  502 -0.58671875276E+01 -0.96163410667E+02  0.14465076470E+03  0.17386132166E+03  0.47000000000E+01 0.  1.
         11    1    6    6    0    0 -0.78200212495E+01 -0.21131855229E+02 -0.14396471041E+02  0.26738855926E+02  0.00000000000E+00 0. -1.
        -12    1    6    6    0    0  0.44894667720E+02  0.17972392827E+02  0.46719185845E+02  0.67240020967E+02  0.00000000000E+00 0.  1.
</event>
<event>
12    1  0.8462562E-002  0.2127662E+03  0.7818608E-02  0.1140440E+00
         21   -1    0    0  501  502  0.00000000000E+00  0.00000000000E+00  0.29577401515E+03  0.29577401515E+03  0.00000000000E+00 0.  1.
         21   -1    0    0  502  503 -0.00000000000E+00 -0.00000000000E+00 -0.19962719373E+03  0.19962719373E+03  0.00000000000E+00 0.  1.
         -6    2    1    2    0  503  0.12153185503E+03 -0.27287148107E+02 -0.75880302023E+02  0.22589214692E+03  0.17249597551E+03 0.  0.
        -24    2    3    3    0    0  0.11766983679E+03 -0.61968387305E+02 -0.99858306059E+02  0.18329240262E+03  0.77059405996E+02 0.  0.
          6    2    1    2  501    0 -0.12153185503E+03  0.27287148107E+02  0.17202712344E+03  0.26950906196E+03  0.16591329978E+03 0.  0.
         24    2    5    5    0    0 -0.12364792059E+03  0.27198320393E+02  0.19517184122E+03  0.24579717497E+03  0.79345111499E+02 0.  0.
          5    1    5    5  501    0  0.21160655572E+01  0.88827713869E-01 -0.23144717781E+02  0.23711886997E+02  0.47000000000E+01 0. -1.
        -13    1    6    6    0    0 -0.91227703753E+02  0.36553485520E+02  0.82928489913E+02  0.12859154589E+03  0.00000000000E+00 0.  1.
         14    1    6    6    0    0 -0.32420216834E+02 -0.93551651273E+01  0.11224335131E+03  0.11720562907E+03  0.00000000000E+00 0. -1.
         -5    1    3    3    0  503  0.38620182371E+01  0.34681239199E+02  0.23978004036E+02  0.42599744304E+02  0.47000000000E+01 0.  1.
         11    1    4    4    0    0  0.27226973483E+02 -0.56716734678E+02 -0.36422970703E+02  0.72696140698E+02  0.00000000000E+00 0. -1.
        -12    1    4    4    0    0  0.90442863309E+02 -0.52516526278E+01 -0.63435335355E+02  0.11059626192E+03  0.00000000000E+00 0.  1.
</event>
<event>
12    1  0.8462562E-002  0.1758710E+03  0.7818608E-02  0.1171948E+00
         21   -1    0    0  501  502  0.00000000000E+00  0.00000000000E+00  0.29161896959E+02  0.29161896959E+02  0.00000000000E+00 0.  1.
         21   -1    0    0  502  503 -0.00000000000E+00 -0.00000000000E+00 -0.18955105286E+04  0.18955105286E+04  0.00000000000E+00 0.  1.
         -6    2    1    2    0  503  0.70805642494E-01  0.39512750693E+02 -0.15721247327E+04  0.15818921806E+04  0.17101296342E+03 0.  0.
        -24    2    3    3    0    0  0.10836668778E+02 -0.28621031977E+02 -0.12197166130E+04  0.12227658951E+04  0.80692139540E+02 0.  0.
          6    2    1    2  501    0 -0.70805642494E-01 -0.39512750693E+02 -0.29422389895E+03  0.34278024488E+03  0.17137482630E+03 0.  0.
         24    2    5    5    0    0 -0.66305386240E+02 -0.28612815259E+02 -0.19057328106E+03  0.21920286489E+03  0.80725603603E+02 0.  0.
          5    1    5    5  501    0  0.66234580597E+02 -0.10899935434E+02 -0.10365061788E+03  0.12357738000E+03  0.47000000000E+01 0. -1.
        -13    1    6    6    0    0 -0.16879787892E+02 -0.50607567675E+02 -0.80800037918E+02  0.96823030695E+02  0.00000000000E+00 0.  1.
         14    1    6    6    0    0 -0.49425598348E+02  0.21994752416E+02 -0.10977324315E+03  0.12237983419E+03  0.00000000000E+00 0. -1.
         -5    1    3    3    0  503 -0.10765863136E+02  0.68133782670E+02 -0.35240811967E+03  0.35912628553E+03  0.47000000000E+01 0.  1.
         13    1    4    4    0    0  0.41700380207E+02 -0.15418398456E+02 -0.93854941582E+03  0.93960185965E+03  0.00000000000E+00 0. -1.
        -14    1    4    4    0    0 -0.30863711429E+02 -0.13202633521E+02 -0.28116719716E+03  0.28316403545E+03  0.00000000000E+00 0.  1.
</event>
<event>
12    1  0.8462562E-002  0.2919854E+03  0.7818608E-02  0.1089344E+00
         21   -1    0    0  501  502  0.00000000000E+00  0.00000000000E+00  0.13120510568E+04  0.13120510568E+04  0.00000000000E+00 0.  1.
         21   -1    0    0  502  503 -0.00000000000E+00 -0.00000000000E+00 -0.15371999209E+03  0.15371999209E+03  0.00000000000E+00 0. -1.
         -6    2    1    2    0  503  0.23589495037E+03 -0.83231604195E+01  0.22263840878E+02  0.29283302240E+03  0.17187145717E+03 0.  0.
        -24    2    3    3    0    0  0.73459129257E+02  0.29850659531E+02 -0.33742584480E+02  0.11676074693E+03  0.78785813890E+02 0.  0.
          6    2    1    2  501    0 -0.23589495037E+03  0.83231604195E+01  0.11360672238E+04  0.11729380265E+04  0.17152018628E+03 0.  0.
         24    2    5    5    0    0 -0.15513979681E+03 -0.59837028053E+02  0.78347974289E+03  0.80482496256E+03  0.79081517141E+02 0.  0.
          5    1    5    5  501    0 -0.80755153553E+02  0.68160188473E+02  0.35258748095E+03  0.36811306394E+03  0.47000000000E+01 0. -1.
        -13    1    6    6    0    0 -0.48899978803E+02 -0.25673365326E+02  0.44519753143E+03  0.44861026694E+03  0.00000000000E+00 0.  1.
         14    1    6    6    0    0 -0.10623981801E+03 -0.34163662728E+02  0.33828221146E+03  0.35621469562E+03  0.00000000000E+00 0. -1.
         -5    1    3    3    0  503  0.16243582111E+03 -0.38173819950E+02  0.56006425358E+02  0.17607227547E+03  0.47000000000E+01 0.  1.
         13    1    4    4    0    0  0.76981489197E+02 -0.39659756426E+01 -0.17332943238E+02  0.79008287940E+02  0.00000000000E+00 0. -1.
        -14    1    4    4    0    0 -0.35223599405E+01  0.33816635173E+02 -0.16409641242E+02  0.37752458989E+02  0.00000000000E+00 0.  1.
</event>
<event>
12    1  0.8462562E-002  0.2088236E+03  0.7818608E-02  0.1142650E+00
         21   -1    0    0  501  502  0.00000000000E+00  0.00000000000E+00  0.31007184072E+03  0.31007184072E+03  0.00000000000E+00 0. -1.
         21   -1    0    0  502  503 -0.00000000000E+00 -0.00000000000E+00 -0.14019943412E+03  0.14019943412E+03  0.00000000000E+00 0. -1.
         -6    2    1    2    0  503  0.92527891089E+02 -0.73177816865E+02  0.80203101449E+02  0.22369582734E+03  0.17231042388E+03 0.  0.
        -24    2    3    3    0    0 -0.16656049004E+02 -0.56601745065E+02  0.33519491385E+02  0.10370687627E+03  0.78424348072E+02 0.  0.
          6    2    1    2  501    0 -0.92527891089E+02  0.73177816865E+02  0.89669305149E+02  0.22657544749E+03  0.17140433370E+03 0.  0.
         24    2    5    5    0    0  0.75353030205E+01  0.18443456615E+02  0.29443089789E+01  0.83216429751E+02  0.80742574529E+02 0.  0.
          5    1    5    5  501    0 -0.10006319411E+03  0.54734360250E+02  0.86724996170E+02  0.14335901774E+03  0.47000000000E+01 0. -1.
        -11    1    6    6    0    0  0.10838883865E+02  0.50006338209E+02 -0.13907246808E+01  0.51186417922E+02  0.00000000000E+00 0.  1.
         12    1    6    6    0    0 -0.33035808447E+01 -0.31562881594E+02  0.43350336596E+01  0.32030011829E+02  0.00000000000E+00 0. -1.
         -5    1    3    3    0  503  0.10918394009E+03 -0.16576071800E+02  0.46683610064E+02  0.11998895107E+03  0.47000000000E+01 0.  1.
         13    1    4    4    0    0  0.14535198692E+02 -0.30153636762E+02 -0.17938542494E+02  0.37977692370E+02  0.00000000000E+00 0. -1.
        -14    1    4    4    0    0 -0.31191247695E+02 -0.26448108303E+02  0.51458033879E+02  0.65729183901E+02  0.00000000000E+00 0.  1.
</event>
<event>
12    1  0.8462562E-002  0.1995356E+03  0.7818608E-02  0.1150307E+00
         21   -1    0    0  501  502  0.00000000000E+00  0.00000000000E+00  0.29646412850E+03  0.29646412850E+03  0.00000000000E+00 0. -1.
         21   -1    0    0  502  503 -0.00000000000E+00 -0.00000000000E+00 -0.14430108944E+03  0.14430108944E+03  0.00000000000E+00 0. -1.
         -6    2    1    2    0  503  0.72842714261E+02 -0.67711553144E+02  0.16315992912E+02  0.19937571180E+03  0.17202775178E+03 0.  0.
        -24    2    3    3    0    0 -0.26827549420E+02 -0.44957526241E+02  0.14473992305E+01  0.95958729246E+02  0.80405759622E+02 0.  0.
          6    2    1    2  501    0 -0.72842714261E+02  0.67711553144E+02  0.13584704616E+03  0.24138950614E+03  0.17298427176E+03 0.  0.
         24    2    5    5    0    0 -0.10266040058E+03  0.25375469777E+02  0.94257543809E+02  0.17480711299E+03  0.10242055396E+03 0.  0.
          5    1    5    5  501    0  0.29817686315E+02  0.42336083368E+02  0.41589502347E+02  0.66582393150E+02  0.47000000000E+01 0. -1.
        -13    1    6    6    0    0 -0.44432661758E+02 -0.39317527220E+02  0.47514364570E+02  0.76011474253E+02  0.00000000000E+00 0.  1.
         14    1    6    6    0    0 -0.58227738817E+02  0.64692996996E+02  0.46743179238E+02  0.98795638737E+02  0.00000000000E+00 0. -1.
         -5    1    3    3    0  503  0.99670263681E+02 -0.22754026903E+02  0.14868593681E+02  0.10341698255E+03  0.47000000000E+01 0.  1.
         11    1    4    4    0    0 -0.23846602338E+02 -0.23537191914E+02  0.39740574442E+02  0.51980506954E+02  0.00000000000E+00 0. -1.
        -12    1    4    4    0    0 -0.29809470825E+01 -0.21420334327E+02 -0.38293175211E+02  0.43978222292E+02  0.00000000000E+00 0.  1.
</event>
<event>
12    1  0.8462562E-002  0.1842059E+03  0.7818608E-02  0.1164486E+00
         21   -1    0    0  503  502  0.00000000000E+00  0.00000000000E+00  0.16363395493E+03  0.16363395493E+03  0.00000000000E+00 0. -1.
         21   -1    0    0  501  503 -0.00000000000E+00 -0.00000000000E+00 -0.76691234886E+03  0.76691234886E+03  0.00000000000E+00 0. -1.
          6    2    1    2  501    0 -0.39489274017E+02 -0.39113425012E+02 -0.69957978162E+03  0.72268634672E+03  0.17255266473E+03 0.  0.
         24    2    3    3    0    0 -0.90724161407E+02 -0.30376114405E+02 -0.40827397415E+03  0.42674290999E+03  0.79172542346E+02 0.  0.
         -6    2    1    2    0  502  0.39489274017E+02  0.39113425012E+02  0.96301387689E+02  0.20785995707E+03  0.17562044785E+03 0.  0.
        -24    2    5    5    0    0  0.28007643746E+02  0.79526361057E+02  0.12194538568E+03  0.15841566653E+03  0.55820928893E+02 0.  0.
          5    1    3    3  501    0  0.51234887390E+02 -0.87373106070E+01 -0.29130580747E+03  0.29594343674E+03  0.47000000000E+01 0. -1.
        -11    1    4    4    0    0 -0.51891828973E+01  0.89179396547E+01 -0.30923229337E+01  0.10771245423E+02  0.00000000000E+00 0.  1.
         12    1    4    4    0    0 -0.85534978510E+02 -0.39294054060E+02 -0.40518165122E+03  0.41597166456E+03  0.00000000000E+00 0. -1.
         -5    1    5    5    0  502  0.11481630271E+02 -0.40412936045E+02 -0.25643997994E+02  0.49444290536E+02  0.47000000000E+01 0.  1.
         13    1    6    6    0    0 -0.16966700800E+02  0.20335862931E+02  0.26873212584E+02  0.37730436146E+02  0.00000000000E+00 0. -1.
        -14    1    6    6    0    0  0.44974344546E+02  0.59190498127E+02  0.95072173099E+02  0.12068523039E+03  0.00000000000E+00 0.  1.
</event>
<event>
12    1  0.8462562E-002  0.2398947E+03  0.7818608E-02  0.1119978E+00
         21   -1    0    0  503  502  0.00000000000E+00  0.00000000000E+00  0.12109919597E+04  0.12109919597E+04  0.00000000000E+00 0.  1.
         21   -1    0    0  501  503 -0.00000000000E+00 -0.00000000000E+00 -0.48682354903E+02  0.48682354903E+02  0.00000000000E+00 0. -1.
          6    2    1    2  501    0 -0.16495195313E+03 -0.17820093373E+02  0.47755925100E+03  0.53411761206E+03  0.17231390755E+03 0.  0.
         24    2    3    3    0    0 -0.15506980136E+03  0.22634797917E+02  0.45240375502E+03  0.48523874004E+03  0.78920845811E+02 0.  0.
         -6    2    1    2    0  502  0.16495195313E+03  0.17820093373E+02  0.68475035383E+03  0.72555670258E+03  0.17327082561E+03 0.  0.
        -24    2    5    5    0    0  0.17690939604E+03  0.15882958086E+02  0.45273730520E+03  0.49318011669E+03  0.81892351348E+02 0.  0.
          5    1    3    3  501    0 -0.98821517685E+01 -0.40454891290E+02  0.25155495976E+02  0.48878872027E+02  0.47000000000E+01 0. -1.
        -13    1    4    4    0    0 -0.73029117706E+01 -0.12896818937E+02  0.10507348763E+03  0.10611361017E+03  0.00000000000E+00 0.  1.
         14    1    4    4    0    0 -0.14776688959E+03  0.35531616854E+02  0.34733026739E+03  0.37912512987E+03  0.00000000000E+00 0. -1.
         -5    1    5    5    0  502 -0.11957442912E+02  0.19371352867E+01  0.23201304863E+03  0.23237658589E+03  0.47000000000E+01 0.  1.
         11    1    6    6    0    0  0.11191582837E+03  0.28884084937E+02  0.19160739788E+03  0.22376960903E+03  0.00000000000E+00 0. -1.
        -12    1    6    6    0    0  0.64993567662E+02 -0.13001126851E+02  0.26112990733E+03  0.26941050766E+03  0.00000000000E+00 0.  1.
</event>
<event>
12    1  0.8462562E-002  0.1888321E+03  0.7818608E-02  0.1159871E+00
         21   -1    0    0  501  502  0.00000000000E+00  0.00000000000E+00  0.61333667062E+03  0.61333667062E+03  0.00000000000E+00 0.  1.
         21   -1    0    0  502  503 -0.00000000000E+00 -0.00000000000E+00 -0.66572404488E+02  0.66572404488E+02  0.00000000000E+00 0.  1.
         -6    2    1    2    0  503  0.27548259737E+02  0.72256729705E+02  0.14998836822E+03  0.24115151687E+03  0.17227188362E+03 0.  0.
        -24    2    3    3    0    0 -0.39992615850E+02  0.79186394217E+02  0.10905617663E+03  0.16173285135E+03  0.79964812215E+02 0.  0.
          6    2    1    2  501    0 -0.27548259737E+02 -0.72256729705E+02  0.39677589791E+03  0.43875755824E+03  0.17057883850E+03 0.  0.
         24    2    5    5    0    0  0.31260259804E+02 -0.79225740499E+02  0.31594491550E+03  0.33844431485E+03  0.86425938349E+02 0.  0.
          5    1    5    5  501    0 -0.58808519540E+02  0.69690107946E+01  0.80830982412E+02  0.10031324339E+03  0.47000000000E+01 0. -1.
        -13    1    6    6    0    0 -0.24464215119E+02 -0.20833631249E+02  0.15614144544E+03  0.15941357846E+03  0.00000000000E+00 0.  1.
         14    1    6    6    0    0  0.55724474923E+02 -0.58392109250E+02  0.15980347006E+03  0.17903073639E+03  0.00000000000E+00 0. -1.
         -5    1    3    3    0  503  0.67540875586E+02 -0.69296645120E+01  0.40932191587E+02  0.79418665522E+02  0.47000000000E+01 0.  1.
         13    1    4    4    0    0  0.17086097507E+02  0.13322883358E+01  0.38558417514E+02  0.42195512574E+02  0.00000000000E+00 0. -1.
        -14    1    4    4    0    0 -0.57078713356E+02  0.77854105881E+02  0.70497759121E+02  0.11953733878E+03  0.00000000000E+00 0.  1.
</event>
<event>
12    1  0.8462562E-002  0.2397401E+03  0.7818608E-02  0.1120007E+00
         21   -1    0    0  503  502  0.00000000000E+00  0.00000000000E+00  0.17676703868E+03  0.17676703868E+03  0.00000000000E+00 0. -1.
         21   -1    0    0  501  503 -0.00000000000E+00 -0.00000000000E+00 -0.42187756800E+03  0.42187756800E+03  0.00000000000E+00 0. -1.
          6    2    1    2  501    0 -0.11915585453E+03 -0.11640461356E+03 -0.26608168565E+03  0.35798905391E+03  0.17207134438E+03 0.  0.
         24    2    3    3    0    0 -0.81349873990E+02 -0.14844501105E+03 -0.23038015842E+03  0.29673084399E+03  0.79501277231E+02 0.  0.
         -6    2    1    2    0  502  0.11915585453E+03  0.11640461356E+03  0.20971156328E+02  0.24065555276E+03  0.17241564300E+03 0.  0.
        -24    2    5    5    0    0  0.71997427126E+02  0.14687597115E+03  0.25583348198E+02  0.18412429395E+03  0.80567161445E+02 0.  0.
          5    1    3    3  501    0 -0.37805980543E+02  0.32040397489E+02 -0.35701527231E+02  0.61258209921E+02  0.47000000000E+01 0. -1.
        -11    1    4    4    0    0  0.98867781789E+01 -0.56939188913E+02 -0.72101990810E+02  0.92404094583E+02  0.00000000000E+00 0.  1.
         12    1    4    4    0    0 -0.91236652169E+02 -0.91505822134E+02 -0.15827816761E+03  0.20432674941E+03  0.00000000000E+00 0. -1.
         -5    1    5    5    0  502  0.47158427407E+02 -0.30471357594E+02 -0.46121918702E+01  0.56531258813E+02  0.47000000000E+01 0.  1.
         13    1    6    6    0    0  0.31586517396E+02  0.62256492685E+01  0.19537868527E+02  0.37658931167E+02  0.00000000000E+00 0. -1.
        -14    1    6    6    0    0  0.40410909730E+02  0.14065032188E+03  0.60454796710E+01  0.14646536278E+03  0.00000000000E+00 0.  1.
</event>
<event>
12    1  0.8462562E-002  0.2249607E+03  0.7818608E-02  0.1130435E+00
         21   -1    0    0  501  502  0.00000000000E+00  0.00000000000E+00  0.68587725938E+03  0.68587725938E+03  0.00000000000E+00 0.  1.
         21   -1    0    0  502  503 -0.00000000000E+00 -0.00000000000E+00 -0.11109913785E+03  0.11109913785E+03  0.00000000000E+00 0.  1.
         -6    2    1    2    0  503  0.35758211536E+02  0.14059707589E+03  0.55811872289E+02  0.23178063264E+03  0.17193344392E+03 0.  0.
        -24    2    3    3    0    0 -0.10527287263E+02  0.18126805723E+02  0.57885537987E+02  0.10075504520E+03  0.79758628137E+02 0.  0.
          6    2    1    2  501    0 -0.35758211536E+02 -0.14059707589E+03  0.51896624924E+03  0.56519576459E+03  0.17051128118E+03 0.  0.
         24    2    5    5    0    0  0.30827804246E+02 -0.90428296108E+02  0.40586114589E+03  0.42460608371E+03  0.80246036248E+02 0.  0.
          5    1    5    5  501    0 -0.66586015782E+02 -0.50168779785E+02  0.11310510335E+03  0.14058968087E+03  0.47000000000E+01 0. -1.
        -11    1    6    6    0    0  0.17879100490E+01 -0.62997667744E+02  0.11608506835E+03  0.13208953728E+03  0.00000000000E+00 0.  1.
         12    1    6    6    0    0  0.29039894197E+02 -0.27430628363E+02  0.28977607754E+03  0.29251654644E+03  0.00000000000E+00 0. -1.
         -5    1    3    3    0  503  0.46285498799E+02  0.12247027017E+03 -0.20736656978E+01  0.13102558744E+03  0.47000000000E+01 0.  1.
         13    1    4    4    0    0 -0.24946436250E+01  0.91288481328E+01 -0.19902248024E+02  0.22037663021E+02  0.00000000000E+00 0. -1.
        -14    1    4    4    0    0 -0.80326436383E+01  0.89979575898E+01  0.77787786011E+02  0.78717382179E+02  0.00000000000E+00 0.  1.
</event>
<event>
12    1  0.8462562E-002  0.2090037E+03  0.7818608E-02  0.1142587E+00
         21   -1    0    0  501  502  0.00000000000E+00  0.00000000000E+00  0.17386484254E+03  0.17386484254E+03  0.00000000000E+00 0. -1.
         21   -1    0    0  502  503 -0.00000000000E+00 -0.00000000000E+00 -0.39571706235E+03  0.39571706235E+03  0.00000000000E+00 0.  1.
         -6    2    1    2    0  503 -0.22294527066E+01  0.11807539922E+03 -0.28363015034E+03  0.35163911124E+03  0.17104745543E+03 0.  0.
        -24    2    3    3    0    0  0.65766970141E+02  0.72173035995E+02 -0.17277997815E+03  0.21365218742E+03  0.79120761204E+02 0.  0.
          6    2    1    2  501    0  0.22294527066E+01 -0.11807539922E+03  0.61777930531E+02  0.21794279366E+03  0.17244065137E+03 0.  0.
         24    2    5    5    0    0 -0.41409490962E+02 -0.60714173605E+02  0.89436956608E+02  0.14060083007E+03  0.79803930917E+02 0.  0.
          5    1    5    5  501    0  0.43638943668E+02 -0.57361225617E+02 -0.27659026077E+02  0.77341963592E+02  0.47000000000E+01 0. -1.
        -11    1    6    6    0    0 -0.25095829869E+02 -0.22236020545E+02 -0.80936735594E+01  0.34492736020E+02  0.00000000000E+00 0.  1.
         12    1    6    6    0    0 -0.16313661092E+02 -0.38478153060E+02  0.97530630167E+02  0.10610809405E+03  0.00000000000E+00 0. -1.
         -5    1    3    3    0  503 -0.67996422848E+02  0.45902363227E+02 -0.11085017219E+03  0.13798692382E+03  0.47000000000E+01 0.  1.
         11    1    4    4    0    0  0.33629347323E+01  0.11355329064E+02  0.70784209351E+01  0.13796987755E+02  0.00000000000E+00 0. -1.
        -12    1    4    4    0    0  0.62404035409E+02  0.60817706931E+02 -0.17985839909E+03  0.19985519967E+03  0.00000000000E+00 0.  1.
</event>
<event>
12    1  0.8462562E-002  0.2380724E+03  0.7818608E-02  0.1122177E+00
         21   -1    0    0  503  502  0.00000000000E+00  0.00000000000E+00  0.35944476535E+03  0.35944476535E+03  0.00000000000E+00 0. -1.
         21   -1    0    0  501  503 -0.00000000000E+00 -0.00000000000E+00 -0.40952932385E+03  0.40952932385E+03  0.00000000000E+00 0.  1.
          6    2    1    2  501    0 -0.82253583481E+02 -0.13025070818E+03 -0.32892799107E+03  0.40232423929E+03  0.17303257276E+03 0.  0.
         24    2    3    3    0    0 -0.12490077542E+02  0.40694622862E+00 -0.91298621355E+02  0.12227392816E+03  0.80369817738E+02 0.  0.
         -6    2    1    2    0  502  0.82253583481E+02  0.13025070818E+03  0.27884343256E+03  0.36664984991E+03  0.18151460982E+03 0.  0.
        -24    2    5    5    0    0  0.69239994649E+02  0.12461991382E+02  0.62095353941E+02  0.11957626798E+03  0.74115941575E+02 0.  0.
          5    1    3    3  501    0 -0.69763505939E+02 -0.13065765441E+03 -0.23762936971E+03  0.28005031113E+03  0.47000000000E+01 0. -1.
        -13    1    4    4    0    0  0.28770831608E+01 -0.33456577714E+02 -0.73994856683E+02  0.81257978165E+02  0.00000000000E+00 0.  1.
         14    1    4    4    0    0 -0.15367160703E+02  0.33863523943E+02 -0.17303764671E+02  0.41015949991E+02  0.00000000000E+00 0. -1.
         -5    1    5    5    0  502  0.13013588832E+02  0.11778871680E+03  0.21674807862E+03  0.24707358193E+03  0.47000000000E+01 0.  1.
         13    1    6    6    0    0  0.53374332258E+02  0.35958019561E+02  0.17434381550E+02  0.66676503918E+02  0.00000000000E+00 0. -1.
        -14    1    6    6    0    0  0.15865662391E+02 -0.23496028179E+02  0.44660972390E+02  0.52899764065E+02  0.00000000000E+00 0.  1.
</event>
<event>
12    1  0.8462562E-002  0.2381344E+03  0.7818608E-02  0.1121585E+00
         21   -1    0    0  501  502  0.00000000000E+00  0.00000000000E+00  0.97850397141E+03  0.97850397141E+03  0.00000000000E+00 0. -1.
         21   -1    0    0  502  503 -0.00000000000E+00 -0.00000000000E+00 -0.82405240765E+02  0.82405240765E+02  0.00000000000E+00 0. -1.
         -6    2    1    2    0  503 -0.27953325053E+02  0.15793740855E+03  0.15665193174E+03  0.28504001318E+03  0.17601808996E+03 0.  0.
        -24    2    3    3    0    0 -0.11865931887E+02  0.18639971808E+03  0.12194051772E+03  0.23712467591E+03  0.80454750150E+02 0.  0.
          6    2    1    2  501    0  0.27953325053E+02 -0.15793740855E+03  0.73944679891E+03  0.77586919900E+03  0.17165614506E+03 0.  0.
         24    2    5    5    0    0 -0.40242541167E+02 -0.43203860281E+02  0.26452294674E+03  0.28252427034E+03  0.79759252255E+02 0.  0.
          5    1    5    5  501    0  0.68195866220E+02 -0.11473354827E+03  0.47492385217E+03  0.49334492865E+03  0.47000000000E+01 0. -1.
        -11    1    6    6    0    0 -0.28546137538E+02  0.66078193373E+01  0.27993343220E+02  0.40523727733E+02  0.00000000000E+00 0.  1.
         12    1    6    6    0    0 -0.11696403629E+02 -0.49811679618E+02  0.23652960352E+03  0.24200054261E+03  0.00000000000E+00 0. -1.
         -5    1    3    3    0  503 -0.16087393166E+02 -0.28462309532E+02  0.34711414015E+02  0.47915337270E+02  0.47000000000E+01 0.  1.
         11    1    4    4    0    0  0.26107828945E+02  0.43962712803E+02  0.10174920617E+02  0.52133174264E+02  0.00000000000E+00 0. -1.
        -12    1    4    4    0    0 -0.37973760832E+02  0.14243700528E+03  0.11176559710E+03  0.18499150164E+03  0.00000000000E+00 0.  1.
</event>
<event>
12    1  0.8462562E-002  0.2482006E+03  0.7818608E-02  0.1114474E+00
         21   -1    0    0  503  502  0.00000000000E+00  0.00000000000E+00  0.11368874050E+03  0.11368874050E+03  0.00000000000E+00 0. -1.
         21   -1    0    0  501  503 -0.00000000000E+00 -0.00000000000E+00 -0.71132689719E+03  0.71132689719E+03  0.00000000000E+00 0. -1.
          6    2    1    2  501    0  0.17736079125E+03  0.19450053814E+02 -0.50030206580E+03  0.55841129694E+03  0.17229586369E+03 0.  0.
         24    2    3    3    0    0  0.15158732647E+03  0.63004468708E+02 -0.45406263361E+03  0.48969860792E+03  0.81753108403E+02 0.  0.
         -6    2    1    2    0  502 -0.17736079125E+03 -0.19450053814E+02 -0.97336090892E+02  0.26660434076E+03  0.17253522845E+03 0.  0.
        -24    2    5    5    0    0 -0.54925204938E+02 -0.28948422950E+02 -0.10081639030E+03  0.14366169439E+03  0.81363066286E+02 0.  0.
          5    1    3    3  501    0  0.25773464778E+02 -0.43554414894E+02 -0.46239432185E+02  0.68712689019E+02  0.47000000000E+01 0. -1.
        -13    1    4    4    0    0  0.17724260999E+02 -0.14493435576E+02 -0.26519032970E+02  0.35035242434E+02  0.00000000000E+00 0.  1.
         14    1    4    4    0    0  0.13386306547E+03  0.77497904285E+02 -0.42754360064E+03  0.45466336548E+03  0.00000000000E+00 0. -1.
         -5    1    5    5    0  502 -0.12243558631E+03  0.94983691359E+01  0.34802994038E+01  0.12294264636E+03  0.47000000000E+01 0.  1.
         11    1    6    6    0    0 -0.27540555881E+02 -0.12014472605E+02  0.72427615568E+01  0.30907723390E+02  0.00000000000E+00 0. -1.
        -12    1    6    6    0    0 -0.27384649057E+02 -0.16933950345E+02 -0.10805915185E+03  0.11275397100E+03  0.00000000000E+00 0.  1.
</event>
<event>
12    1  0.8462562E-002  0.1779063E+03  0.7818608E-02  0.1169963E+00
         21   -1    0    0  501  502  0.00000000000E+00  0.00000000000E+00  0.27964177581E+03  0.27964177581E+03  0.00000000000E+00 0. -1.
         21   -1    0    0  502  503 -0.00000000000E+00 -0.00000000000E+00 -0.11630752067E+03  0.11630752067E+03  0.00000000000E+00 0. -1.
         -6    2    1    2    0  503 -0.44045595810E+02 -0.52194463126E+01  0.47772468018E+02  0.18420876289E+03  0.17228871842E+03 0.  0.
        -24    2    3    3    0    0  0.27750257905E+02 -0.42794708348E+02  0.50340199980E+02  0.10299775271E+03  0.73979304213E+02 0.  0.
          6    2    1    2  501    0  0.44045595810E+02  0.52194463126E+01  0.11556178711E+03  0.21174053359E+03  0.17179135541E+03 0.  0.
         24    2    5    5    0    0  0.43858420393E+02  0.67730854966E+02  0.62498308694E+02  0.12960933374E+03  0.79884360485E+02 0.  0.
          5    1    5    5  501    0  0.18717541665E+00 -0.62511408654E+02  0.53063478421E+02  0.82131199849E+02  0.47000000000E+01 0. -1.
        -11    1    6    6    0    0  0.58921143572E+02  0.30299610801E+02  0.16220221910E+02  0.68211899060E+02  0.00000000000E+00 0.  1.
         12    1    6    6    0    0 -0.15062723179E+02  0.37431244166E+02  0.46278086784E+02  0.61397434684E+02  0.00000000000E+00 0. -1.
         -5    1    3    3    0  503 -0.71795853715E+02  0.37575262036E+02 -0.25677319617E+01  0.81211010184E+02  0.47000000000E+01 0.  1.
         13    1    4    4    0    0  0.29796506335E+01  0.14295224824E+02 -0.88808453791E+01  0.17090967946E+02  0.00000000000E+00 0. -1.
        -14    1    4    4    0    0  0.24770607272E+02 -0.57089933173E+02  0.59221045359E+02  0.85906784759E+02  0.00000000000E+00 0.  1.
</event>
<event>
12    1  0.8462562E-002  0.2055579E+03  0.7818608E-02  0.1145175E+00
         21   -1    0    0  501  502  0.00000000000E+00  0.00000000000E+00  0.25321439008E+03  0.25321439008E+03  0.00000000000E+00 0. -1.
         21   -1    0    0  502  503 -0.00000000000E+00 -0.00000000000E+00 -0.19004693682E+03  0.19004693682E+03  0.00000000000E+00 0. -1.
         -6    2    1    2    0  503 -0.10454063308E+03  0.39277663237E+02  0.10927166954E+03  0.23279677087E+03  0.17257624393E+03 0.  0.
        -24    2    3    3    0    0 -0.69247701302E+02  0.75770934036E+02  0.12526713000E+03  0.17936181412E+03  0.77086496398E+02 0.  0.
          6    2    1    2  501    0  0.10454063308E+03 -0.39277663237E+02 -0.46104216285E+02  0.21046455603E+03  0.17233180725E+03 0.  0.
         24    2    5    5    0    0  0.69793299827E+02  0.26627632814E+02 -0.72907306961E+02  0.13114633060E+03  0.79396152874E+02 0.  0.
          5    1    5    5  501    0  0.34747333254E+02 -0.65905296052E+02  0.26803090676E+02  0.79318225432E+02  0.47000000000E+01 0. -1.
        -11    1    6    6    0    0 -0.31690410613E+01  0.35246878362E+01  0.14331650592E+02  0.15095113589E+02  0.00000000000E+00 0.  1.
         12    1    6    6    0    0  0.72962340888E+02  0.23102944978E+02 -0.87238957552E+02  0.11605121701E+03  0.00000000000E+00 0. -1.
         -5    1    3    3    0  503 -0.35292931778E+02 -0.36493270798E+02 -0.15995460458E+02  0.53434956745E+02  0.47000000000E+01 0.  1.
         11    1    4    4    0    0 -0.28136077276E+02 -0.11782030648E+02  0.40833842768E+02  0.50969184866E+02  0.00000000000E+00 0. -1.
        -12    1    4    4    0    0 -0.41111624026E+02  0.87552964684E+02  0.84433287230E+02  0.12839262926E+03  0.00000000000E+00 0.  1.
</event>
<event>
12    1  0.8462562E-002  0.1960404E+03  0.7818608E-02  0.1153159E+00
         21   -1    0    0  503  502  0.00000000000E+00  0.00000000000E+00  0.69268148372E+03  0.69268148372E+03  0.00000000000E+00 0. -1.
         21   -1    0    0  501  503 -0.00000000000E+00 -0.00000000000E+00 -0.55507855038E+02  0.55507855038E+02  0.00000000000E+00 0.  1.
          6    2    1    2  501    0 -0.64284523087E+01  0.93435389418E+02  0.33195286230E+03  0.38543383792E+03  0.17203210058E+03 0.  0.
         24    2    3    3    0    0  0.25647584455E+02  0.43072394966E+02  0.69769055005E+02  0.11649566258E+03  0.78679657905E+02 0.  0.
         -6    2    1    2    0  502  0.64284523087E+01 -0.93435389418E+02  0.30522076639E+03  0.36275550084E+03  0.17222177610E+03 0.  0.
        -24    2    5    5    0    0  0.66395921884E+02 -0.65071910283E+02  0.24202619538E+03  0.27101549778E+03  0.78930024965E+02 0.  0.
          5    1    3    3  501    0 -0.32076036764E+02  0.50362994453E+02  0.26218380729E+03  0.26893817533E+03  0.47000000000E+01 0. -1.
        -13    1    4    4    0    0  0.41662999069E+02  0.50939663169E+01  0.61498629361E+02  0.74456936530E+02  0.00000000000E+00 0.  1.
         14    1    4    4    0    0 -0.16015414613E+02  0.37978428649E+02  0.82704256440E+01  0.42038726053E+02  0.00000000000E+00 0. -1.
         -5    1    5    5    0  502 -0.59967469575E+02 -0.28363479135E+02  0.63194571010E+02  0.91740003058E+02  0.47000000000E+01 0.  1.
         13    1    6    6    0    0  0.45162334023E+02  0.46176659039E+01  0.12688701725E+03  0.13476377257E+03  0.00000000000E+00 0. -1.
        -14    1    6    6    0    0  0.21233587861E+02 -0.69689576187E+02  0.11513917813E+03  0.13625172521E+03  0.00000000000E+00 0.  1.
</event>
<event>
12    1  0.8462562E-002  0.1829459E+03  0.7818608E-02  0.1165128E+00
         21   -1    0    0  503  502  0.00000000000E+00  0.00000000000E+00  0.48179238211E+02  0.48179238211E+02  0.00000000000E+00 0. -1.
         21   -1    0    0  501  503 -0.00000000000E+00 -0.00000000000E+00 -0.14381392011E+04  0.14381392011E+04  0.00000000000E+00 0. -1.
          6    2    1    2  501    0 -0.13158877076E+02 -0.59377167460E+02 -0.12307068104E+04  0.12442300608E+04  0.17254097179E+03 0.  0.
         24    2    3    3    0    0 -0.23467331004E+02 -0.49454893597E+00 -0.10617036279E+04  0.10649046787E+04  0.79097540386E+02 0.  0.
         -6    2    1    2    0  502  0.13158877076E+02  0.59377167460E+02 -0.15925315247E+03  0.24208837850E+03  0.17189069891E+03 0.  0.
        -24    2    5    5    0    0  0.73296136899E+02  0.28046330664E+02 -0.10424356710E+03  0.15464550666E+03  0.83003560766E+02 0.  0.
          5    1    3    3  501    0  0.10308453927E+02 -0.58882618524E+02 -0.16900318247E+03  0.17932538212E+03  0.47000000000E+01 0. -1.
        -13    1    4    4    0    0 -0.32820291044E+02  0.86582159987E+01 -0.18406755975E+03  0.18717105214E+03  0.00000000000E+00 0.  1.
         14    1    4    4    0    0  0.93529600402E+01 -0.91527649347E+01 -0.87763606816E+03  0.87773362651E+03  0.00000000000E+00 0. -1.
         -5    1    5    5    0  502 -0.60137259823E+02  0.31330836796E+02 -0.55009585368E+02  0.87442871840E+02  0.47000000000E+01 0.  1.
         11    1    6    6    0    0 -0.15593223789E+02  0.12942601568E+02 -0.56425803329E+01  0.21035642997E+02  0.00000000000E+00 0. -1.
        -12    1    6    6    0    0  0.88889360688E+02  0.15103729096E+02 -0.98600986765E+02  0.13360986366E+03  0.00000000000E+00 0.  1.
</event>
<event>
12    1  0.8462562E-002  0.1835658E+03  0.7818608E-02  0.1164825E+00
         21   -1    0    0  503  502  0.00000000000E+00  0.00000000000E+00  0.90947991432E+02  0.90947991432E+02  0.00000000000E+00 0. -1.
         21   -1    0    0  501  503 -0.00000000000E+00 -0.00000000000E+00 -0.47207074116E+03  0.47207074116E+03  0.00000000000E+00 0. -1.
          6    2    1    2  501    0 -0.38206824661E+02  0.58574306634E+02 -0.32272636390E+03  0.37038810724E+03  0.16776272881E+03 0.  0.
         24    2    3    3    0    0 -0.17848796657E+02 -0.28000557613E+02 -0.21729231155E+03  0.23237330434E+03  0.75357767634E+02 0.  0.
         -6    2    1    2    0  502  0.38206824661E+02 -0.58574306634E+02 -0.58396385831E+02  0.19263062536E+03  0.16972244725E+03 0.  0.
        -24    2    5    5    0    0  0.28859911438E+02 -0.82064500565E+02  0.10821684086E+02  0.11879035721E+03  0.80165849195E+02 0.  0.
          5    1    3    3  501    0 -0.20358028004E+02  0.86574864247E+02 -0.10543405235E+03  0.13801480290E+03  0.47000000000E+01 0. -1.
        -11    1    4    4    0    0  0.25924892195E+01  0.16302158124E+01 -0.18178398234E+03  0.18180977652E+03  0.00000000000E+00 0.  1.
         12    1    4    4    0    0 -0.20441285876E+02 -0.29630773425E+02 -0.35508329208E+02  0.50563527816E+02  0.00000000000E+00 0. -1.
         -5    1    5    5    0  502  0.93469132223E+01  0.23490193931E+02 -0.69218069917E+02  0.73840268152E+02  0.47000000000E+01 0.  1.
         11    1    6    6    0    0  0.92603129722E+01  0.14788847604E+02  0.97076143529E+01  0.19967503254E+02  0.00000000000E+00 0. -1.
        -12    1    6    6    0    0  0.19599598466E+02 -0.96853348169E+02  0.11140697335E+01  0.98822853951E+02  0.00000000000E+00 0.  1.
</event>
<event>
12    1  0.8462562E-002  0.1779554E+03  0.7818608E-02  0.1171650E+00
         21   -1    0    0  501  502  0.00000000000E+00  0.00000000000E+00  0.74532788776E+02  0.74532788776E+02  0.00000000000E+00 0. -1.
         21   -1    0    0  502  503 -0.00000000000E+00 -0.00000000000E+00 -0.42612978272E+03  0.42612978272E+03  0.00000000000E+00 0. -1.
         -6    2    1    2    0  503 -0.20744854944E+02 -0.35386684300E+02 -0.12696559038E+03  0.21860557088E+03  0.17316341428E+03 0.  0.
        -24    2    3    3    0    0 -0.23408486466E+02 -0.69155027959E+02 -0.24359976441E+02  0.11045106113E+03  0.79219021211E+02 0.  0.
          6    2    1    2  501    0  0.20744854944E+02  0.35386684300E+02 -0.22463140356E+03  0.28205700061E+03  0.16557269612E+03 0.  0.
         24    2    5    5    0    0  0.15314383899E+02 -0.21801918578E+02 -0.20451203094E+03  0.22100861432E+03  0.79434141255E+02 0.  0.
          5    1    5    5  501    0  0.54304710449E+01  0.57188602878E+02 -0.20119372619E+02  0.61048386297E+02  0.47000000000E+01 0. -1.
        -11    1    6    6    0    0  0.40962113489E+02 -0.12020728001E+02 -0.17726187723E+03  0.18232982686E+03  0.00000000000E+00 0.  1.
         12    1    6    6    0    0 -0.25647729590E+02 -0.97811905765E+01 -0.27250153706E+02  0.38678787458E+02  0.00000000000E+00 0. -1.
         -5    1    3    3    0  503  0.26636315225E+01  0.33768343659E+02 -0.10260561394E+03  0.10815450975E+03  0.47000000000E+01 0.  1.
         11    1    4    4    0    0 -0.12994308711E+02 -0.59510317804E+02  0.19812842843E+02  0.64053717500E+02  0.00000000000E+00 0. -1.
        -12    1    4    4    0    0 -0.10414177756E+02 -0.96447101550E+01 -0.44172819284E+02  0.46397343629E+02  0.00000000000E+00 0.  1.
</event>
<event>
12    1  0.8462562E-002  0.2984429E+03  0.7818608E-02  0.1086815E+00
         21   -1    0    0  503  502  0.00000000000E+00  0.00000000000E+00  0.17577197470E+03  0.17577197470E+03  0.00000000000E+00 0. -1.
         21   -1    0    0  501  503 -0.00000000000E+00 -0.00000000000E+00 -0.53719254425E+03  0.53719254425E+03  0.00000000000E+00 0.  1.
          6    2    1    2  501    0 -0.22781024851E+03  0.62531038585E+02 -0.27742926908E+03  0.40292789521E+03  0.17197746736E+03 0.  0.
         24    2    3    3    0    0 -0.79561261558E+02  0.26073309186E+02 -0.20155701678E+03  0.23238283713E+03  0.79791855396E+02 0.  0.
         -6    2    1    2    0  502  0.22781024851E+03 -0.62531038585E+02 -0.83991300481E+02  0.31003662374E+03  0.18237469504E+03 0.  0.
        -24    2    5    5    0    0  0.20726071476E+03 -0.10827254224E+03 -0.79220256314E+02  0.25944589973E+03  0.79726900047E+02 0.  0.
          5    1    3    3  501    0 -0.14824898695E+03  0.36457729399E+02 -0.75872252302E+02  0.17054505808E+03  0.47000000000E+01 0. -1.
        -11    1    4    4    0    0 -0.89713969217E+02  0.22506586146E+01 -0.15464728555E+03  0.17880001304E+03  0.00000000000E+00 0.  1.
         12    1    4    4    0    0  0.10152707659E+02  0.23822650571E+02 -0.46909731230E+02  0.53582824087E+02  0.00000000000E+00 0. -1.
         -5    1    5    5    0  502  0.20549533755E+02  0.45741503651E+02 -0.47710441671E+01  0.50590724013E+02  0.47000000000E+01 0.  1.
         13    1    6    6    0    0  0.14354971377E+03 -0.77622422292E+02 -0.14909833988E+02  0.16387209621E+03  0.00000000000E+00 0. -1.
        -14    1    6    6    0    0  0.63711000984E+02 -0.30650119944E+02 -0.64310422326E+02  0.95573803517E+02  0.00000000000E+00 0.  1.
</event>
<event>
12    1  0.8462562E-002  0.2357282E+03  0.7818608E-02  0.1122880E+00
         21   -1    0    0  501  502  0.00000000000E+00  0.00000000000E+00  0.55264053373E+02  0.55264053373E+02  0.00000000000E+00 0.  1.
         21   -1    0    0  502  503 -0.00000000000E+00 -0.00000000000E+00 -0.11810875646E+04  0.11810875646E+04  0.00000000000E+00 0. -1.
         -6    2    1    2    0  503 -0.13784167445E+03  0.80481244822E+02 -0.80353024831E+03  0.83705133291E+03  0.17180371358E+03 0.  0.
        -24    2    3    3    0    0 -0.41713147455E+02  0.43731965162E+02 -0.19057601975E+03  0.21549990337E+03  0.80427094943E+02 0.  0.
          6    2    1    2  501    0  0.13784167445E+03 -0.80481244822E+02 -0.32229326296E+03  0.39930028510E+03  0.17346530590E+03 0.  0.
         24    2    5    5    0    0  0.33688465491E+00 -0.87640050699E+01 -0.85605418861E+02  0.11629117705E+03  0.78220386384E+02 0.  0.
          5    1    5    5  501    0  0.13750478979E+03 -0.71717239752E+02 -0.23668784409E+03  0.28300910804E+03  0.47000000000E+01 0. -1.
        -11    1    6    6    0    0 -0.26569906072E+02 -0.12158250816E+02 -0.84209928662E+02  0.89135262701E+02  0.00000000000E+00 0.  1.
         12    1    6    6    0    0  0.26906790727E+02  0.33942457463E+01 -0.13954901992E+01  0.27155914352E+02  0.00000000000E+00 0. -1.
         -5    1    3    3    0  503 -0.96128526995E+02  0.36749279660E+02 -0.61295422856E+03  0.62155142954E+03  0.47000000000E+01 0.  1.
         11    1    4    4    0    0 -0.12081900861E+02 -0.23215834259E+02 -0.66057681634E+02  0.71053251802E+02  0.00000000000E+00 0. -1.
        -12    1    4    4    0    0 -0.29631246593E+02  0.66947799421E+02 -0.12451833811E+03  0.14444665157E+03  0.00000000000E+00 0.  1.
</event>
<event>
12    1  0.8462562E-002  0.1738141E+03  0.7818608E-02  0.1174085E+00
         21   -1    0    0  503  502  0.00000000000E+00  0.00000000000E+00  0.33274430479E+03  0.33274430479E+03  0.00000000000E+00 0.  1.
         21   -1    0    0  501  503 -0.00000000000E+00 -0.00000000000E+00 -0.21025025913E+03  0.21025025913E+03  0.00000000000E+00 0.  1.
          6    2    1    2  501    0 -0.20777808975E+02 -0.13922050019E+02 -0.14362808299E+03  0.22547807822E+03  0.17200522292E+03 0.  0.
         24    2    3    3    0    0  0.39746887991E+01 -0.72669139143E+02 -0.84140349133E+02  0.13815805127E+03  0.81923420609E+02 0.  0.
         -6    2    1    2    0  502  0.20777808975E+02  0.13922050019E+02  0.26612212864E+03  0.31751648570E+03  0.17137733372E+03 0.  0.
        -24    2    5    5    0    0  0.33274518666E+02 -0.55628304744E+02  0.15463457937E+03  0.18543702763E+03  0.79204395066E+02 0.  0.
          5    1    3    3  501    0 -0.24752497774E+02  0.58747089124E+02 -0.59487733853E+02  0.87320026944E+02  0.47000000000E+01 0. -1.
        -13    1    4    4    0    0 -0.14537970886E+01  0.11164170743E+02 -0.43315722616E+02  0.44754933360E+02  0.00000000000E+00 0.  1.
         14    1    4    4    0    0  0.54284858877E+01 -0.83833309886E+02 -0.40824626518E+02  0.93403117912E+02  0.00000000000E+00 0. -1.
         -5    1    5    5    0  502 -0.12496709691E+02  0.69550354763E+02  0.11148754928E+03  0.13207945807E+03  0.47000000000E+01 0.  1.
         13    1    6    6    0    0 -0.15663415603E+02 -0.42614741411E+01  0.10608450152E+01  0.16267395070E+02  0.00000000000E+00 0. -1.
        -14    1    6    6    0    0  0.48937934269E+02 -0.51366830603E+02  0.15357373435E+03  0.16916963256E+03  0.00000000000E+00 0.  1.
</event>
<event>
12    1  0.8462562E-002  0.1826575E+03  0.7818608E-02  0.1165707E+00
         21   -1    0    0  501  502  0.00000000000E+00  0.00000000000E+00  0.43737836120E+02  0.43737836120E+02  0.00000000000E+00 0. -1.
         21   -1    0    0  502  503 -0.00000000000E+00 -0.00000000000E+00 -0.93794745675E+03  0.93794745675E+03  0.00000000000E+00 0.  1.
         -6    2    1    2    0  503 -0.48904411502E+02 -0.25019614235E+02 -0.66204713640E+03  0.68628189363E+03  0.17221731666E+03 0.  0.
        -24    2    3    3    0    0 -0.46099800840E+02 -0.20395894019E+00 -0.17337937124E+03  0.19695382649E+03  0.81272197961E+02 0.  0.
          6    2    1    2  501    0  0.48904411502E+02  0.25019614235E+02 -0.23216248423E+03  0.29540339923E+03  0.17420139676E+03 0.  0.
         24    2    5    5    0    0 -0.19656320886E+02  0.61072058948E+02 -0.15375749020E+03  0.18508664673E+03  0.80619685365E+02 0.  0.
          5    1    5    5  501    0  0.68560732388E+02 -0.36052444713E+02 -0.78404994027E+02  0.11031675251E+03  0.47000000000E+01 0. -1.
        -13    1    6    6    0    0 -0.21357522829E+02  0.24605103007E+02 -0.14351990169E+03  0.14717172641E+03  0.00000000000E+00 0.  1.
         14    1    6    6    0    0  0.17012019430E+01  0.36466955941E+02 -0.10237588513E+02  0.37914920311E+02  0.00000000000E+00 0. -1.
         -5    1    3    3    0  503 -0.28046106617E+01 -0.24815655294E+02 -0.48866776516E+03  0.48932806714E+03  0.47000000000E+01 0.  1.
         13    1    4    4    0    0  0.19319658417E+02  0.15010102616E+02 -0.64977415777E+02  0.69430662844E+02  0.00000000000E+00 0. -1.
        -14    1    4    4    0    0 -0.65419459257E+02 -0.15214061556E+02 -0.10840195546E+03  0.12752316365E+03  0.00000000000E+00 0.  1.
</event>
<event>
12    1  0.8462562E-002  0.2508210E+03  0.7818608E-02  0.1112934E+00
         21   -1    0    0  501  502  0.00000000000E+00  0.00000000000E+00  0.67252491159E+03  0.67252491159E+03  0.00000000000E+00 0.  1.
         21   -1    0    0  502  503 -0.00000000000E+00 -0.00000000000E+00 -0.18734825862E+03  0.18734825862E+03  0.00000000000E+00 0. -1.
         -6    2    1    2    0  503  0.92370196995E+02  0.15735366574E+03 -0.61971044371E+02  0.25836326406E+03  0.17210094846E+03 0.  0.
        -24    2    3    3    0    0  0.96942980473E+02  0.79564733805E+02 -0.92321246938E+02  0.17460615644E+03  0.78965871767E+02 0.  0.
          6    2    1    2  501    0 -0.92370196995E+02 -0.15735366574E+03  0.54714769735E+03  0.60150990615E+03  0.17073703487E+03 0.  0.
         24    2    5    5    0    0 -0.35966754595E+01 -0.92124507495E+02  0.35028506686E+03  0.37587177442E+03  0.10039971008E+03 0.  0.
          5    1    5    5  501    0 -0.88773521536E+02 -0.65229158242E+02  0.19686263048E+03  0.22563813173E+03  0.47000000000E+01 0. -1.
        -13    1    6    6    0    0 -0.15007541177E+02 -0.97285994683E+02  0.34974775703E+03  0.36333632436E+03  0.00000000000E+00 0.  1.
         14    1    6    6    0    0  0.11410865717E+02  0.51614871885E+01  0.53730983609E+00  0.12535450062E+02  0.00000000000E+00 0. -1.
         -5    1    3    3    0  503 -0.45727834777E+01  0.77788931932E+02  0.30350202567E+02  0.83757107613E+02  0.47000000000E+01 0.  1.
         13    1    4    4    0    0  0.64728039261E+02  0.89622673456E+02 -0.86472214111E+02  0.14035450288E+03  0.00000000000E+00 0. -1.
        -14    1    4    4    0    0  0.32214941211E+02 -0.10057939651E+02 -0.58490328261E+01  0.34251653570E+02  0.00000000000E+00 0.  1.
</event>
<event>
12    1  0.8462562E-002  0.2588887E+03  0.7818608E-02  0.1108409E+00
         21   -1    0    0  501  502  0.00000000000E+00  0.00000000000E+00  0.30123619502E+03  0.30123619502E+03  0.00000000000E+00 0. -1.
         21   -1    0    0  502  503 -0.00000000000E+00 -0.00000000000E+00 -0.29376957056E+03  0.29376957056E+03  0.00000000000E+00 0. -1.
         -6    2    1    2    0  503  0.19308996502E+03 -0.20345170142E+01 -0.14623083263E+03  0.29393058638E+03  0.16650483280E+03 0.  0.
        -24    2    3    3    0    0  0.99787069917E+02 -0.47686762359E+02 -0.13044386563E+03  0.18875988672E+03  0.79894969351E+02 0.  0.
          6    2    1    2  501    0 -0.19308996502E+03  0.20345170142E+01  0.15369745709E+03  0.30107517919E+03  0.17243979053E+03 0.  0.
         24    2    5    5    0    0 -0.75968714720E+02  0.54718078825E+02  0.39779453142E+02  0.12934182023E+03  0.79884840878E+02 0.  0.
          5    1    5    5  501    0 -0.11712125030E+03 -0.52683561811E+02  0.11391800395E+03  0.17173335896E+03  0.47000000000E+01 0. -1.
        -13    1    6    6    0    0 -0.18680617910E+02 -0.81541806804E+01 -0.17442721617E+02  0.26827312304E+02  0.00000000000E+00 0.  1.
         14    1    6    6    0    0 -0.57288096809E+02  0.62872259505E+02  0.57222174759E+02  0.10251450793E+03  0.00000000000E+00 0. -1.
         -5    1    3    3    0  503  0.93302895104E+02  0.45652245345E+02 -0.15786967004E+02  0.10517069966E+03  0.47000000000E+01 0.  1.
         13    1    4    4    0    0  0.10124566785E+03 -0.24293699591E+02 -0.12828702735E+03  0.16522236678E+03  0.00000000000E+00 0. -1.
        -14    1    4    4    0    0 -0.14585979296E+01 -0.23393062768E+02 -0.21568382758E+01  0.23537519940E+02  0.00000000000E+00 0.  1.
</event>
<event>
12    1  0.8462562E-002  0.1805631E+03  0.7818608E-02  0.1167390E+00
         21   -1    0    0  503  502  0.00000000000E+00  0.00000000000E+00  0.67364316364E+03  0.67364316364E+03  0.00000000000E+00 0. -1.
         21   -1    0    0  501  503 -0.00000000000E+00 -0.00000000000E+00 -0.11166179406E+03  0.11166179406E+03  0.00000000000E+00 0. -1.
          6    2    1    2  501    0  0.51368880323E+02 -0.16683929774E+02 -0.15082426005E+02  0.18065162432E+03  0.17172773339E+03 0.  0.
         24    2    3    3    0    0  0.22194159085E+02  0.48894333067E+02  0.22596583138E+02  0.99451435606E+02  0.80602394326E+02 0.  0.
         -6    2    1    2    0  502 -0.51368880323E+02  0.16683929774E+02  0.57706379559E+03  0.60465333338E+03  0.17229600696E+03 0.  0.
        -24    2    5    5    0    0 -0.64147835810E+02  0.35499687719E+02  0.57043497773E+03  0.58050036925E+03  0.78800014053E+02 0.  0.
          5    1    3    3  501    0  0.29174721238E+02 -0.65578262841E+02 -0.37679009143E+02  0.81200188710E+02  0.47000000000E+01 0. -1.
        -13    1    4    4    0    0 -0.25833233014E+02  0.16804558315E+02  0.27736735337E+02  0.41461736520E+02  0.00000000000E+00 0.  1.
         14    1    4    4    0    0  0.48027392099E+02  0.32089774751E+02 -0.51401521981E+01  0.57989699086E+02  0.00000000000E+00 0. -1.
         -5    1    5    5    0  502  0.12778955487E+02 -0.18815757945E+02  0.66288178619E+01  0.24152964137E+02  0.47000000000E+01 0.  1.
         11    1    6    6    0    0 -0.68592714222E+02  0.24566672359E+02  0.56008141128E+03  0.56480055692E+03  0.00000000000E+00 0. -1.
        -12    1    6    6    0    0  0.44448784118E+01  0.10933015360E+02  0.10353566447E+02  0.15699812328E+02  0.00000000000E+00 0.  1.
</event>
<event>
12    1  0.8462562E-002  0.2036808E+03  0.7818608E-02  0.1146707E+00
         21   -1    0    0  501  502  0.00000000000E+00  0.00000000000E+00  0.31456542918E+03  0.31456542918E+03  0.00000000000E+00 0.  1.
         21   -1    0    0  502  503 -0.00000000000E+00 -0.00000000000E+00 -0.29796578042E+03  0.29796578042E+03  0.00000000000E+00 0.  1.
         -6    2    1    2    0  503 -0.98447506558E+02 -0.47280464072E+02 -0.22043051933E+03  0.30012580576E+03  0.17192594800E+03 0.  0.
        -24    2    3    3    0    0  0.30146330479E+02 -0.29123028339E+02 -0.69140379650E+02  0.10068442650E+03  0.60000080163E+02 0.  0.
          6    2    1    2  501    0  0.98447506558E+02  0.47280464072E+02  0.23703016810E+03  0.31240540384E+03  0.17171628325E+03 0.  0.
         24    2    5    5    0    0  0.11657989809E+03  0.27188467765E+02  0.10597789976E+03  0.17850522097E+03  0.79389629405E+02 0.  0.
          5    1    5    5  501    0 -0.18132391534E+02  0.20091996306E+02  0.13105226833E+03  0.13390018287E+03  0.47000000000E+01 0. -1.
        -13    1    6    6    0    0  0.24817966586E+02  0.16152358194E+01  0.73928026179E+02  0.77999317349E+02  0.00000000000E+00 0.  1.
         14    1    6    6    0    0  0.91761931507E+02  0.25573231946E+02  0.32049873582E+02  0.10050590362E+03  0.00000000000E+00 0. -1.
         -5    1    3    3    0  503 -0.12859383704E+03 -0.18157435733E+02 -0.15129013968E+03  0.19944137926E+03  0.47000000000E+01 0.  1.
         11    1    4    4    0    0 -0.70307677521E+01 -0.32675660681E+02 -0.19955379256E+02  0.38927466619E+02  0.00000000000E+00 0. -1.
        -12    1    4    4    0    0  0.37177098231E+02  0.35526323417E+01 -0.49185000394E+02  0.61756959876E+02  0.00000000000E+00 0.  1.
</event>
<event>
12    1  0.8462562E-002  0.6036852E+03  0.7818608E-02  0.9898148E-01
         21   -1    0    0  501  502  0.00000000000E+00  0.00000000000E+00  0.58344514406E+03  0.58344514406E+03  0.00000000000E+00 0.  1.
         21   -1    0    0  502  503 -0.00000000000E+00 -0.00000000000E+00 -0.70883962324E+03  0.70883962324E+03  0.00000000000E+00 0. -1.
         -6    2    1    2    0  503 -0.26568988869E+03 -0.51341181437E+03  0.16099576215E+03  0.62411175728E+03  0.17150230918E+03 0.  0.
        -24    2    3    3    0    0 -0.65948906673E+02 -0.24872040200E+03  0.97940305252E+02  0.28653793672E+03  0.79376250387E+02 0.  0.
          6    2    1    2  501    0  0.26568988869E+03  0.51341181437E+03 -0.28639024134E+03  0.66817301002E+03  0.17393387507E+03 0.  0.
         24    2    5    5    0    0  0.15659117183E+03  0.37380303058E+03 -0.26001497872E+03  0.48897790124E+03  0.85100516885E+02 0.  0.
          5    1    5    5  501    0  0.10909871686E+03  0.13960878379E+03 -0.26375262612E+02  0.17919510878E+03  0.47000000000E+01 0. -1.
        -11    1    6    6    0    0  0.63065073696E+02  0.15718311151E+03 -0.60052289337E+02  0.17969421671E+03  0.00000000000E+00 0.  1.
         12    1    6    6    0    0  0.93526098134E+02  0.21661991907E+03 -0.19996268939E+03  0.30928368453E+03  0.00000000000E+00 0. -1.
         -5    1    3    3    0  503 -0.19974098202E+03 -0.26469141237E+03  0.63055456902E+02  0.33757382056E+03  0.47000000000E+01 0.  1.
         13    1    4    4    0    0 -0.30881318600E+01 -0.23844123510E+02 -0.13756088954E+02  0.27700338765E+02  0.00000000000E+00 0. -1.
        -14    1    4    4    0    0 -0.62860774813E+02 -0.22487627849E+03  0.11169639421E+03  0.25883759796E+03  0.00000000000E+00 0.  1.
</event>
<event>
12    1  0.8462562E-002  0.2913649E+03  0.7818608E-02  0.1089782E+00
         21   -1    0    0  501  502  0.00000000000E+00  0.00000000000E+00  0.45491540853E+02  0.45491540853E+02  0.00000000000E+00 0.  1.
         21   -1    0    0  502  503 -0.00000000000E+00 -0.00000000000E+00 -0.19855327103E+04  0.19855327103E+04  0.00000000000E+00 0.  1.
         -6    2    1    2    0  503  0.18052540637E+03 -0.14963470215E+03 -0.71203973113E+03  0.76893033092E+03  0.17109444374E+03 0.  0.
        -24    2    3    3    0    0  0.20221542746E+03 -0.15078043157E+03 -0.68607271585E+03  0.73475218596E+03  0.74425705869E+02 0.  0.
          6    2    1    2  501    0 -0.18052540637E+03  0.14963470215E+03 -0.12280014383E+04  0.12620939202E+04  0.17295538306E+03 0.  0.
         24    2    5    5    0    0 -0.30519891555E+02  0.68557164274E+02 -0.68641997224E+03  0.69428427252E+03  0.72296087248E+02 0.  0.
          5    1    5    5  501    0 -0.15000551482E+03  0.81077537879E+02 -0.54158146604E+03  0.56780964767E+03  0.47000000000E+01 0. -1.
        -11    1    6    6    0    0 -0.52303624367E+02  0.57487843227E+02 -0.57411386111E+03  0.57935071137E+03  0.00000000000E+00 0.  1.
         12    1    6    6    0    0  0.21783732811E+02  0.11069321047E+02 -0.11230611112E+03  0.11493356115E+03  0.00000000000E+00 0. -1.
         -5    1    3    3    0  503 -0.21690021089E+02  0.11457294182E+01 -0.25967015282E+02  0.34178144967E+02  0.47000000000E+01 0.  1.
         11    1    4    4    0    0  0.67835844648E+02 -0.45865182640E+02 -0.32944953234E+03  0.33947357946E+03  0.00000000000E+00 0. -1.
        -12    1    4    4    0    0  0.13437958281E+03 -0.10491524893E+03 -0.35662318351E+03  0.39527860649E+03  0.00000000000E+00 0.  1.
</event>
<event>
12    1  0.8462562E-002  0.2377739E+03  0.7818608E-02  0.1121291E+00
         21   -1    0    0  503  502  0.00000000000E+00  0.00000000000E+00  0.50753868736E+03  0.50753868736E+03  0.00000000000E+00 0.  1.
         21   -1    0    0  501  503 -0.00000000000E+00 -0.00000000000E+00 -0.28557637923E+03  0.28557637923E+03  0.00000000000E+00 0.  1.
          6    2    1    2  501    0 -0.57205661046E+02 -0.15373264273E+03 -0.19874268583E+03  0.30986656319E+03  0.17208259271E+03 0.  0.
         24    2    3    3    0    0 -0.70728842090E+02 -0.12657451894E+03 -0.21801068282E+03  0.27362037965E+03  0.79471859099E+02 0.  0.
         -6    2    1    2    0  502  0.57205661046E+02  0.15373264273E+03  0.42070499396E+03  0.48324850340E+03  0.17213428190E+03 0.  0.
        -24    2    5    5    0    0  0.30505468799E+01  0.61989304768E+02  0.87776857660E+02  0.13365895781E+03  0.79422670062E+02 0.  0.
          5    1    3    3  501    0  0.13523181044E+02 -0.27158123790E+02  0.19267996986E+02  0.36246183540E+02  0.47000000000E+01 0. -1.
        -11    1    4    4    0    0 -0.33238859598E+01  0.53525099072E+01 -0.46751675246E+02  0.47174322661E+02  0.00000000000E+00 0.  1.
         12    1    4    4    0    0 -0.67404956130E+02 -0.13192702885E+03 -0.17125900757E+03  0.22644605699E+03  0.00000000000E+00 0. -1.
         -5    1    5    5    0  502  0.54155114166E+02  0.91743337964E+02  0.33292813629E+03  0.34958954559E+03  0.47000000000E+01 0.  1.
         11    1    6    6    0    0  0.38245040102E+02  0.14552241153E+02  0.44364054043E+02  0.60354122528E+02  0.00000000000E+00 0. -1.
        -12    1    6    6    0    0 -0.35194493222E+02  0.47437063614E+02  0.43412803617E+02  0.73304835280E+02  0.00000000000E+00 0.  1.
</event>
<event>
12    1  0.8462562E-002  0.1744012E+03  0.7818608E-02  0.1173603E+00
         21   -1    0    0  501  502  0.00000000000E+00  0.00000000000E+00  0.17978894362E+02  0.17978894362E+02  0.00000000000E+00 0. -1.
         21   -1    0    0  502  503 -0.00000000000E+00 -0.00000000000E+00 -0.24163401211E+04  0.24163401211E+04  0.00000000000E+00 0. -1.
         -6    2    1    2    0  503 -0.27269020700E+01 -0.31959142968E+02 -0.18729619889E+04  0.18810641666E+04  0.17142626422E+03 0.  0.
        -24    2    3    3    0    0 -0.36462476090E+02 -0.10251942298E+02 -0.17531273241E+04  0.17546057608E+04  0.61248237955E+02 0.  0.
          6    2    1    2  501    0  0.27269020700E+01  0.31959142968E+02 -0.52539923783E+03  0.55325484889E+03  0.17034595942E+03 0.  0.
         24    2    5    5    0    0 -0.65164629736E+02  0.23608882976E+02 -0.34803326426E+03  0.36309763626E+03  0.76869578526E+02 0.  0.
          5    1    5    5  501    0  0.67891531806E+02  0.83502599920E+01 -0.17736597357E+03  0.19015721262E+03  0.47000000000E+01 0. -1.
        -13    1    6    6    0    0  0.33378680166E+01  0.15671930817E+02 -0.18998732622E+03  0.19066183390E+03  0.00000000000E+00 0.  1.
         14    1    6    6    0    0 -0.68502497752E+02  0.79369521594E+01 -0.15804593804E+03  0.17243580237E+03  0.00000000000E+00 0. -1.
         -5    1    3    3    0  503  0.33735574020E+02 -0.21707200670E+02 -0.11983466481E+03  0.12645840583E+03  0.47000000000E+01 0.  1.
         11    1    4    4    0    0 -0.79884033844E+01 -0.31779948007E+02 -0.11144617516E+04  0.11149433956E+04  0.00000000000E+00 0. -1.
        -12    1    4    4    0    0 -0.28474072706E+02  0.21528005709E+02 -0.63866557252E+03  0.63966236514E+03  0.00000000000E+00 0.  1.
</event>
<event>
12    1  0.8462562E-002  0.1830030E+03  0.7818608E-02  0.1165000E+00
         21   -1    0    0  501  502  0.00000000000E+00  0.00000000000E+00  0.49035273059E+03  0.49035273059E+03  0.00000000000E+00 0. -1.
         21   -1    0    0  502  503 -0.00000000000E+00 -0.00000000000E+00 -0.87157164563E+02  0.87157164563E+02  0.00000000000E+00 0. -1.
         -6    2    1    2    0  503  0.53320499809E+02 -0.29108163910E+02  0.67005402517E+02  0.19488417082E+03  0.17262605587E+03 0.  0.
        -24    2    3    3    0    0 -0.12092069843E+02 -0.58958115639E+00 -0.17883642611E+02  0.83887081609E+02  0.81059558528E+02 0.  0.
          6    2    1    2  501    0 -0.53320499809E+02  0.29108163910E+02  0.33619016351E+03  0.38262572433E+03  0.17230280895E+03 0.  0.
         24    2    5    5    0    0 -0.15756608593E+02  0.80784467895E+02  0.24821045328E+03  0.27379555513E+03  0.81124447132E+02 0.  0.
          5    1    5    5  501    0 -0.37563891217E+02 -0.51676303985E+02  0.87979710231E+02  0.10883016921E+03  0.47000000000E+01 0. -1.
        -13    1    6    6    0    0  0.11900894459E+02  0.13278334595E+02  0.31501688259E+01  0.18107153894E+02  0.00000000000E+00 0.  1.
         14    1    6    6    0    0 -0.27657503051E+02  0.67506133300E+02  0.24506028446E+03  0.25568840123E+03  0.00000000000E+00 0. -1.
         -5    1    3    3    0  503  0.65412569653E+02 -0.28518582753E+02  0.84889045128E+02  0.11099708921E+03  0.47000000000E+01 0.  1.
         13    1    4    4    0    0 -0.34734532226E+02 -0.28237693099E+02 -0.20817853272E+01  0.44812820383E+02  0.00000000000E+00 0. -1.
        -14    1    4    4    0    0  0.22642462383E+02  0.27648111942E+02 -0.15801857284E+02  0.39074261226E+02  0.00000000000E+00 0.  1.
</event>
<event>
12    1  0.8462562E-002  0.1988343E+03  0.7818608E-02  0.1151288E+00
         21   -1    0    0  503  502  0.00000000000E+00  0.00000000000E+00  0.51246336270E+03  0.51246336270E+03  0.00000000000E+00 0. -1.
         21   -1    0    0  501  503 -0.00000000000E+00 -0.00000000000E+00 -0.87418043839E+02  0.87418043839E+02  0.00000000000E+00 0. -1.
          6    2    1    2  501    0  0.35167848313E+02 -0.93470792772E+02  0.10598239555E+03  0.22531608383E+03  0.17193458875E+03 0.  0.
         24    2    3    3    0    0  0.43126042857E+02  0.51163865134E+00  0.93718005587E+02  0.13008722508E+03  0.79243322820E+02 0.  0.
         -6    2    1    2    0  502 -0.35167848313E+02  0.93470792772E+02  0.31906292331E+03  0.37456532271E+03  0.16889187455E+03 0.  0.
        -24    2    5    5    0    0  0.18821848869E+02  0.38932815631E+02  0.26530317650E+03  0.28074912619E+03  0.81020184322E+02 0.  0.
          5    1    3    3  501    0 -0.79581945443E+01 -0.93982431424E+02  0.12264389961E+02  0.95228858745E+02  0.47000000000E+01 0. -1.
        -11    1    4    4    0    0  0.29066321360E+01 -0.35784963926E+02  0.40942475302E+02  0.54454553872E+02  0.00000000000E+00 0.  1.
         12    1    4    4    0    0  0.40219410721E+02  0.36296602577E+02  0.52775530285E+02  0.75632671209E+02  0.00000000000E+00 0. -1.
         -5    1    5    5    0  502 -0.53989697182E+02  0.54537977141E+02  0.53759746807E+02  0.93816196519E+02  0.47000000000E+01 0.  1.
         11    1    6    6    0    0  0.44492698986E+01  0.40621820938E+02  0.26292719525E+03  0.26608389342E+03  0.00000000000E+00 0. -1.
        -12    1    6    6    0    0  0.14372578971E+02 -0.16890053074E+01  0.23759812539E+01  0.14665232767E+02  0.00000000000E+00 0.  1.
</event>
<event>
12    1  0.8462562E-002  0.1771278E+03  0.7818608E-02  0.1170656E+00
         21   -1    0    0  501  502  0.00000000000E+00  0.00000000000E+00  0.16585279560E+03  0.16585279560E+03  0.00000000000E+00 0.  1.
         21   -1    0    0  502  503 -0.00000000000E+00 -0.00000000000E+00 -0.19003755687E+03  0.19003755687E+03  0.00000000000E+00 0.  1.
         -6    2    1    2    0  503 -0.19775053819E+01 -0.42986746024E+02  0.11678044056E+01  0.17713164594E+03  0.17182108534E+03 0.  0.
        -24    2    3    3    0    0 -0.53094374718E+02 -0.45721828913E+02  0.38332150262E+02  0.11369905486E+03  0.80923563106E+02 0.  0.
          6    2    1    2  501    0  0.19775053819E+01  0.42986746024E+02 -0.25352565683E+02  0.17875870653E+03  0.17163959832E+03 0.  0.
         24    2    5    5    0    0  0.33741719426E+02  0.40164960363E+02 -0.76488231889E+02  0.11831142266E+03  0.73453491709E+02 0.  0.
          5    1    5    5  501    0 -0.31764214045E+02  0.28217856615E+01  0.51135666207E+02  0.60447283865E+02  0.47000000000E+01 0. -1.
        -11    1    6    6    0    0  0.38915910256E+02 -0.35566288606E+01 -0.59364120129E+02  0.71071769632E+02  0.00000000000E+00 0.  1.
         12    1    6    6    0    0 -0.51741908295E+01  0.43721589223E+02 -0.17124111760E+02  0.47239653031E+02  0.00000000000E+00 0. -1.
         -5    1    3    3    0  503  0.51116869336E+02  0.27350828889E+01 -0.37164345857E+02  0.63432591088E+02  0.47000000000E+01 0.  1.
         11    1    4    4    0    0 -0.16452141364E+02 -0.57271810505E+01 -0.24900215111E+02  0.30389048534E+02  0.00000000000E+00 0. -1.
        -12    1    4    4    0    0 -0.36642233354E+02 -0.39994647863E+02  0.63232365373E+02  0.83310006323E+02  0.00000000000E+00 0.  1.
</event>
<event>
12    1  0.8462562E-002  0.1764725E+03  0.7818608E-02  0.1171451E+00
         21   -1    0    0  501  502  0.00000000000E+00  0.00000000000E+00  0.29975389981E+03  0.29975389981E+03  0.00000000000E+00 0.  1.
         21   -1    0    0  502  503 -0.00000000000E+00 -0.00000000000E+00 -0.24906883982E+03  0.24906883982E+03  0.00000000000E+00 0.  1.
         -6    2    1    2    0  503  0.35009982601E+02  0.19109613797E+02 -0.18450548482E+03  0.25478681581E+03  0.17112326364E+03 0.  0.
        -24    2    3    3    0    0  0.61881140214E+02 -0.26430183713E+02 -0.17004525523E+03  0.19976754183E+03  0.80398083425E+02 0.  0.
          6    2    1    2  501    0 -0.35009982601E+02 -0.19109613797E+02  0.23519054481E+03  0.29403592383E+03  0.17190595078E+03 0.  0.
         24    2    5    5    0    0  0.37658262072E+02  0.22418588950E+02  0.13409363858E+03  0.16270451153E+03  0.81061188811E+02 0.  0.
          5    1    5    5  501    0 -0.72668244673E+02 -0.41528202747E+02  0.10109690623E+03  0.13133141230E+03  0.47000000000E+01 0. -1.
        -13    1    6    6    0    0  0.63277857732E+00  0.47419964911E+02  0.66370294786E+02  0.81572480108E+02  0.00000000000E+00 0.  1.
         14    1    6    6    0    0  0.37025483494E+02 -0.25001375961E+02  0.67723343793E+02  0.81132031421E+02  0.00000000000E+00 0. -1.
         -5    1    3    3    0  503 -0.26871157613E+02  0.45539797510E+02 -0.14460229593E+02  0.55019273974E+02  0.47000000000E+01 0.  1.
         11    1    4    4    0    0 -0.82092236044E+01 -0.14480747527E+02 -0.13499567804E+01  0.16700472581E+02  0.00000000000E+00 0. -1.
        -12    1    4    4    0    0  0.70090363818E+02 -0.11949436185E+02 -0.16869529845E+03  0.18306706925E+03  0.00000000000E+00 0.  1.
</event>
<event>
12    1  0.8462562E-002  0.2761605E+03  0.7818608E-02  0.1097887E+00
         21   -1    0    0  501  502  0.00000000000E+00  0.00000000000E+00  0.14075003329E+03  0.14075003329E+03  0.00000000000E+00 0.  1.
         21   -1    0    0  502  503 -0.00000000000E+00 -0.00000000000E+00 -0.59111159052E+03  0.59111159052E+03  0.00000000000E+00 0.  1.
         -6    2    1    2    0  503  0.21408364337E+03 -0.29123909005E+02 -0.33183783604E+03  0.43134121550E+03  0.17105229120E+03 0.  0.
        -24    2    3    3    0    0  0.51659315043E+02  0.13234537297E+02 -0.64518174583E+02  0.11565499184E+03  0.79810052487E+02 0.  0.
          6    2    1    2  501    0 -0.21408364337E+03  0.29123909005E+02 -0.11852372119E+03  0.30052040830E+03  0.17200184559E+03 0.  0.
         24    2    5    5    0    0 -0.13217010132E+03  0.77064885823E+02 -0.46163978591E+02  0.18107925970E+03  0.85150766681E+02 0.  0.
          5    1    5    5  501    0 -0.81913542057E+02 -0.47940976817E+02 -0.72359742596E+02  0.11944114860E+03  0.47000000000E+01 0. -1.
        -13    1    6    6    0    0 -0.95716699937E+02  0.86875444099E+01 -0.13763877556E+02  0.97090701924E+02  0.00000000000E+00 0.  1.
         14    1    6    6    0    0 -0.36453401381E+02  0.68377341413E+02 -0.32400101035E+02  0.83988557780E+02  0.00000000000E+00 0. -1.
         -5    1    3    3    0  503  0.16242432833E+03 -0.42358446303E+02 -0.26731966146E+03  0.31568622366E+03  0.47000000000E+01 0.  1.
         13    1    4    4    0    0 -0.21550383851E+02  0.32796344196E+01 -0.18678947848E+02  0.28706761203E+02  0.00000000000E+00 0. -1.
        -14    1    4    4    0    0  0.73209698894E+02  0.99549028776E+01 -0.45839226736E+02  0.86948230638E+02  0.00000000000E+00 0.  1.
</event>
<event>
12    1  0.8462562E-002  0.1951807E+03  0.7818608E-02  0.1153951E+00
         21   -1    0    0  503  502  0.00000000000E+00  0.00000000000E+00  0.16632756077E+04  0.16632756077E+04  0.00000000000E+00 0. -1.
         21   -1    0    0  501  503 -0.00000000000E+00 -0.00000000000E+00 -0.29283387060E+02  0.29283387060E+02  0.00000000000E+00 0. -1.
          6    2    1    2  501    0  0.18725148818E+02  0.89020225296E+02  0.42002979323E+03  0.46300611609E+03  0.17226260367E+03 0.  0.
         24    2    3    3    0    0 -0.30683583917E+02 -0.11032042771E+02  0.17939781264E+03  0.19771849990E+03  0.76458104449E+02 0.  0.
         -6    2    1    2    0  502 -0.18725148818E+02 -0.89020225296E+02  0.12139624274E+04  0.12295528787E+04  0.17268547877E+03 0.  0.
        -24    2    5    5    0    0 -0.63381216518E+02 -0.73222904037E+02  0.57777035108E+03  0.59158252847E+03  0.82295425942E+02 0.  0.
          5    1    3    3  501    0  0.49408732735E+02  0.10005226807E+03  0.24063198059E+03  0.26528761618E+03  0.47000000000E+01 0. -1.
        -13    1    4    4    0    0 -0.31239364921E+02  0.15430313250E+02  0.16277742965E+03  0.16646466319E+03  0.00000000000E+00 0.  1.
         14    1    4    4    0    0  0.55578100418E+00 -0.26462356021E+02  0.16620382987E+02  0.31253836714E+02  0.00000000000E+00 0. -1.
         -5    1    5    5    0  502  0.44656067699E+02 -0.15797321259E+02  0.63619207635E+03  0.63797035021E+03  0.47000000000E+01 0.  1.
         13    1    6    6    0    0 -0.51074722353E+02 -0.45998419186E+02  0.53507616271E+03  0.53947287396E+03  0.00000000000E+00 0. -1.
        -14    1    6    6    0    0 -0.12306494165E+02 -0.27224484851E+02  0.42694188363E+02  0.52109654518E+02  0.00000000000E+00 0.  1.
</event>
<event>
12    1  0.8462562E-002  0.1844439E+03  0.7818608E-02  0.1163906E+00
         21   -1    0    0  503  502  0.00000000000E+00  0.00000000000E+00  0.57664815329E+02  0.57664815329E+02  0.00000000000E+00 0.  1.
         21   -1    0    0  501  503 -0.00000000000E+00 -0.00000000000E+00 -0.64369778445E+03  0.64369778445E+03  0.00000000000E+00 0.  1.
          6    2    1    2  501    0 -0.49677360198E+02 -0.43123661381E+02 -0.18644863664E+03  0.26126354764E+03  0.17078658300E+03 0.  0.
         24    2    3    3    0    0 -0.61767948393E+02 -0.79612792709E+02 -0.88969980690E+02  0.15637399909E+03  0.79898021982E+02 0.  0.
         -6    2    1    2    0  502  0.49677360198E+02  0.43123661381E+02 -0.39958433247E+03  0.44009905214E+03  0.17231380283E+03 0.  0.
        -24    2    5    5    0    0  0.55554052904E+02  0.81481811666E+02 -0.20315731086E+03  0.23982037621E+03  0.80717912901E+02 0.  0.
          5    1    3    3  501    0  0.12090588195E+02  0.36489131329E+02 -0.97478655955E+02  0.10488954855E+03  0.47000000000E+01 0. -1.
        -13    1    4    4    0    0  0.56791017764E+01 -0.37890819273E+02 -0.15580352191E+01  0.38345714961E+02  0.00000000000E+00 0.  1.
         14    1    4    4    0    0 -0.67447050170E+02 -0.41721973437E+02 -0.87411945471E+02  0.11802828413E+03  0.00000000000E+00 0. -1.
         -5    1    5    5    0  502 -0.58766927060E+01 -0.38358150285E+02 -0.19642702161E+03  0.20027867593E+03  0.47000000000E+01 0.  1.
         11    1    6    6    0    0 -0.13864045448E+02  0.93358907091E+01 -0.44206321099E+01  0.17289089038E+02  0.00000000000E+00 0. -1.
        -12    1    6    6    0    0  0.69418098352E+02  0.72145920957E+02 -0.19873667875E+03  0.22253128717E+03  0.00000000000E+00 0.  1.
</event>
<event>
12    1  0.8462562E-002  0.2804167E+03  0.7818608E-02  0.1095919E+00
         21   -1    0    0  503  502  0.00000000000E+00  0.00000000000E+00  0.67207156860E+02  0.67207156860E+02  0.00000000000E+00 0.  1.
         21   -1    0    0  501  503 -0.00000000000E+00 -0.00000000000E+00 -0.13879891668E+04  0.13879891668E+04  0.00000000000E+00 0. -1.
          6    2    1    2  501    0 -0.20051308787E+03  0.82942783676E+02 -0.96105180316E+03  0.10011264147E+04  0.17761904741E+03 0.  0.
         24    2    3    3    0    0 -0.68494002448E+02  0.94673674612E+02 -0.58258195637E+03  0.60009254122E+03  0.83992791973E+02 0.  0.
         -6    2    1    2    0  502  0.20051308787E+03 -0.82942783676E+02 -0.35973020680E+03  0.45406990902E+03  0.17230396636E+03 0.  0.
        -24    2    5    5    0    0  0.17671870180E+03 -0.29165181133E+02 -0.34053447047E+03  0.39203145613E+03  0.75132081430E+02 0.  0.
          5    1    3    3  501    0 -0.13201908542E+03 -0.11730890935E+02 -0.37846984679E+03  0.40103387344E+03  0.47000000000E+01 0. -1.
        -13    1    4    4    0    0 -0.28802057891E+02  0.43156671161E+02 -0.95467085950E+02  0.10865551668E+03  0.00000000000E+00 0.  1.
         14    1    4    4    0    0 -0.39691944556E+02  0.51517003451E+02 -0.48711487042E+03  0.49143702454E+03  0.00000000000E+00 0. -1.
         -5    1    5    5    0  502  0.23794386062E+02 -0.53777602544E+02 -0.19195736325E+02  0.62038452886E+02  0.47000000000E+01 0.  1.
         11    1    6    6    0    0  0.57410070789E+01  0.13680805464E+02 -0.11549608121E+02  0.18802049042E+02  0.00000000000E+00 0. -1.
        -12    1    6    6    0    0  0.17097769472E+03 -0.42845986597E+02 -0.32898486235E+03  0.37322940709E+03  0.00000000000E+00 0.  1.
</event>
<event>
12    1  0.8462562E-002  0.2083050E+03  0.7818608E-02  0.1143010E+00
         21   -1    0    0  503  502  0.00000000000E+00  0.00000000000E+00  0.37418182867E+03  0.37418182867E+03  0.00000000000E+00 0.  1.
         21   -1    0    0  501  503 -0.00000000000E+00 -0.00000000000E+00 -0.17260907429E+03  0.17260907429E+03  0.00000000000E+00 0.  1.
          6    2    1    2  501    0  0.23497333641E+02  0.11178349020E+03 -0.56273624236E+02  0.21531581043E+03  0.17362748650E+03 0.  0.
         24    2    3    3    0    0  0.24775724060E+02  0.14026046274E+03 -0.15395076610E+02  0.16525866405E+03  0.82380724387E+02 0.  0.
         -6    2    1    2    0  502 -0.23497333641E+02 -0.11178349020E+03  0.25784637862E+03  0.33147509253E+03  0.17419330824E+03 0.  0.
        -24    2    5    5    0    0 -0.48643175574E+02 -0.44891406458E+02  0.23591227568E+03  0.25657476473E+03  0.76122343485E+02 0.  0.
          5    1    3    3  501    0 -0.12783904191E+01 -0.28476972543E+02 -0.40878547626E+02  0.50057146375E+02  0.47000000000E+01 0. -1.
        -11    1    4    4    0    0  0.43144285122E+02  0.46726616758E+02  0.14746776443E+02  0.65286089390E+02  0.00000000000E+00 0.  1.
         12    1    4    4    0    0 -0.18368561062E+02  0.93533845982E+02 -0.30141853053E+02  0.99972574665E+02  0.00000000000E+00 0. -1.
         -5    1    5    5    0  502  0.25145841933E+02 -0.66892083739E+02  0.21934102936E+02  0.74900327803E+02  0.47000000000E+01 0.  1.
         13    1    6    6    0    0 -0.49316723664E+02  0.10424403174E+01  0.79538098465E+02  0.93592387630E+02  0.00000000000E+00 0. -1.
        -14    1    6    6    0    0  0.67354809051E+00 -0.45933846776E+02  0.15637417721E+03  0.16298237710E+03  0.00000000000E+00 0.  1.
</event>
<event>
12    1  0.8462562E-002  0.2511548E+03  0.7818608E-02  0.1112795E+00
         21   -1    0    0  501  502  0.00000000000E+00  0.00000000000E+00  0.10680174838E+04  0.10680174838E+04  0.00000000000E+00 0.  1.
         21   -1    0    0  502  503 -0.00000000000E+00 -0.00000000000E+00 -0.75917693283E+02  0.75917693283E+02  0.00000000000E+00 0. -1.
         -6    2    1    2    0  503  0.14167129799E+03  0.11355577982E+03  0.22289651145E+03  0.33476744693E+03  0.17152468306E+03 0.  0.
        -24    2    3    3    0    0  0.69999842416E+02 -0.13510323267E+00  0.14823677002E+03  0.18095398385E+03  0.76617283256E+02 0.  0.
          6    2    1    2  501    0 -0.14167129799E+03 -0.11355577982E+03  0.76920327905E+03  0.80916773014E+03  0.17353114760E+03 0.  0.
         24    2    5    5    0    0  0.28063072186E+01  0.94922901577E+01  0.19174993982E+03  0.20131161647E+03  0.60500814643E+02 0.  0.
          5    1    5    5  501    0 -0.14447760521E+03 -0.12304806998E+03  0.57745333923E+03  0.60785611366E+03  0.47000000000E+01 0. -1.
        -11    1    6    6    0    0  0.35421043942E+01  0.29188332119E+02  0.16750489013E+03  0.17006585035E+03  0.00000000000E+00 0.  1.
         12    1    6    6    0    0 -0.73579717558E+00 -0.19696041962E+02  0.24245049691E+02  0.31245766128E+02  0.00000000000E+00 0. -1.
         -5    1    3    3    0  503  0.71671455576E+02  0.11369088306E+03  0.74659741435E+02  0.15381346308E+03  0.47000000000E+01 0.  1.
         13    1    4    4    0    0  0.61718635185E+02  0.32672849643E+02  0.10369189855E+03  0.12501485855E+03  0.00000000000E+00 0. -1.
        -14    1    4    4    0    0  0.82812072309E+01 -0.32807952876E+02  0.44544871467E+02  0.55939125298E+02  0.00000000000E+00 0.  1.
</event>
<event>
12    1  0.8462562E-002  0.1889330E+03  0.7818608E-02  0.1160226E+00
         21   -1    0    0  501  502  0.00000000000E+00  0.00000000000E+00  0.11048199771E+03  0.11048199771E+03  0.00000000000E+00 0.  1.
         21   -1    0    0  502  503 -0.00000000000E+00 -0.00000000000E+00 -0.31849552513E+03  0.31849552513E+03  0.00000000000E+00 0. -1.
         -6    2    1    2    0  503 -0.76290721812E+02  0.14026720629E+01 -0.11883630173E+03  0.22319889744E+03  0.17283934589E+03 0.  0.
        -24    2    3    3    0    0 -0.67070228965E+02  0.33294608617E+02 -0.11343037142E+02  0.11059780936E+03  0.80599406739E+02 0.  0.
          6    2    1    2  501    0  0.76290721812E+02 -0.14026720629E+01 -0.89177225685E+02  0.20577862539E+03  0.16902669423E+03 0.  0.
         24    2    5    5    0    0  0.25237804949E+02  0.36376589705E+02 -0.10593193395E+03  0.13992664601E+03  0.79985552160E+02 0.  0.
          5    1    5    5  501    0  0.51052916863E+02 -0.37779261768E+02  0.16754708267E+02  0.65851979386E+02  0.47000000000E+01 0. -1.
        -11    1    6    6    0    0 -0.21173146815E+02 -0.91438620927E+01 -0.12881206158E+02  0.26416620376E+02  0.00000000000E+00 0.  1.
         12    1    6    6    0    0  0.46410951764E+02  0.45520451798E+02 -0.93050727794E+02  0.11351002563E+03  0.00000000000E+00 0. -1.
         -5    1    3    3    0  503 -0.92204928472E+01 -0.31891936554E+02 -0.10749326459E+03  0.11260108808E+03  0.47000000000E+01 0.  1.
         13    1    4    4    0    0 -0.37192259377E+01 -0.19825438436E+02 -0.18817728618E+02  0.27586002992E+02  0.00000000000E+00 0. -1.
        -14    1    4    4    0    0 -0.63351003027E+02  0.53120047052E+02  0.74746914753E+01  0.83011806365E+02  0.00000000000E+00 0.  1.
</event>
<event>
12    1  0.8462562E-002  0.1807167E+03  0.7818608E-02  0.1167851E+00
         21   -1    0    0  503  502  0.00000000000E+00  0.00000000000E+00  0.12308819486E+04  0.12308819486E+04  0.00000000000E+00 0.  1.
         21   -1    0    0  501  503 -0.00000000000E+00 -0.00000000000E+00 -0.35742471996E+02  0.35742471996E+02  0.00000000000E+00 0.  1.
          6    2    1    2  501    0 -0.52929181526E+02 -0.88944085815E+00  0.27212930434E+03  0.32666937084E+03  0.17278955466E+03 0.  0.
         24    2    3    3    0    0 -0.89688638534E+02 -0.27360081171E+02  0.24118081376E+03  0.27160711928E+03  0.82520399846E+02 0.  0.
         -6    2    1    2    0  502  0.52929181526E+02  0.88944085815E+00  0.92301017229E+03  0.93995504978E+03  0.16960373847E+03 0.  0.
        -24    2    5    5    0    0  0.46405200724E+02 -0.23556442442E+02  0.89999092257E+03  0.90542767813E+03  0.84304631998E+02 0.  0.
          5    1    3    3  501    0  0.36759457008E+02  0.26470640313E+02  0.30948490583E+02  0.55062251566E+02  0.47000000000E+01 0. -1.
        -11    1    4    4    0    0 -0.22482392836E+02  0.18274031251E+02  0.18016829895E+02  0.34117508193E+02  0.00000000000E+00 0.  1.
         12    1    4    4    0    0 -0.67206245698E+02 -0.45634112423E+02  0.22316398387E+03  0.23748961108E+03  0.00000000000E+00 0. -1.
         -5    1    5    5    0  502  0.65239808013E+01  0.24445883300E+02  0.23019249715E+02  0.34527371653E+02  0.47000000000E+01 0.  1.
         11    1    6    6    0    0  0.49425386946E+02 -0.42412637878E+02  0.41663830849E+03  0.42169797347E+03  0.00000000000E+00 0. -1.
        -12    1    6    6    0    0 -0.30201862217E+01  0.18856195435E+02  0.48335261408E+03  0.48372970466E+03  0.00000000000E+00 0.  1.
</event>
<event>
12    1  0.8462562E-002  0.1940049E+03  0.7818608E-02  0.1155534E+00
         21   -1    0    0  503  502  0.00000000000E+00  0.00000000000E+00  0.54768403188E+02  0.54768403188E+02  0.00000000000E+00 0. -1.
         21   -1    0    0  501  503 -0.00000000000E+00 -0.00000000000E+00 -0.74845009887E+03  0.74845009887E+03  0.00000000000E+00 0.  1.
          6    2    1    2  501    0  0.91610592319E+00  0.85591478038E+02 -0.22515940461E+03  0.29721145479E+03  0.17410097935E+03 0.  0.
         24    2    3    3    0    0 -0.53242127862E+02  0.62672863870E+02 -0.20599663297E+03  0.23518179270E+03  0.78187280153E+02 0.  0.
         -6    2    1    2    0  502 -0.91610592319E+00 -0.85591478038E+02 -0.46852229108E+03  0.50600704727E+03  0.17088959679E+03 0.  0.
        -24    2    5    5    0    0  0.11056033450E+01 -0.10110583053E+03 -0.47208474681E+03  0.48928689379E+03  0.79460964878E+02 0.  0.
          5    1    3    3  501    0  0.54158233785E+02  0.22918614168E+02 -0.19162771641E+02  0.62029662090E+02  0.47000000000E+01 0. -1.
        -11    1    4    4    0    0 -0.29729933795E+02  0.57631480193E+02 -0.63816160740E+02  0.90982189709E+02  0.00000000000E+00 0.  1.
         12    1    4    4    0    0 -0.23512194067E+02  0.50413836767E+01 -0.14218047223E+03  0.14419960299E+03  0.00000000000E+00 0. -1.
         -5    1    5    5    0  502 -0.20217092682E+01  0.15514352493E+02  0.35624557320E+01  0.16720153483E+02  0.47000000000E+01 0.  1.
         11    1    6    6    0    0 -0.13006127687E+01 -0.11333921193E+03 -0.38579380894E+03  0.40209990247E+03  0.00000000000E+00 0. -1.
        -12    1    6    6    0    0  0.24062161137E+01  0.12233381396E+02 -0.86290937873E+02  0.87186991320E+02  0.00000000000E+00 0.  1.
</event>
<event>
12    1  0.8462562E-002  0.2113567E+03  0.7818608E-02  0.1141281E+00
         21   -1    0    0  501  502  0.00000000000E+00  0.00000000000E+00  0.48650229828E+03  0.48650229828E+03  0.00000000000E+00 0.  1.
         21   -1    0    0  502  503 -0.00000000000E+00 -0.00000000000E+00 -0.18886322006E+03  0.18886322006E+03  0.00000000000E+00 0. -1.
         -6    2    1    2    0  503 -0.38066620185E+02  0.11228765542E+03 -0.94683266571E+02  0.23159569027E+03  0.17496873336E+03 0.  0.
        -24    2    3    3    0    0 -0.87991580735E+02  0.86375599273E+02 -0.95938682316E+02  0.17513683439E+03  0.79154390682E+02 0.  0.
          6    2    1    2  501    0  0.38066620185E+02 -0.11228765542E+03  0.39232234479E+03  0.44376982806E+03  0.17016830770E+03 0.  0.
         24    2    5    5    0    0  0.52325231738E+02 -0.79053920492E+02  0.38784054849E+03  0.40702794952E+03  0.79145488924E+02 0.  0.
          5    1    5    5  501    0 -0.14258611553E+02 -0.33233734926E+02  0.44817963006E+01  0.36741878540E+02  0.47000000000E+01 0. -1.
        -13    1    6    6    0    0  0.52519011406E+02 -0.92890407030E+01  0.15203233333E+03  0.16111599305E+03  0.00000000000E+00 0.  1.
         14    1    6    6    0    0 -0.19377966778E+00 -0.69764879789E+02  0.23580821516E+03  0.24591195648E+03  0.00000000000E+00 0. -1.
         -5    1    3    3    0  503  0.49924960550E+02  0.25912056145E+02  0.12554157444E+01  0.56458855888E+02  0.47000000000E+01 0.  1.
         13    1    4    4    0    0 -0.51184051913E+02  0.76459297179E+02 -0.10106398268E+03  0.13667391810E+03  0.00000000000E+00 0. -1.
        -14    1    4    4    0    0 -0.36807528822E+02  0.99163020943E+01  0.51253003605E+01  0.38462916283E+02  0.00000000000E+00 0.  1.
</event>
<event>
12    1  0.8462562E-002  0.1782972E+03  0.7818608E-02  0.1169628E+00
         21   -1    0    0  503  502  0.00000000000E+00  0.00000000000E+00  0.13985570674E+03  0.13985570674E+03  0.00000000000E+00 0.  1.
         21   -1    0    0  501  503 -0.00000000000E+00 -0.00000000000E+00 -0.22914606788E+03  0.22914606788E+03  0.00000000000E+00 0.  1.
          6    2    1    2  501    0  0.42418259626E+02 -0.80940901074E+01 -0.64774389840E+02  0.18969873106E+03  0.17298862373E+03 0.  0.
         24    2    3    3    0    0 -0.13487606807E+02  0.44077332119E+02 -0.63868100938E+02  0.11308127509E+03  0.81138854532E+02 0.  0.
         -6    2    1    2    0  502 -0.42418259626E+02  0.80940901074E+01 -0.24515971299E+02  0.17930304356E+03  0.17228965592E+03 0.  0.
        -24    2    5    5    0    0 -0.61488881371E+02 -0.25490387869E+02 -0.56969105341E+02  0.12863844365E+03  0.94189849860E+02 0.  0.
          5    1    3    3  501    0  0.55905866433E+02 -0.52171422227E+02 -0.90628890215E+00  0.76617455964E+02  0.47000000000E+01 0. -1.
        -13    1    4    4    0    0  0.16668968522E+02  0.30554090373E+02 -0.71178525501E+02  0.79232502438E+02  0.00000000000E+00 0.  1.
         14    1    4    4    0    0 -0.30156575329E+02  0.13523241746E+02  0.73104245624E+01  0.33848772654E+02  0.00000000000E+00 0. -1.
         -5    1    5    5    0  502  0.19070621745E+02  0.33584477977E+02  0.32453134042E+02  0.50664599908E+02  0.47000000000E+01 0.  1.
         11    1    6    6    0    0 -0.30976054036E+02  0.18436261019E+02  0.14939232432E+02  0.39020408887E+02  0.00000000000E+00 0. -1.
        -12    1    6    6    0    0 -0.30512827335E+02 -0.43926648888E+02 -0.71908337773E+02  0.89618034768E+02  0.00000000000E+00 0.  1.
</event>
<event>
12    1  0.8462562E-002  0.2558953E+03  0.7818608E-02  0.1109860E+00
         21   -1    0    0  501  502  0.00000000000E+00  0.00000000000E+00  0.38690121796E+03  0.38690121796E+03  0.00000000000E+00 0.  1.
         21   -1    0    0  502  503 -0.00000000000E+00 -0.00000000000E+00 -0.17759843886E+03  0.17759843886E+03  0.00000000000E+00 0.  1.
         -6    2    1    2    0  503  0.16257219743E+03  0.94541889746E+02  0.40290006529E+02  0.25904763911E+03  0.17353531746E+03 0.  0.
        -24    2    3    3    0    0  0.21690800167E+02  0.22126220362E+02  0.53987888733E+02  0.99983754948E+02  0.78243202159E+02 0.  0.
          6    2    1    2  501    0 -0.16257219743E+03 -0.94541889746E+02  0.16901277257E+03  0.30545201771E+03  0.17137015357E+03 0.  0.
         24    2    5    5    0    0 -0.32019997457E+02 -0.88455532838E+02  0.96353684125E+02  0.15584468570E+03  0.78446619355E+02 0.  0.
          5    1    5    5  501    0 -0.13055219997E+03 -0.60863569087E+01  0.72659088447E+02  0.14960733201E+03  0.47000000000E+01 0. -1.
        -11    1    6    6    0    0 -0.21682843735E+02  0.41564459218E+01  0.39085670645E+00  0.22081089740E+02  0.00000000000E+00 0.  1.
         12    1    6    6    0    0 -0.10337153722E+02 -0.92611978759E+02  0.95962827418E+02  0.13376359596E+03  0.00000000000E+00 0. -1.
         -5    1    3    3    0  503  0.14088139726E+03  0.72415669385E+02 -0.13697882204E+02  0.15906388416E+03  0.47000000000E+01 0.  1.
         11    1    4    4    0    0 -0.17454774672E+02  0.24954123274E+02 -0.32033208310E+01  0.30620886525E+02  0.00000000000E+00 0. -1.
        -12    1    4    4    0    0  0.39145574839E+02 -0.28279029126E+01  0.57191209564E+02  0.69362868422E+02  0.00000000000E+00 0.  1.
</event>
<event>
12    1  0.8462562E-002  0.2920874E+03  0.7818608E-02  0.1089902E+00
         21   -1    0    0  501  502  0.00000000000E+00  0.00000000000E+00  0.11433673242E+04  0.11433673242E+04  0.00000000000E+00 0. -1.
         21   -1    0    0  502  503 -0.00000000000E+00 -0.00000000000E+00 -0.81408662368E+02  0.81408662368E+02  0.00000000000E+00 0.  1.
         -6    2    1    2    0  503  0.23466722383E+03  0.25394670283E+02  0.72738365429E+03  0.78383800044E+03  0.17205067623E+03 0.  0.
        -24    2    3    3    0    0  0.22934894572E+03 -0.44076692813E+00  0.54389727548E+03  0.59840581579E+03  0.98306362516E+02 0.  0.
          6    2    1    2  501    0 -0.23466722383E+03 -0.25394670283E+02  0.33457500756E+03  0.44093798614E+03  0.16362236009E+03 0.  0.
         24    2    5    5    0    0 -0.82554687161E+02  0.29098397541E+02  0.15232710307E+03  0.19733152698E+03  0.89856508398E+02 0.  0.
          5    1    5    5  501    0 -0.15211253667E+03 -0.54493067824E+02  0.18224790449E+03  0.24360645916E+03  0.47000000000E+01 0. -1.
        -13    1    6    6    0    0 -0.85240467412E+02  0.53475237766E+02  0.12762611550E+03  0.16252373272E+03  0.00000000000E+00 0.  1.
         14    1    6    6    0    0  0.26857802512E+01 -0.24376840225E+02  0.24700987568E+02  0.34807794267E+02  0.00000000000E+00 0. -1.
         -5    1    3    3    0  503  0.53182781056E+01  0.25835437211E+02  0.18348637880E+03  0.18543218465E+03  0.47000000000E+01 0.  1.
         11    1    4    4    0    0  0.23048733808E+03  0.17861025537E+02  0.50220949374E+03  0.55286327862E+03  0.00000000000E+00 0. -1.
        -12    1    4    4    0    0 -0.11383923589E+01 -0.18301792465E+02  0.41687781747E+02  0.45542537167E+02  0.00000000000E+00 0.  1.
</event>
<event>
12    1  0.8462562E-002  0.1806863E+03  0.7818608E-02  0.1167456E+00
         21   -1    0    0  501  502  0.00000000000E+00  0.00000000000E+00  0.10762223204E+03  0.10762223204E+03  0.00000000000E+00 0.  1.
         21   -1    0    0  502  503 -0.00000000000E+00 -0.00000000000E+00 -0.52137363157E+03  0.52137363157E+03  0.00000000000E+00 0.  1.
         -6    2    1    2    0  503 -0.39820636629E+02 -0.38552788916E+02 -0.41083217812E+03  0.44828597086E+03  0.17060255698E+03 0.  0.
        -24    2    3    3    0    0  0.35245560454E+02  0.34637189721E+01 -0.26596426468E+03  0.27973590937E+03  0.79126114691E+02 0.  0.
          6    2    1    2  501    0  0.39820636629E+02  0.38552788916E+02 -0.29192213981E+01  0.18070989275E+03  0.17197541351E+03 0.  0.
         24    2    5    5    0    0  0.61535790020E+02  0.55717727728E+02 -0.52220961101E+02  0.12397423775E+03  0.75838408542E+02 0.  0.
          5    1    5    5  501    0 -0.21715153391E+02 -0.17164938812E+02  0.49301739703E+02  0.56735655006E+02  0.47000000000E+01 0. -1.
        -11    1    6    6    0    0 -0.20113282534E+01  0.42507710854E+02 -0.39026694835E+02  0.57741093107E+02  0.00000000000E+00 0.  1.
         12    1    6    6    0    0  0.63547118273E+02  0.13210016874E+02 -0.13194266266E+02  0.66233144640E+02  0.00000000000E+00 0. -1.
         -5    1    3    3    0  503 -0.75066197083E+02 -0.42016507888E+02 -0.14486791345E+03  0.16855006148E+03  0.47000000000E+01 0.  1.
         11    1    4    4    0    0  0.70865061564E+01 -0.64310598136E+01  0.22790201052E+01  0.98372268689E+01  0.00000000000E+00 0. -1.
        -12    1    4    4    0    0  0.28159054298E+02  0.98947787857E+01 -0.26824328478E+03  0.26989868250E+03  0.00000000000E+00 0.  1.
</event>
<event>
12    1  0.8462562E-002  0.2169307E+03  0.7818608E-02  0.1139988E+00
         21   -1    0    0  503  502  0.00000000000E+00  0.00000000000E+00  0.14266072326E+04  0.14266072326E+04  0.00000000000E+00 0. -1.
         21   -1    0    0  501  503 -0.00000000000E+00 -0.00000000000E+00 -0.48813512254E+02  0.48813512254E+02  0.00000000000E+00 0.  1.
          6    2    1    2  501    0 -0.98304346894E+02 -0.21285005221E+01  0.21356334808E+03  0.29115248927E+03  0.17173291249E+03 0.  0.
         24    2    3    3    0    0 -0.82865175096E+02  0.54584912067E+02  0.96042185027E+02  0.15966829646E+03  0.80148073718E+02 0.  0.
         -6    2    1    2    0  502  0.98304346894E+02  0.21285005221E+01  0.11642303723E+04  0.11842682556E+04  0.19336666296E+03 0.  0.
        -24    2    5    5    0    0  0.13048634787E+03  0.22362227684E+02  0.10881633977E+04  0.10991015983E+04  0.79987417553E+02 0.  0.
          5    1    3    3  501    0 -0.15439171798E+02 -0.56713412589E+02  0.11752116305E+03  0.13148419281E+03  0.47000000000E+01 0. -1.
        -13    1    4    4    0    0 -0.83446743981E+02  0.25137973335E+02  0.39016724632E+02  0.95486028221E+02  0.00000000000E+00 0.  1.
         14    1    4    4    0    0  0.58156888498E+00  0.29446938732E+02  0.57025460395E+02  0.64182268239E+02  0.00000000000E+00 0. -1.
         -5    1    5    5    0  502 -0.32182000978E+02 -0.20233727162E+02  0.76066974526E+02  0.85166657298E+02  0.47000000000E+01 0.  1.
         13    1    6    6    0    0 -0.72612529382E+01  0.13077779851E+02  0.16428947601E+03  0.16496904572E+03  0.00000000000E+00 0. -1.
        -14    1    6    6    0    0  0.13774760081E+03  0.92844478328E+01  0.92387392173E+03  0.93413255256E+03  0.00000000000E+00 0.  1.
</event>
<event>
12    1  0.8462562E-002  0.2585421E+03  0.7818608E-02  0.1108108E+00
         21   -1    0    0  503  502  0.00000000000E+00  0.00000000000E+00  0.36478053440E+03  0.36478053440E+03  0.00000000000E+00 0. -1.
         21   -1    0    0  501  503 -0.00000000000E+00 -0.00000000000E+00 -0.55388368381E+03  0.55388368381E+03  0.00000000000E+00 0. -1.
          6    2    1    2  501    0  0.17191276461E+03 -0.82699379963E+02 -0.47046525833E+03  0.53655341837E+03  0.17366296490E+03 0.  0.
         24    2    3    3    0    0  0.11933036732E+03 -0.67093615483E+02 -0.45153093493E+03  0.47833789645E+03  0.78649018881E+02 0.  0.
         -6    2    1    2    0  502 -0.17191276461E+03  0.82699379963E+02  0.28136210893E+03  0.38211079985E+03  0.17450169323E+03 0.  0.
        -24    2    5    5    0    0 -0.19678345743E+03  0.80735117033E+02  0.22125937556E+03  0.31686634991E+03  0.78782511955E+02 0.  0.
          5    1    3    3  501    0  0.52582397289E+02 -0.15605764480E+02 -0.18934323399E+02  0.58215521919E+02  0.47000000000E+01 0. -1.
        -11    1    4    4    0    0  0.51360398084E+01  0.15423260478E+02 -0.62570098008E+02  0.64647297186E+02  0.00000000000E+00 0.  1.
         12    1    4    4    0    0  0.11419432751E+03 -0.82516875961E+02 -0.38896083693E+03  0.41369059926E+03  0.00000000000E+00 0. -1.
         -5    1    5    5    0  502  0.24870692821E+02  0.19642629293E+01  0.60102733362E+02  0.65244449939E+02  0.47000000000E+01 0.  1.
         11    1    6    6    0    0 -0.28904239756E+02  0.41077306882E+02  0.77313437432E+02  0.92196354723E+02  0.00000000000E+00 0. -1.
        -12    1    6    6    0    0 -0.16787921768E+03  0.39657810151E+02  0.14394593813E+03  0.22466999519E+03  0.00000000000E+00 0.  1.
</event>
<event>
12    1  0.8462562E-002  0.2297424E+03  0.7818608E-02  0.1128332E+00
         21   -1    0    0  501  502  0.00000000000E+00  0.00000000000E+00  0.29535875799E+03  0.29535875799E+03  0.00000000000E+00 0.  1.
         21   -1    0    0  502  503 -0.00000000000E+00 -0.00000000000E+00 -0.18771592589E+04  0.18771592589E+04  0.00000000000E+00 0. -1.
         -6    2    1    2    0  503  0.10477534962E+03  0.89759742685E+02 -0.18274650620E+04  0.18418496522E+04  0.18370330249E+03 0.  0.
        -24    2    3    3    0    0  0.34972296473E+02 -0.22326868891E+02 -0.57895209092E+03  0.58636464490E+03  0.83165032361E+02 0.  0.
          6    2    1    2  501    0 -0.10477534962E+03 -0.89759742685E+02  0.24566456108E+03  0.33066836465E+03  0.17307745524E+03 0.  0.
         24    2    5    5    0    0 -0.10061666703E+03 -0.71421605227E+02  0.26546862623E+03  0.30295784458E+03  0.78007081084E+02 0.  0.
          5    1    5    5  501    0 -0.41586825876E+01 -0.18338137458E+02 -0.19804065149E+02  0.27710520073E+02  0.47000000000E+01 0. -1.
        -13    1    6    6    0    0 -0.78915331385E+02 -0.24379206799E+02  0.21629936499E+03  0.23153269866E+03  0.00000000000E+00 0.  1.
         14    1    6    6    0    0 -0.21701335648E+02 -0.47042398428E+02  0.49169261243E+02  0.71425145922E+02  0.00000000000E+00 0. -1.
         -5    1    3    3    0  503  0.69803053147E+02  0.11208661158E+03 -0.12485129711E+04  0.12554850073E+04  0.47000000000E+01 0.  1.
         11    1    4    4    0    0  0.12628183022E+02  0.25753663970E+02 -0.35772344421E+03  0.35887154353E+03  0.00000000000E+00 0. -1.
        -12    1    4    4    0    0  0.22344113451E+02 -0.48080532861E+02 -0.22122864671E+03  0.22749310137E+03  0.00000000000E+00 0.  1.
</event>
<event>
12    1  0.8462562E-002  0.2728288E+03  0.7818608E-02  0.1099696E+00
         21   -1    0    0  503  502  0.00000000000E+00  0.00000000000E+00  0.17086691286E+03  0.17086691286E+03  0.00000000000E+00 0.  1.
         21   -1    0    0  501  503 -0.00000000000E+00 -0.00000000000E+00 -0.44153755872E+03  0.44153755872E+03  0.00000000000E+00 0.  1.
          6    2    1    2  501    0  0.14057653468E+03 -0.15857692074E+03 -0.99053636008E+02  0.29008795840E+03  0.17155465282E+03 0.  0.
         24    2    3    3    0    0  0.10941974172E+03 -0.64381758158E+02  0.40931909539E+00  0.14952322655E+03  0.78989474445E+02 0.  0.
         -6    2    1    2    0  502 -0.14057653468E+03  0.15857692074E+03 -0.17161700985E+03  0.32231651318E+03  0.17183461440E+03 0.  0.
        -24    2    5    5    0    0 -0.69209454435E+02  0.96073229982E+02 -0.17641332395E+03  0.22721096061E+03  0.80517983401E+02 0.  0.
          5    1    3    3  501    0  0.31156792955E+02 -0.94195162586E+02 -0.99462955103E+02  0.14056473185E+03  0.47000000000E+01 0. -1.
        -13    1    4    4    0    0  0.66014780996E+02 -0.78106494937E+02 -0.10216989972E+02  0.10277627521E+03  0.00000000000E+00 0.  1.
         14    1    4    4    0    0  0.43404960726E+02  0.13724736779E+02  0.10626309068E+02  0.46746951341E+02  0.00000000000E+00 0. -1.
         -5    1    5    5    0  502 -0.71367080243E+02  0.62503690761E+02  0.47963141020E+01  0.95105552573E+02  0.47000000000E+01 0.  1.
         13    1    6    6    0    0 -0.88006175712E+01 -0.96779656412E+01 -0.49968391663E+02  0.51652241519E+02  0.00000000000E+00 0. -1.
        -14    1    6    6    0    0 -0.60408836864E+02  0.10575119562E+03 -0.12644493229E+03  0.17555871909E+03  0.00000000000E+00 0.  1.
</event>
<event>
12    1  0.8462562E-002  0.3140402E+03  0.7818608E-02  0.1078549E+00
         21   -1    0    0  501  502  0.00000000000E+00  0.00000000000E+00  0.59387786179E+03  0.59387786179E+03  0.00000000000E+00 0. -1.
         21   -1    0    0  502  503 -0.00000000000E+00 -0.00000000000E+00 -0.16611894844E+03  0.16611894844E+03  0.00000000000E+00 0.  1.
         -6    2    1    2    0  503  0.20208686540E+03  0.16778109002E+03  0.23650777618E+03  0.39230371050E+03  0.17022537338E+03 0.  0.
        -24    2    3    3    0    0  0.92523260183E+02  0.25999215950E+02  0.14816841445E+03  0.19247324177E+03  0.76521610346E+02 0.  0.
          6    2    1    2  501    0 -0.20208686540E+03 -0.16778109002E+03  0.19125113718E+03  0.36769309973E+03  0.17213838265E+03 0.  0.
         24    2    5    5    0    0 -0.20094269206E+03 -0.10947915933E+03  0.19215008214E+03  0.30918393500E+03  0.79431730294E+02 0.  0.
          5    1    5    5  501    0 -0.11441733376E+01 -0.58301930696E+02 -0.89894495922E+00  0.58509164731E+02  0.47000000000E+01 0. -1.
        -11    1    6    6    0    0 -0.46178268003E+02 -0.14904368960E+02  0.53508150181E+01  0.48818069106E+02  0.00000000000E+00 0.  1.
         12    1    6    6    0    0 -0.15476442406E+03 -0.94574790367E+02  0.18679926712E+03  0.26036586589E+03  0.00000000000E+00 0. -1.
         -5    1    3    3    0  503  0.10956360521E+03  0.14178187407E+03  0.88339361726E+02  0.19983046873E+03  0.47000000000E+01 0.  1.
         11    1    4    4    0    0  0.72229773904E+02  0.41456627496E+02  0.14438843239E+03  0.16668476718E+03  0.00000000000E+00 0. -1.
        -12    1    4    4    0    0  0.20293486279E+02 -0.15457411547E+02  0.37799820601E+01  0.25788474586E+02  0.00000000000E+00 0.  1.
</event>
<event>
12    1  0.8462562E-002  0.1835843E+03  0.7818608E-02  0.1164729E+00
         21   -1    0    0  503  502  0.00000000000E+00  0.00000000000E+00  0.10683304299E+04  0.10683304299E+04  0.00000000000E+00 0.  1.
         21   -1    0    0  501  503 -0.00000000000E+00 -0.00000000000E+00 -0.12357534835E+03  0.12357534835E+03  0.00000000000E+00 0.  1.
          6    2    1    2  501    0 -0.32048321054E+01  0.58384273273E+02 -0.43101284309E+02  0.18713545292E+03  0.17246148183E+03 0.  0.
         24    2    3    3    0    0 -0.55224880031E+01 -0.30881045997E+02  0.92286556857E+01  0.83529558431E+02  0.76862748912E+02 0.  0.
         -6    2    1    2    0  502  0.32048321054E+01 -0.58384273273E+02  0.98785636587E+03  0.10047703253E+04  0.17402359832E+03 0.  0.
        -24    2    5    5    0    0  0.45197205394E+02 -0.84500291549E+02  0.54552406720E+03  0.55965757751E+03  0.80230976123E+02 0.  0.
          5    1    3    3  501    0  0.23176558977E+01  0.89265319270E+02 -0.52329939994E+02  0.10360589449E+03  0.47000000000E+01 0. -1.
        -13    1    4    4    0    0 -0.19058359152E-01 -0.10770535637E+02 -0.33930006477E+02  0.35598456999E+02  0.00000000000E+00 0.  1.
         14    1    4    4    0    0 -0.55034296439E+01 -0.20110510360E+02  0.43158662163E+02  0.47931101432E+02  0.00000000000E+00 0. -1.
         -5    1    5    5    0  502 -0.41992373289E+02  0.26116018277E+02  0.44233229867E+03  0.44511274782E+03  0.47000000000E+01 0.  1.
         11    1    6    6    0    0 -0.17530902075E+02 -0.50071728202E+02  0.25387300111E+03  0.25935691853E+03  0.00000000000E+00 0. -1.
        -12    1    6    6    0    0  0.62728107470E+02 -0.34428563348E+02  0.29165106608E+03  0.30030065899E+03  0.00000000000E+00 0.  1.
</event>
<event>
12    1  0.8462562E-002  0.2518581E+03  0.7818608E-02  0.1112286E+00
         21   -1    0    0  501  502  0.00000000000E+00  0.00000000000E+00  0.88765376318E+02  0.88765376318E+02  0.00000000000E+00 0.  1.
         21   -1    0    0  502  503 -0.00000000000E+00 -0.00000000000E+00 -0.14072208852E+04  0.14072208852E+04  0.00000000000E+00 0. -1.
         -6    2    1    2    0  503 -0.17654379742E+03 -0.43484014075E+02 -0.11856483234E+04  0.12121033210E+04  0.17428121600E+03 0.  0.
        -24    2    3    3    0    0 -0.12569398576E+02 -0.87391082351E+01 -0.31863122522E+03  0.32902034053E+03  0.80586382259E+02 0.  0.
          6    2    1    2  501    0  0.17654379742E+03  0.43484014075E+02 -0.13280718557E+03  0.28388294055E+03  0.17289651097E+03 0.  0.
         24    2    5    5    0    0  0.16780284052E+03 -0.12903396037E+02 -0.12862267533E+03  0.22647610757E+03  0.80145765775E+02 0.  0.
          5    1    5    5  501    0  0.87409569005E+01  0.56387410112E+02 -0.41845102351E+01  0.57406832978E+02  0.47000000000E+01 0. -1.
        -13    1    6    6    0    0  0.17416864678E+03 -0.49284276956E+01 -0.11251838263E+03  0.20741116978E+03  0.00000000000E+00 0.  1.
         14    1    6    6    0    0 -0.63658062551E+01 -0.79749683410E+01 -0.16104292701E+02  0.19064937785E+02  0.00000000000E+00 0. -1.
         -5    1    3    3    0  503 -0.16397439885E+03 -0.34744905840E+02 -0.86701709814E+03  0.88308298049E+03  0.47000000000E+01 0.  1.
         13    1    4    4    0    0  0.14997784967E+02  0.23648974874E+02 -0.52402998758E+02  0.59416174947E+02  0.00000000000E+00 0. -1.
        -14    1    4    4    0    0 -0.27567183543E+02 -0.32388083109E+02 -0.26622822646E+03  0.26960416558E+03  0.00000000000E+00 0.  1.
</event>
<event>
12    1  0.8462562E-002  0.1851541E+03  0.7818608E-02  0.1163105E+00
         21   -1    0    0  503  502  0.00000000000E+00  0.00000000000E+00  0.52947593653E+03  0.52947593653E+03  0.00000000000E+00 0.  1.
         21   -1    0    0  501  503 -0.00000000000E+00 -0.00000000000E+00 -0.85496564607E+02  0.85496564607E+02  0.00000000000E+00 0.  1.
          6    2    1    2  501    0 -0.21794719935E+02 -0.56897931551E+02  0.69814141936E+02  0.19787886824E+03  0.17484177890E+03 0.  0.
         24    2    3    3    0    0 -0.56410126106E+02 -0.79984790258E+02  0.12346134450E+02  0.12677407744E+03  0.79621420960E+02 0.  0.
         -6    2    1    2    0  502  0.21794719935E+02  0.56897931551E+02  0.37416522999E+03  0.41709363290E+03  0.17393991734E+03 0.  0.
        -24    2    5    5    0    0  0.51167884275E+01 -0.24080032935E+02  0.27731223569E+03  0.28966452855E+03  0.79983957934E+02 0.  0.
          5    1    3    3  501    0  0.34615406172E+02  0.23086858707E+02  0.57468007486E+02  0.71104790794E+02  0.47000000000E+01 0. -1.
        -11    1    4    4    0    0 -0.23142168056E+02 -0.61066255762E+02  0.42615979921E+02  0.77979287505E+02  0.00000000000E+00 0.  1.
         12    1    4    4    0    0 -0.33267958050E+02 -0.18918534496E+02 -0.30269845471E+02  0.48794789938E+02  0.00000000000E+00 0. -1.
         -5    1    5    5    0  502  0.16677931507E+02  0.80977964486E+02  0.96852994300E+02  0.12742910435E+03  0.47000000000E+01 0.  1.
         11    1    6    6    0    0 -0.36234435422E+02 -0.11819564693E+02  0.95911552965E+02  0.10320689130E+03  0.00000000000E+00 0. -1.
        -12    1    6    6    0    0  0.41351223850E+02 -0.12260468243E+02  0.18140068272E+03  0.18645763725E+03  0.00000000000E+00 0.  1.
</event>
<event>
12    1  0.8462562E-002  0.1805485E+03  0.7818608E-02  0.1167409E+00
         21   -1    0    0  503  502  0.00000000000E+00  0.00000000000E+00  0.17424292674E+03  0.17424292674E+03  0.00000000000E+00 0. -1.
         21   -1    0    0  501  503 -0.00000000000E+00 -0.00000000000E+00 -0.19047635466E+03  0.19047635466E+03  0.00000000000E+00 0. -1.
          6    2    1    2  501    0 -0.38054798743E+02 -0.40970469142E+02 -0.34477593942E+02  0.18381095296E+03  0.17167124073E+03 0.  0.
         24    2    3    3    0    0 -0.58296468049E+02  0.49367429733E+01 -0.71138507346E+02  0.12149474421E+03  0.79230272155E+02 0.  0.
         -6    2    1    2    0  502  0.38054798743E+02  0.40970469142E+02  0.18244166021E+02  0.18090832845E+03  0.17107959159E+03 0.  0.
        -24    2    5    5    0    0  0.32997820134E+02  0.65666142996E+02 -0.40462753730E+02  0.11684553296E+03  0.81331086693E+02 0.  0.
          5    1    3    3  501    0  0.20241669306E+02 -0.45907212115E+02  0.36660913404E+02  0.62316208742E+02  0.47000000000E+01 0. -1.
        -13    1    4    4    0    0 -0.28543924544E+02  0.14422586889E+02  0.10841477214E+02  0.33768391569E+02  0.00000000000E+00 0.  1.
         14    1    4    4    0    0 -0.29752543505E+02 -0.94858439156E+01 -0.81979984560E+02  0.87726352644E+02  0.00000000000E+00 0. -1.
         -5    1    5    5    0  502  0.50569786087E+01 -0.24695673854E+02  0.58706919752E+02  0.64062795494E+02  0.47000000000E+01 0.  1.
         13    1    6    6    0    0  0.56438731632E+02  0.63835534770E+02 -0.37687513154E+02  0.93170030457E+02  0.00000000000E+00 0. -1.
        -14    1    6    6    0    0 -0.23440911498E+02  0.18306082265E+01 -0.27752405769E+01  0.23675502499E+02  0.00000000000E+00 0.  1.
</event>
<event>
12    1  0.8462562E-002  0.1940952E+03  0.7818608E-02  0.1155626E+00
         21   -1    0    0  501  502  0.00000000000E+00  0.00000000000E+00  0.12627161318E+04  0.12627161318E+04  0.00000000000E+00 0. -1.
         21   -1    0    0  502  503 -0.00000000000E+00 -0.00000000000E+00 -0.45955735794E+02  0.45955735794E+02  0.00000000000E+00 0. -1.
         -6    2    1    2    0  503 -0.65601509123E+01  0.84801626998E+02  0.21052756851E+03  0.28389020574E+03  0.17040375668E+03 0.  0.
        -24    2    3    3    0    0  0.18078014206E+01 -0.96870072466E+01  0.43092568480E+02  0.91394247700E+02  0.79992704661E+02 0.  0.
          6    2    1    2  501    0  0.65601509123E+01 -0.84801626998E+02  0.10062328275E+04  0.10247816619E+04  0.17446661520E+03 0.  0.
         24    2    5    5    0    0 -0.23573490688E+02 -0.90661161671E+02  0.45013531599E+03  0.46781765691E+03  0.86350458672E+02 0.  0.
          5    1    5    5  501    0  0.30133641600E+02  0.58595346736E+01  0.55609751153E+03  0.55696400497E+03  0.47000000000E+01 0. -1.
        -13    1    6    6    0    0 -0.34337228233E+02 -0.10096523517E+03  0.42833660823E+03  0.44141281575E+03  0.00000000000E+00 0.  1.
         14    1    6    6    0    0  0.10763737545E+02  0.10304073499E+02  0.21798707759E+02  0.26404841158E+02  0.00000000000E+00 0. -1.
         -5    1    3    3    0  503 -0.83679523329E+01  0.94488634244E+02  0.16743500003E+03  0.19249595804E+03  0.47000000000E+01 0.  1.
         11    1    4    4    0    0  0.16070826704E+02 -0.27264962494E+02 -0.10396261212E+02  0.33312638711E+02  0.00000000000E+00 0. -1.
        -12    1    4    4    0    0 -0.14263025283E+02  0.17577955247E+02  0.53488829692E+02  0.58081608989E+02  0.00000000000E+00 0.  1.
</event>
<event>
12    1  0.8462562E-002  0.2479762E+03  0.7818608E-02  0.1114858E+00
         21   -1    0    0  501  502  0.00000000000E+00  0.00000000000E+00  0.68580853863E+03  0.68580853863E+03  0.00000000000E+00 0.  1.
         21   -1    0    0  502  503 -0.00000000000E+00 -0.00000000000E+00 -0.15115188400E+03  0.15115188400E+03  0.00000000000E+00 0. -1.
         -6    2    1    2    0  503  0.15014076966E+03 -0.94087342952E+02 -0.35384496123E+00  0.24797649350E+03  0.17348641821E+03 0.  0.
        -24    2    3    3    0    0  0.17376931515E+03 -0.62300361257E+02 -0.12924036824E+02  0.20615759717E+03  0.90867014036E+02 0.  0.
          6    2    1    2  501    0 -0.15014076966E+03  0.94087342952E+02  0.53501049959E+03  0.58898392913E+03  0.17108815065E+03 0.  0.
         24    2    5    5    0    0 -0.11872569351E+03  0.30129315828E+01  0.24502036860E+03  0.28337335751E+03  0.78489557670E+02 0.  0.
          5    1    5    5  501    0 -0.31415076148E+02  0.91074411369E+02  0.28999013099E+03  0.30561057162E+03  0.47000000000E+01 0. -1.
        -13    1    6    6    0    0 -0.10829417600E+03 -0.16754813435E+02  0.23413940311E+03  0.25851424026E+03  0.00000000000E+00 0.  1.
         14    1    6    6    0    0 -0.10431517513E+02  0.19767745017E+02  0.10880965492E+02  0.24859117256E+02  0.00000000000E+00 0. -1.
         -5    1    3    3    0  503 -0.23628545491E+02 -0.31786981694E+02  0.12570191863E+02  0.41818896335E+02  0.47000000000E+01 0.  1.
         11    1    4    4    0    0  0.71307339990E+02 -0.40917855234E+01 -0.44507194121E+02  0.84156816562E+02  0.00000000000E+00 0. -1.
        -12    1    4    4    0    0  0.10246197516E+03 -0.58208575734E+02  0.31583157297E+02  0.12200078060E+03  0.00000000000E+00 0.  1.
</event>
<event>
12    1  0.8462562E-002  0.2224293E+03  0.7818608E-02  0.1132114E+00
         21   -1    0    0  501  502  0.00000000000E+00  0.00000000000E+00  0.50270827184E+03  0.50270827184E+03  0.00000000000E+00 0. -1.
         21   -1    0    0  502  503 -0.00000000000E+00 -0.00000000000E+00 -0.28650778516E+03  0.28650778516E+03  0.00000000000E+00 0.  1.
         -6    2    1    2    0  503 -0.13683915703E+03  0.34358299942E+02 -0.21170083842E+03  0.30695643597E+03  0.17175436217E+03 0.  0.
        -24    2    3    3    0    0 -0.16527011039E+03  0.15680234928E+02 -0.15538859286E+03  0.24099926637E+03  0.79843299317E+02 0.  0.
          6    2    1    2  501    0  0.13683915703E+03 -0.34358299942E+02  0.42790132509E+03  0.48225962104E+03  0.17195740866E+03 0.  0.
         24    2    5    5    0    0  0.11581338059E+03 -0.48182182844E+01  0.42282686616E+03  0.44534702383E+03  0.78201397238E+02 0.  0.
          5    1    5    5  501    0  0.21025776443E+02 -0.29540081657E+02  0.50744589274E+01  0.36912597210E+02  0.47000000000E+01 0. -1.
        -13    1    6    6    0    0  0.69306968669E+02  0.35829870999E+02  0.23075756511E+03  0.24359041323E+03  0.00000000000E+00 0.  1.
         14    1    6    6    0    0  0.46506411920E+02 -0.40648089283E+02  0.19206930105E+03  0.20175661060E+03  0.00000000000E+00 0. -1.
         -5    1    3    3    0  503  0.28430953357E+02  0.18678065014E+02 -0.56312245556E+02  0.65957169596E+02  0.47000000000E+01 0.  1.
         11    1    4    4    0    0 -0.36766954601E+02  0.29937390179E+02 -0.75074478824E+02  0.88793207240E+02  0.00000000000E+00 0. -1.
        -12    1    4    4    0    0 -0.12850315579E+03 -0.14257155251E+02 -0.80314114036E+02  0.15220605913E+03  0.00000000000E+00 0.  1.
</event>
<event>
12    1  0.8462562E-002  0.2031890E+03  0.7818608E-02  0.1147213E+00
         21   -1    0    0  501  502  0.00000000000E+00  0.00000000000E+00  0.23599409884E+03  0.23599409884E+03  0.00000000000E+00 0.  1.
         21   -1    0    0  502  503 -0.00000000000E+00 -0.00000000000E+00 -0.24051639784E+03  0.24051639784E+03  0.00000000000E+00 0. -1.
         -6    2    1    2    0  503  0.84795705685E+02  0.65174771050E+02 -0.12719822417E+03  0.23916023090E+03  0.17198885234E+03 0.  0.
        -24    2    3    3    0    0  0.19469243300E+02 -0.26802927639E+02 -0.68924445600E+02  0.11209581018E+03  0.81960009115E+02 0.  0.
          6    2    1    2  501    0 -0.84795705685E+02 -0.65174771050E+02  0.12267592518E+03  0.23735026578E+03  0.17276487942E+03 0.  0.
         24    2    5    5    0    0 -0.12305433138E+03 -0.52864131069E+02  0.71668981904E+02  0.17224210531E+03  0.81202925121E+02 0.  0.
          5    1    5    5  501    0  0.38258625699E+02 -0.12310639981E+02  0.51006943277E+02  0.65108160468E+02  0.47000000000E+01 0. -1.
        -13    1    6    6    0    0 -0.39987220903E+02 -0.44080206368E+02  0.65476178158E+02  0.88482610355E+02  0.00000000000E+00 0.  1.
         14    1    6    6    0    0 -0.83067110481E+02 -0.87839247008E+01  0.61928037457E+01  0.83759494955E+02  0.00000000000E+00 0. -1.
         -5    1    3    3    0  503  0.65326462384E+02  0.91977698689E+02 -0.58273778574E+02  0.12706442072E+03  0.47000000000E+01 0.  1.
         11    1    4    4    0    0  0.25309819824E+02 -0.31187413243E+02 -0.85235235354E+02  0.94224662749E+02  0.00000000000E+00 0. -1.
        -12    1    4    4    0    0 -0.58405765235E+01  0.43844856037E+01  0.16310789754E+02  0.17871147432E+02  0.00000000000E+00 0.  1.
</event>
<event>
12    1  0.8462562E-002  0.1827343E+03  0.7818608E-02  0.1165316E+00
         21   -1    0    0  503  502  0.00000000000E+00  0.00000000000E+00  0.28158308404E+03  0.28158308404E+03  0.00000000000E+00 0. -1.
         21   -1    0    0  501  503 -0.00000000000E+00 -0.00000000000E+00 -0.16367835674E+03  0.16367835674E+03  0.00000000000E+00 0. -1.
          6    2    1    2  501    0 -0.59823914933E+02 -0.12743810860E+02 -0.58438468497E+02  0.19131507830E+03  0.17159574316E+03 0.  0.
         24    2    3    3    0    0 -0.21673385170E+02  0.65265271276E+01  0.33702518139E+02  0.89634892102E+02  0.79913847186E+02 0.  0.
         -6    2    1    2    0  502  0.59823914933E+02  0.12743810860E+02  0.17634319580E+03  0.25394636248E+03  0.17219328325E+03 0.  0.
        -24    2    5    5    0    0  0.50694579828E+02  0.47927415858E+02  0.18769485610E+03  0.21557735139E+03  0.79857734820E+02 0.  0.
          5    1    3    3  501    0 -0.38150529762E+02 -0.19270337988E+02 -0.92140986637E+02  0.10168018620E+03  0.47000000000E+01 0. -1.
        -11    1    4    4    0    0 -0.27526274345E+02 -0.30551645551E+02  0.31643606078E+01  0.41244539072E+02  0.00000000000E+00 0.  1.
         12    1    4    4    0    0  0.58528891752E+01  0.37078172679E+02  0.30538157532E+02  0.48390353029E+02  0.00000000000E+00 0. -1.
         -5    1    5    5    0  502  0.91293351046E+01 -0.35183604998E+02 -0.11351660299E+02  0.38369011085E+02  0.47000000000E+01 0.  1.
         11    1    6    6    0    0  0.12580684939E+02  0.54005139126E+02  0.57918413507E+02  0.80183360548E+02  0.00000000000E+00 0. -1.
        -12    1    6    6    0    0  0.38113894889E+02 -0.60777232678E+01  0.12977644260E+03  0.13539399084E+03  0.00000000000E+00 0.  1.
</event>
<event>
12    1  0.8462562E-002  0.1812530E+03  0.7818608E-02  0.1166694E+00
         21   -1    0    0  501  502  0.00000000000E+00  0.00000000000E+00  0.90865155821E+02  0.90865155821E+02  0.00000000000E+00 0.  1.
         21   -1    0    0  502  503 -0.00000000000E+00 -0.00000000000E+00 -0.37308402663E+03  0.37308402663E+03  0.00000000000E+00 0. -1.
         -6    2    1    2    0  503 -0.27404414461E+02  0.50566749187E+02 -0.98756222162E+02  0.20605157388E+03  0.17145396358E+03 0.  0.
        -24    2    3    3    0    0 -0.37438551896E+02  0.62369452984E+02 -0.13282590923E+03  0.16833127022E+03  0.73492180112E+02 0.  0.
          6    2    1    2  501    0  0.27404414461E+02 -0.50566749187E+02 -0.18346264865E+03  0.25789760857E+03  0.17188552878E+03 0.  0.
         24    2    5    5    0    0 -0.49863743232E+01 -0.39094347746E+02 -0.20213518866E+02  0.91004985706E+02  0.79498988193E+02 0.  0.
          5    1    5    5  501    0  0.32390788784E+02 -0.11472401441E+02 -0.16324912978E+03  0.16689262287E+03  0.47000000000E+01 0. -1.
        -11    1    6    6    0    0  0.29143264326E+01 -0.23967720026E+02  0.29687747720E+02  0.38266267998E+02  0.00000000000E+00 0.  1.
         12    1    6    6    0    0 -0.79007007559E+01 -0.15126627721E+02 -0.49901266586E+02  0.52738717708E+02  0.00000000000E+00 0. -1.
         -5    1    3    3    0  503  0.10034137436E+02 -0.11802703796E+02  0.34069687069E+02  0.37720303657E+02  0.47000000000E+01 0.  1.
         11    1    4    4    0    0 -0.45135702945E+01  0.45505793625E+02 -0.12122371421E+03  0.12956210271E+03  0.00000000000E+00 0. -1.
        -12    1    4    4    0    0 -0.32924981602E+02  0.16863659358E+02 -0.11602195017E+02  0.38769167513E+02  0.00000000000E+00 0.  1.
</event>
<event>
12    1  0.8462562E-002  0.1840424E+03  0.7818608E-02  0.1165041E+00
         21   -1    0    0  501  502  0.00000000000E+00  0.00000000000E+00  0.36505399719E+02  0.36505399719E+02  0.00000000000E+00 0. -1.
         21   -1    0    0  502  503 -0.00000000000E+00 -0.00000000000E+00 -0.94243505667E+03  0.94243505667E+03  0.00000000000E+00 0. -1.
         -6    2    1    2    0  503  0.47686155513E+02 -0.10883715644E+02 -0.54520218821E+03  0.57397635687E+03  0.17265864452E+03 0.  0.
        -24    2    3    3    0    0  0.67620824438E+02  0.22342175280E+02 -0.51098303069E+03  0.52206882761E+03  0.79877746702E+02 0.  0.
          6    2    1    2  501    0 -0.47686155513E+02  0.10883715644E+02 -0.36072746875E+03  0.40496409952E+03  0.17742375968E+03 0.  0.
         24    2    5    5    0    0  0.23729041951E+02  0.10687579100E+02 -0.85132286329E+02  0.12022744317E+03  0.80807426244E+02 0.  0.
          5    1    5    5  501    0 -0.71415197464E+02  0.19613654352E+00 -0.27559518242E+03  0.28473665635E+03  0.47000000000E+01 0. -1.
        -11    1    6    6    0    0  0.39043859414E+02 -0.78697052593E+01 -0.87412616596E+02  0.96058944190E+02  0.00000000000E+00 0.  1.
         12    1    6    6    0    0 -0.15314817463E+02  0.18557284359E+02  0.22803302666E+01  0.24168498978E+02  0.00000000000E+00 0. -1.
         -5    1    3    3    0  503 -0.19934668925E+02 -0.33225890923E+02 -0.34219157523E+02  0.51907529265E+02  0.47000000000E+01 0.  1.
         13    1    4    4    0    0  0.44355602188E+01  0.40827361533E+02 -0.20812679603E+03  0.21213983801E+03  0.00000000000E+00 0. -1.
        -14    1    4    4    0    0  0.63185264219E+02 -0.18485186254E+02 -0.30285623466E+03  0.30992898960E+03  0.00000000000E+00 0.  1.
</event>
<event>
12    1  0.8462562E-002  0.1741840E+03  0.7818608E-02  0.1173626E+00
         21   -1    0    0  503  502  0.00000000000E+00  0.00000000000E+00  0.63745253439E+02  0.63745253439E+02  0.00000000000E+00 0.  1.
         21   -1    0    0  501  503 -0.00000000000E+00 -0.00000000000E+00 -0.73118772345E+03  0.73118772345E+03  0.00000000000E+00 0.  1.
          6    2    1    2  501    0 -0.24582655892E+02  0.18574093137E+02 -0.56908779733E+03  0.59514785795E+03  0.17143730005E+03 0.  0.
         24    2    3    3    0    0 -0.81133924919E+02  0.18541350070E+02 -0.33073016287E+03  0.35012847300E+03  0.79252832964E+02 0.  0.
         -6    2    1    2    0  502  0.24582655892E+02 -0.18574093137E+02 -0.98354672683E+02  0.19978511894E+03  0.17114656936E+03 0.  0.
        -24    2    5    5    0    0  0.18997417633E+02  0.18403255890E+02 -0.12667226571E+03  0.15264177049E+03  0.80957183098E+02 0.  0.
          5    1    3    3  501    0  0.56551269027E+02  0.32743067273E-01 -0.23835763445E+03  0.24501938495E+03  0.47000000000E+01 0. -1.
        -11    1    4    4    0    0 -0.43676026161E+00 -0.23748792605E+02 -0.63765873527E+02  0.68046179440E+02  0.00000000000E+00 0.  1.
         12    1    4    4    0    0 -0.80697164657E+02  0.42290142675E+02 -0.26696428935E+03  0.28208229356E+03  0.00000000000E+00 0. -1.
         -5    1    5    5    0  502  0.55852382588E+01 -0.36977349027E+02  0.28317593029E+02  0.47143348443E+02  0.47000000000E+01 0.  1.
         13    1    6    6    0    0  0.20033213930E+02 -0.30133941260E+02 -0.61808856514E+02  0.71622055401E+02  0.00000000000E+00 0. -1.
        -14    1    6    6    0    0 -0.10357962975E+01  0.48537197150E+02 -0.64863409198E+02  0.81019715094E+02  0.00000000000E+00 0.  1.
</event>
<event>
12    1  0.8462562E-002  0.1832471E+03  0.7818608E-02  0.1165074E+00
         21   -1    0    0  501  502  0.00000000000E+00  0.00000000000E+00  0.47237823391E+03  0.47237823391E+03  0.00000000000E+00 0. -1.
         21   -1    0    0  502  503 -0.00000000000E+00 -0.00000000000E+00 -0.10168050921E+03  0.10168050921E+03  0.00000000000E+00 0. -1.
         -6    2    1    2    0  503 -0.61316728678E+02 -0.28033224549E+02  0.25773304457E+02  0.18347923659E+03  0.16868539991E+03 0.  0.
        -24    2    3    3    0    0 -0.60312764087E+02 -0.71077608411E+01  0.78059756441E+02  0.12695626747E+03  0.79601623722E+02 0.  0.
          6    2    1    2  501    0  0.61316728678E+02  0.28033224549E+02  0.34492442025E+03  0.39057950653E+03  0.17039334595E+03 0.  0.
         24    2    5    5    0    0 -0.12271139715E+02  0.61394955896E+02  0.21896798534E+03  0.24086212949E+03  0.78407049036E+02 0.  0.
          5    1    5    5  501    0  0.73587868392E+02 -0.33361731348E+02  0.12595643490E+03  0.14971737704E+03  0.47000000000E+01 0. -1.
        -13    1    6    6    0    0 -0.37154450343E+02  0.53019273796E+02  0.19442930593E+03  0.20492499012E+03  0.00000000000E+00 0.  1.
         14    1    6    6    0    0  0.24883310628E+02  0.83756821007E+01  0.24538679418E+02  0.35937139369E+02  0.00000000000E+00 0. -1.
         -5    1    3    3    0  503 -0.10039645911E+01 -0.20925463708E+02 -0.52286451984E+02  0.56522969113E+02  0.47000000000E+01 0.  1.
         11    1    4    4    0    0 -0.72449735998E+02 -0.24016677810E+02  0.47228011157E+02  0.89756615896E+02  0.00000000000E+00 0. -1.
        -12    1    4    4    0    0  0.12136971912E+02  0.16908916969E+02  0.30831745284E+02  0.37199651577E+02  0.00000000000E+00 0.  1.
</event>
<event>
12    1  0.8462562E-002  0.2822409E+03  0.7818608E-02  0.1094695E+00
         21   -1    0    0  501  502  0.00000000000E+00  0.00000000000E+00  0.56701288908E+02  0.56701288908E+02  0.00000000000E+00 0. -1.
         21   -1    0    0  502  503 -0.00000000000E+00 -0.00000000000E+00 -0.14221329057E+04  0.14221329057E+04  0.00000000000E+00 0. -1.
         -6    2    1    2    0  503 -0.20947732486E+03 -0.77052871586E+02 -0.77963887879E+03  0.82859342668E+03  0.17003643951E+03 0.  0.
        -24    2    3    3    0    0 -0.17834749623E+03 -0.35206810585E+02 -0.72979470126E+03  0.75629756866E+03  0.79613801954E+02 0.  0.
          6    2    1    2  501    0  0.20947732486E+03  0.77052871586E+02 -0.58579273805E+03  0.65024076798E+03  0.17274845801E+03 0.  0.
         24    2    5    5    0    0  0.20480396248E+03  0.24849139697E+02 -0.39806876951E+03  0.45528064820E+03  0.79117511210E+02 0.  0.
          5    1    5    5  501    0  0.46733623784E+01  0.52203731889E+02 -0.18772396854E+03  0.19496011978E+03  0.47000000000E+01 0. -1.
        -11    1    6    6    0    0  0.58709424296E+02 -0.19337926761E+02 -0.69621900373E+02  0.93101884644E+02  0.00000000000E+00 0.  1.
         12    1    6    6    0    0  0.14609453818E+03  0.44187066458E+02 -0.32844686914E+03  0.36217876356E+03  0.00000000000E+00 0. -1.
         -5    1    3    3    0  503 -0.31129828629E+02 -0.41846061002E+02 -0.49844177535E+02  0.72295858014E+02  0.47000000000E+01 0.  1.
         13    1    4    4    0    0 -0.12500803366E+03  0.52484931158E+01 -0.37737518280E+03  0.39757588427E+03  0.00000000000E+00 0. -1.
        -14    1    4    4    0    0 -0.53339462564E+02 -0.40455303700E+02 -0.35241951846E+03  0.35872168440E+03  0.00000000000E+00 0.  1.
</event>
<event>
12    1  0.8462562E-002  0.1741563E+03  0.7818608E-02  0.1173624E+00
         21   -1    0    0  503  502  0.00000000000E+00  0.00000000000E+00  0.61501923405E+02  0.61501923405E+02  0.00000000000E+00 0.  1.
         21   -1    0    0  501  503 -0.00000000000E+00 -0.00000000000E+00 -0.10575207906E+04  0.10575207906E+04  0.00000000000E+00 0.  1.
          6    2    1    2  501    0 -0.94324750531E+01  0.21311413627E+02 -0.90680525923E+03  0.92334572998E+03  0.17241928826E+03 0.  0.
         24    2    3    3    0    0 -0.50492248968E+02  0.17299496849E+01 -0.81604822701E+03  0.82171764497E+03  0.82053149386E+02 0.  0.
         -6    2    1    2    0  502  0.94324750531E+01 -0.21311413627E+02 -0.89213608006E+02  0.19567698407E+03  0.17258987892E+03 0.  0.
        -24    2    5    5    0    0  0.23222950437E+02 -0.78626936588E+02 -0.69300131148E+02  0.13327599895E+03  0.78984068863E+02 0.  0.
          5    1    3    3  501    0  0.41059773915E+02  0.19581463942E+02 -0.90757032224E+02  0.10162808501E+03  0.47000000000E+01 0. -1.
        -13    1    4    4    0    0 -0.31842063857E+02  0.24605547681E+02 -0.72259050168E+03  0.72371015132E+03  0.00000000000E+00 0.  1.
         14    1    4    4    0    0 -0.18650185111E+02 -0.22875597996E+02 -0.93457725335E+02  0.98007493658E+02  0.00000000000E+00 0. -1.
         -5    1    5    5    0  502 -0.13790475384E+02  0.57315522961E+02 -0.19913476859E+02  0.62400985122E+02  0.47000000000E+01 0.  1.
         13    1    6    6    0    0  0.51581765970E+02 -0.37029892283E+02 -0.38444587584E+02  0.74228551230E+02  0.00000000000E+00 0. -1.
        -14    1    6    6    0    0 -0.28358815534E+02 -0.41597044305E+02 -0.30855543563E+02  0.59047447718E+02  0.00000000000E+00 0.  1.
</event>
<event>
12    1  0.8462562E-002  0.1956046E+03  0.7818608E-02  0.1157360E+00
         21   -1    0    0  501  502  0.00000000000E+00  0.00000000000E+00  0.56334716444E+03  0.56334716444E+03  0.00000000000E+00 0. -1.
         21   -1    0    0  502  503 -0.00000000000E+00 -0.00000000000E+00 -0.10652017406E+03  0.10652017406E+03  0.00000000000E+00 0. -1.
         -6    2    1    2    0  503 -0.30952543607E+02  0.38868328299E+02  0.45044673833E+03  0.49108393064E+03  0.18918867821E+03 0.  0.
        -24    2    3    3    0    0  0.24352035689E+02  0.85871981088E+02  0.24228276815E+03  0.27057935393E+03  0.80902584975E+02 0.  0.
          6    2    1    2  501    0  0.30952543607E+02 -0.38868328299E+02  0.63802520417E+01  0.17878340785E+03  0.17162165483E+03 0.  0.
         24    2    5    5    0    0  0.45363423066E+02  0.46071193707E+01  0.58691507043E+02  0.10909592407E+03  0.79863395545E+02 0.  0.
          5    1    5    5  501    0 -0.14410879459E+02 -0.43475447669E+02 -0.52311255001E+02  0.69687483787E+02  0.47000000000E+01 0. -1.
        -13    1    6    6    0    0  0.24156330756E+02 -0.23485634607E+02  0.65116056597E+02  0.73315783943E+02  0.00000000000E+00 0.  1.
         14    1    6    6    0    0  0.21207092311E+02  0.28092753978E+02 -0.64245495539E+01  0.35780140124E+02  0.00000000000E+00 0. -1.
         -5    1    3    3    0  503 -0.55304579297E+02 -0.47003652790E+02  0.20816397019E+03  0.22050457671E+03  0.47000000000E+01 0.  1.
         11    1    4    4    0    0  0.42631371162E+02  0.22251131655E+02  0.14616879903E+03  0.15387613355E+03  0.00000000000E+00 0. -1.
        -12    1    4    4    0    0 -0.18279335473E+02  0.63620849433E+02  0.96113969119E+02  0.11670322038E+03  0.00000000000E+00 0.  1.
</event>
<event>
12    1  0.8462562E-002  0.1795454E+03  0.7818608E-02  0.1168636E+00
         21   -1    0    0  501  502  0.00000000000E+00  0.00000000000E+00  0.21077423015E+03  0.21077423015E+03  0.00000000000E+00 0.  1.
         21   -1    0    0  502  503 -0.00000000000E+00 -0.00000000000E+00 -0.56945901830E+03  0.56945901830E+03  0.00000000000E+00 0.  1.
         -6    2    1    2    0  503 -0.47998967149E+02 -0.55432551403E+01 -0.51374367616E+03  0.54421421980E+03  0.17292172715E+03 0.  0.
        -24    2    3    3    0    0  0.12387313839E+02  0.54752758671E+02 -0.24048825248E+03  0.25790542011E+03  0.74359236247E+02 0.  0.
          6    2    1    2  501    0  0.47998967149E+02  0.55432551403E+01  0.15505888801E+03  0.23601902864E+03  0.17125155359E+03 0.  0.
         24    2    5    5    0    0  0.90998543125E+02 -0.13839566874E+02  0.74224307402E+02  0.14231216259E+03  0.79191131760E+02 0.  0.
          5    1    5    5  501    0 -0.42999575977E+02  0.19382822014E+02  0.80834580609E+02  0.93706866054E+02  0.47000000000E+01 0. -1.
        -13    1    6    6    0    0  0.84527599615E+02  0.17920177097E+02  0.40131979715E+02  0.95271315933E+02  0.00000000000E+00 0.  1.
         14    1    6    6    0    0  0.64709435106E+01 -0.31759743971E+02  0.34092327687E+02  0.47040846656E+02  0.00000000000E+00 0. -1.
         -5    1    3    3    0  503 -0.60386280988E+02 -0.60296013811E+02 -0.27325542368E+03  0.28630879969E+03  0.47000000000E+01 0.  1.
         13    1    4    4    0    0 -0.15883943388E+02  0.30543490853E+02 -0.19986818031E+03  0.20281147401E+03  0.00000000000E+00 0. -1.
        -14    1    4    4    0    0  0.28271257227E+02  0.24209267818E+02 -0.40620072171E+02  0.55093946098E+02  0.00000000000E+00 0.  1.
</event>
<event>
12    1  0.8462562E-002  0.2667868E+03  0.7818608E-02  0.1103152E+00
         21   -1    0    0  501  502  0.00000000000E+00  0.00000000000E+00  0.43447816500E+02  0.43447816500E+02  0.00000000000E+00 0.  1.
         21   -1    0    0  502  503 -0.00000000000E+00 -0.00000000000E+00 -0.16376991398E+04  0.16376991398E+04  0.00000000000E+00 0. -1.
         -6    2    1    2    0  503 -0.16741069490E+03 -0.11665204356E+03 -0.80961591056E+03  0.85243951752E+03  0.17187544433E+03 0.  0.
        -24    2    3    3    0    0 -0.16852822775E+03 -0.12561361175E+03 -0.59198217674E+03  0.63456778764E+03  0.89737598182E+02 0.  0.
          6    2    1    2  501    0  0.16741069490E+03  0.11665204356E+03 -0.78463541269E+03  0.82870743873E+03  0.17166609487E+03 0.  0.
         24    2    5    5    0    0  0.28532976146E+02  0.46649265556E+02 -0.18201773300E+03  0.20632687383E+03  0.80312135024E+02 0.  0.
          5    1    5    5  501    0  0.13887771875E+03  0.70002778004E+02 -0.60261767969E+03  0.62238056491E+03  0.47000000000E+01 0. -1.
        -11    1    6    6    0    0 -0.12162354302E+02 -0.13797562254E+02 -0.72392154644E+02  0.74692165856E+02  0.00000000000E+00 0.  1.
         12    1    6    6    0    0  0.40695330448E+02  0.60446827810E+02 -0.10962557835E+03  0.13163470797E+03  0.00000000000E+00 0. -1.
         -5    1    3    3    0  503  0.11175328498E+01  0.89615681932E+01 -0.21763373383E+03  0.21787172988E+03  0.47000000000E+01 0.  1.
         13    1    4    4    0    0 -0.82700476953E+02 -0.82126105494E+01 -0.21822948917E+03  0.23351857699E+03  0.00000000000E+00 0. -1.
        -14    1    4    4    0    0 -0.85827750793E+02 -0.11740100120E+03 -0.37375268757E+03  0.40104921064E+03  0.00000000000E+00 0.  1.
</event>
<event>
12    1  0.8462562E-002  0.1968008E+03  0.7818608E-02  0.1152548E+00
         21   -1    0    0  501  502  0.00000000000E+00  0.00000000000E+00  0.31003968746E+03  0.31003968746E+03  0.00000000000E+00 0.  1.
         21   -1    0    0  502  503 -0.00000000000E+00 -0.00000000000E+00 -0.15693508337E+03  0.15693508337E+03  0.00000000000E+00 0.  1.
         -6    2    1    2    0  503 -0.10351613818E+02  0.96049713028E+02 -0.29356082100E+02  0.19860479099E+03  0.17102450165E+03 0.  0.
        -24    2    3    3    0    0 -0.46188382867E+02  0.43564494906E+02 -0.69212642418E+02  0.12344091976E+03  0.80100180230E+02 0.  0.
          6    2    1    2  501    0  0.10351613818E+02 -0.96049713028E+02  0.18246068618E+03  0.26836997984E+03  0.17145798551E+03 0.  0.
         24    2    5    5    0    0  0.25491361444E+02 -0.13201537852E+03  0.13497186374E+03  0.20672568319E+03  0.80251071110E+02 0.  0.
          5    1    5    5  501    0 -0.15139747626E+02  0.35965665494E+02  0.47488822445E+02  0.61644296653E+02  0.47000000000E+01 0. -1.
        -13    1    6    6    0    0 -0.23053946932E+02 -0.37730114322E+02  0.15209073080E+02  0.46758548949E+02  0.00000000000E+00 0.  1.
         14    1    6    6    0    0  0.48545308376E+02 -0.94285264200E+02  0.11976279066E+03  0.15996713424E+03  0.00000000000E+00 0. -1.
         -5    1    3    3    0  503  0.35836769049E+02  0.52485218121E+02  0.39856560318E+02  0.75163871224E+02  0.47000000000E+01 0.  1.
         11    1    4    4    0    0 -0.55466988063E+02  0.59525519994E+02 -0.44952502544E+02  0.92954837315E+02  0.00000000000E+00 0. -1.
        -12    1    4    4    0    0  0.92786051962E+01 -0.15961025088E+02 -0.24260139874E+02  0.30486082447E+02  0.00000000000E+00 0.  1.
</event>
<event>
12    1  0.8462562E-002  0.1928593E+03  0.7818608E-02  0.1155961E+00
         21   -1    0    0  501  502  0.00000000000E+00  0.00000000000E+00  0.17126947651E+03  0.17126947651E+03  0.00000000000E+00 0. -1.
         21   -1    0    0  502  503 -0.00000000000E+00 -0.00000000000E+00 -0.44126922377E+03  0.44126922377E+03  0.00000000000E+00 0. -1.
         -6    2    1    2    0  503 -0.78602614123E+02 -0.37224746252E+02 -0.35343299349E+03  0.40262834519E+03  0.17213555933E+03 0.  0.
        -24    2    3    3    0    0 -0.11415731488E+03 -0.19664094529E+02 -0.20086930321E+03  0.24492519739E+03  0.78875257151E+02 0.  0.
          6    2    1    2  501    0  0.78602614123E+02  0.37224746252E+02  0.83433246221E+02  0.20991035509E+03  0.17186389359E+03 0.  0.
         24    2    5    5    0    0 -0.79184591360E+01 -0.27796464119E+02  0.32795222959E+02  0.90327942857E+02  0.79045968899E+02 0.  0.
          5    1    5    5  501    0  0.86521073259E+02  0.65021210371E+02  0.50638023262E+02  0.11958241224E+03  0.47000000000E+01 0. -1.
        -13    1    6    6    0    0 -0.26569883022E+02  0.19199107551E+02  0.19122583299E+02  0.37950462535E+02  0.00000000000E+00 0.  1.
         14    1    6    6    0    0  0.18651423886E+02 -0.46995571670E+02  0.13672639660E+02  0.52377480322E+02  0.00000000000E+00 0. -1.
         -5    1    3    3    0  503  0.35554700757E+02 -0.17560651723E+02 -0.15256369027E+03  0.15770314780E+03  0.47000000000E+01 0.  1.
         11    1    4    4    0    0 -0.58320982273E+02  0.43736471786E+01 -0.16331230637E+03  0.17346865761E+03  0.00000000000E+00 0. -1.
        -12    1    4    4    0    0 -0.55836332607E+02 -0.24037741708E+02 -0.37556996847E+02  0.71456539782E+02  0.00000000000E+00 0.  1.
</event>
<event>
12    1  0.8462562E-002  0.1774528E+03  0.7818608E-02  0.1171562E+00
         21   -1    0    0  503  502  0.00000000000E+00  0.00000000000E+00  0.37493337145E+02  0.37493337145E+02  0.00000000000E+00 0.  1.
         21   -1    0    0  501  503 -0.00000000000E+00 -0.00000000000E+00 -0.19030386255E+04  0.19030386255E+04  0.00000000000E+00 0.  1.
          6    2    1    2  501    0  0.15122698873E+02 -0.54099273268E+01 -0.16718500569E+04  0.16812412401E+04  0.17672445021E+03 0.  0.
         24    2    3    3    0    0  0.53321305137E+02 -0.56422267949E+02 -0.92332558068E+03  0.92999402784E+03  0.79574681787E+02 0.  0.
         -6    2    1    2    0  502 -0.15122698873E+02  0.54099273268E+01 -0.19369523148E+03  0.25929072257E+03  0.17162713300E+03 0.  0.
        -24    2    5    5    0    0  0.15262160837E+02 -0.35101109903E+02 -0.18829074417E+03  0.20814698083E+03  0.80042112772E+02 0.  0.
          5    1    3    3  501    0 -0.38198606264E+02  0.51012340622E+02 -0.74852447622E+03  0.75124721225E+03  0.47000000000E+01 0. -1.
        -13    1    4    4    0    0  0.32068278610E+02 -0.41517656124E+02 -0.85939002889E+03  0.86098972817E+03  0.00000000000E+00 0.  1.
         14    1    4    4    0    0  0.21253026527E+02 -0.14904611825E+02 -0.63935551793E+02  0.69004299672E+02  0.00000000000E+00 0. -1.
         -5    1    5    5    0  502 -0.30384859710E+02  0.40511037230E+02 -0.54044873086E+01  0.51143741749E+02  0.47000000000E+01 0.  1.
         13    1    6    6    0    0 -0.26157137076E+02 -0.37886104038E+02 -0.11571916213E+03  0.12454106625E+03  0.00000000000E+00 0. -1.
        -14    1    6    6    0    0  0.41419297913E+02  0.27849941351E+01 -0.72571582039E+02  0.83605914573E+02  0.00000000000E+00 0.  1.
</event>
<event>
12    1  0.8462562E-002  0.2078113E+03  0.7818608E-02  0.1143551E+00
         21   -1    0    0  503  502  0.00000000000E+00  0.00000000000E+00  0.56627971898E+03  0.56627971898E+03  0.00000000000E+00 0.  1.
         21   -1    0    0  501  503 -0.00000000000E+00 -0.00000000000E+00 -0.31115583205E+03  0.31115583205E+03  0.00000000000E+00 0.  1.
          6    2    1    2  501    0  0.16634326076E+02 -0.11408712692E+03 -0.25406354479E+03  0.32747429168E+03  0.17146006412E+03 0.  0.
         24    2    3    3    0    0  0.27337970575E+02 -0.14585864093E+03 -0.18483312139E+03  0.25040978213E+03  0.80744463918E+02 0.  0.
         -6    2    1    2    0  502 -0.16634326076E+02  0.11408712692E+03  0.50918743172E+03  0.54996125934E+03  0.17289584385E+03 0.  0.
        -24    2    5    5    0    0  0.51626798168E+02  0.79589540431E+02  0.24828279309E+03  0.27803666499E+03  0.81610173981E+02 0.  0.
          5    1    3    3  501    0 -0.10703644499E+02  0.31771514013E+02 -0.69230423399E+02  0.77064509551E+02  0.47000000000E+01 0. -1.
        -11    1    4    4    0    0 -0.24671878932E+02 -0.23808158154E+02 -0.54795694047E+02  0.64638209217E+02  0.00000000000E+00 0.  1.
         12    1    4    4    0    0  0.52009849507E+02 -0.12205048278E+03 -0.13003742734E+03  0.18577157291E+03  0.00000000000E+00 0. -1.
         -5    1    5    5    0  502 -0.68261124244E+02  0.34497586490E+02  0.26090463863E+03  0.27192459436E+03  0.47000000000E+01 0.  1.
         13    1    6    6    0    0  0.50626057797E+02  0.30766866562E+02  0.63219299504E+02  0.86638776745E+02  0.00000000000E+00 0. -1.
        -14    1    6    6    0    0  0.10007403712E+01  0.48822673869E+02  0.18506349359E+03  0.19139788824E+03  0.00000000000E+00 0.  1.
</event>
<event>
12    1  0.8462562E-002  0.2228608E+03  0.7818608E-02  0.1131836E+00
         21   -1    0    0  501  502  0.00000000000E+00  0.00000000000E+00  0.21677157973E+03  0.21677157973E+03  0.00000000000E+00 0. -1.
         21   -1    0    0  502  503 -0.00000000000E+00 -0.00000000000E+00 -0.23183868409E+03  0.23183868409E+03  0.00000000000E+00 0.  1.
         -6    2    1    2    0  503 -0.49849839929E+02 -0.13223450867E+03 -0.33459092699E+02  0.22535847441E+03  0.17232515568E+03 0.  0.
        -24    2    3    3    0    0 -0.49594877516E+02 -0.75784921894E+01  0.11056337901E+02  0.92908857524E+02  0.77412710707E+02 0.  0.
          6    2    1    2  501    0  0.49849839929E+02  0.13223450867E+03  0.18391988333E+02  0.22325178941E+03  0.17184913272E+03 0.  0.
         24    2    5    5    0    0  0.74583387522E+02  0.29492709384E+02 -0.12507656314E+02  0.11304968536E+03  0.78684739898E+02 0.  0.
          5    1    5    5  501    0 -0.24733547593E+02  0.10274179929E+03  0.30899644647E+02  0.11020210405E+03  0.47000000000E+01 0. -1.
        -11    1    6    6    0    0  0.57798940961E+02  0.74356369757E+01 -0.42563915267E+02  0.72164348236E+02  0.00000000000E+00 0.  1.
         12    1    6    6    0    0  0.16784446560E+02  0.22057072408E+02  0.30056258953E+02  0.40885337125E+02  0.00000000000E+00 0. -1.
         -5    1    3    3    0  503 -0.25496241287E+00 -0.12465601648E+03 -0.44515430599E+02  0.13244961688E+03  0.47000000000E+01 0.  1.
         11    1    4    4    0    0 -0.27368562216E+01  0.31260904844E+02  0.32491101518E+01  0.31548237200E+02  0.00000000000E+00 0. -1.
        -12    1    4    4    0    0 -0.46858021294E+02 -0.38839397033E+02  0.78072277488E+01  0.61360620325E+02  0.00000000000E+00 0.  1.
</event>
<event>
12    1  0.8462562E-002  0.1877528E+03  0.7818608E-02  0.1160720E+00
         21   -1    0    0  501  502  0.00000000000E+00  0.00000000000E+00  0.67525604719E+03  0.67525604719E+03  0.00000000000E+00 0.  1.
         21   -1    0    0  502  503 -0.00000000000E+00 -0.00000000000E+00 -0.59738689988E+03  0.59738689988E+03  0.00000000000E+00 0.  1.
         -6    2    1    2    0  503 -0.22109885141E+02  0.74160075274E+02 -0.56908525419E+03  0.59925716416E+03  0.17106302485E+03 0.  0.
        -24    2    3    3    0    0 -0.73409258581E+02  0.18754324530E+02 -0.33528223686E+03  0.35351875885E+03  0.82587472234E+02 0.  0.
          6    2    1    2  501    0  0.22109885141E+02 -0.74160075274E+02  0.64695440150E+03  0.67338578291E+03  0.17002897169E+03 0.  0.
         24    2    5    5    0    0  0.67796558448E+02 -0.72259224808E+02  0.46216723573E+03  0.48296710739E+03  0.99201331321E+02 0.  0.
          5    1    5    5  501    0 -0.45686673307E+02 -0.19008504660E+01  0.18478716578E+03  0.19041867552E+03  0.47000000000E+01 0. -1.
        -11    1    6    6    0    0  0.47309578977E+02 -0.26236155819E+02  0.39664559774E+03  0.40031770176E+03  0.00000000000E+00 0.  1.
         12    1    6    6    0    0  0.20486979471E+02 -0.46023068989E+02  0.65521637986E+02  0.82649405632E+02  0.00000000000E+00 0. -1.
         -5    1    3    3    0  503  0.51299373440E+02  0.55405750744E+02 -0.23380301733E+03  0.24573840531E+03  0.47000000000E+01 0.  1.
         11    1    4    4    0    0 -0.40455988942E+02  0.16906201399E+02 -0.50703466518E+02  0.67032441430E+02  0.00000000000E+00 0. -1.
        -12    1    4    4    0    0 -0.32953269638E+02  0.18481231302E+01 -0.28457877034E+03  0.28648631742E+03  0.00000000000E+00 0.  1.
</event>
<event>
12    1  0.8462562E-002  0.1981387E+03  0.7818608E-02  0.1151601E+00
         21   -1    0    0  501  502  0.00000000000E+00  0.00000000000E+00  0.15124947183E+03  0.15124947183E+03  0.00000000000E+00 0. -1.
         21   -1    0    0  502  503 -0.00000000000E+00 -0.00000000000E+00 -0.25865275319E+03  0.25865275319E+03  0.00000000000E+00 0. -1.
         -6    2    1    2    0  503 -0.89076097542E+02  0.42946978658E+02 -0.42408892655E+02  0.20262639479E+03  0.17169725554E+03 0.  0.
        -24    2    3    3    0    0 -0.27709810006E+02  0.95097727580E+01  0.41203994967E+02  0.93552690533E+02  0.78715102466E+02 0.  0.
          6    2    1    2  501    0  0.89076097542E+02 -0.42946978658E+02 -0.64994388703E+02  0.20727583023E+03  0.17017639409E+03 0.  0.
         24    2    5    5    0    0 -0.15081789164E+02 -0.76722701047E+01 -0.63465581910E+01  0.82556832274E+02  0.80554501186E+02 0.  0.
          5    1    5    5  501    0  0.10415788671E+03 -0.35274708553E+02 -0.58647830512E+02  0.12471899795E+03  0.47000000000E+01 0. -1.
        -11    1    6    6    0    0  0.57255609778E+01  0.89597836467E+01 -0.38995900275E+02  0.40419549846E+02  0.00000000000E+00 0.  1.
         12    1    6    6    0    0 -0.20807350142E+02 -0.16632053751E+02  0.32649342084E+02  0.42137282428E+02  0.00000000000E+00 0. -1.
         -5    1    3    3    0  503 -0.61366287536E+02  0.33437205900E+02 -0.83612887623E+02  0.10907370426E+03  0.47000000000E+01 0.  1.
         13    1    4    4    0    0 -0.34139212679E+01  0.37956686087E+02  0.28619694549E+00  0.38110979859E+02  0.00000000000E+00 0. -1.
        -14    1    4    4    0    0 -0.24295888738E+02 -0.28446913329E+02  0.40917798022E+02  0.55441710674E+02  0.00000000000E+00 0.  1.
</event>
<event>
12    1  0.8462562E-002  0.2161390E+03  0.7818608E-02  0.1137352E+00
         21   -1    0    0  503  502  0.00000000000E+00  0.00000000000E+00  0.18139203211E+03  0.18139203211E+03  0.00000000000E+00 0. -1.
         21   -1    0    0  501  503 -0.00000000000E+00 -0.00000000000E+00 -0.36321871051E+03  0.36321871051E+03  0.00000000000E+00 0.  1.
          6    2    1    2  501    0  0.10316538464E+03  0.73176572077E+02 -0.24059357992E+03  0.32342132421E+03  0.17526601201E+03 0.  0.
         24    2    3    3    0    0  0.10787219320E+03  0.63534634964E+02 -0.91266301926E+02  0.17363532035E+03  0.78400425388E+02 0.  0.
         -6    2    1    2    0  502 -0.10316538464E+03 -0.73176572077E+02  0.58766901522E+02  0.22118941840E+03  0.17167790425E+03 0.  0.
        -24    2    5    5    0    0 -0.12250619546E+02 -0.88211563060E+02  0.17946483814E+02  0.12029371994E+03  0.78848875949E+02 0.  0.
          5    1    3    3  501    0 -0.47068085560E+01  0.96419371122E+01 -0.14932727800E+03  0.14978600386E+03  0.47000000000E+01 0. -1.
        -13    1    4    4    0    0  0.10922727438E+03  0.43559323884E+02 -0.97404138645E+02  0.15269439541E+03  0.00000000000E+00 0.  1.
         14    1    4    4    0    0 -0.13550811770E+01  0.19975311081E+02  0.61378367198E+01  0.20940924941E+02  0.00000000000E+00 0. -1.
         -5    1    5    5    0  502 -0.90914765097E+02  0.15034990983E+02  0.40820417708E+02  0.10089569846E+03  0.47000000000E+01 0.  1.
         13    1    6    6    0    0  0.99922596335E+01 -0.78811380402E+02  0.38778821357E+02  0.88401786856E+02  0.00000000000E+00 0. -1.
        -14    1    6    6    0    0 -0.22242879180E+02 -0.94001826581E+01 -0.20832337543E+02  0.31891933082E+02  0.00000000000E+00 0.  1.
</event>
<event>
12    1  0.8462562E-002  0.2210732E+03  0.7818608E-02  0.1133390E+00
         21   -1    0    0  501  502  0.00000000000E+00  0.00000000000E+00  0.14069685311E+03  0.14069685311E+03  0.00000000000E+00 0. -1.
         21   -1    0    0  502  503 -0.00000000000E+00 -0.00000000000E+00 -0.35287663054E+03  0.35287663054E+03  0.00000000000E+00 0. -1.
         -6    2    1    2    0  503 -0.13857276326E+03 -0.97153310141E+01 -0.14304558579E+03  0.26194250696E+03  0.16986771018E+03 0.  0.
        -24    2    3    3    0    0 -0.15624654872E+03 -0.18469901315E+02 -0.15768519408E+03  0.23693424183E+03  0.80740902123E+02 0.  0.
          6    2    1    2  501    0  0.13857276326E+03  0.97153310141E+01 -0.69134191640E+02  0.23163097670E+03  0.17197841301E+03 0.  0.
         24    2    5    5    0    0  0.54809055042E+00 -0.15145554145E+02 -0.17674866653E+02  0.82168519828E+02  0.78800866276E+02 0.  0.
          5    1    5    5  501    0  0.13802467271E+03  0.24860885159E+02 -0.51459324987E+02  0.14946245687E+03  0.47000000000E+01 0. -1.
        -11    1    6    6    0    0 -0.87893144542E+01  0.24658320219E+02  0.14695662024E+02  0.30020780918E+02  0.00000000000E+00 0.  1.
         12    1    6    6    0    0  0.93374050046E+01 -0.39803874364E+02 -0.32370528677E+02  0.52147738910E+02  0.00000000000E+00 0. -1.
         -5    1    3    3    0  503  0.17673785467E+02  0.87545703008E+01  0.14639608289E+02  0.25008265128E+02  0.47000000000E+01 0.  1.
         13    1    4    4    0    0 -0.11730160862E+03 -0.13061917075E+02 -0.61641314468E+02  0.13315379346E+03  0.00000000000E+00 0. -1.
        -14    1    4    4    0    0 -0.38944940104E+02 -0.54079842398E+01 -0.96043879611E+02  0.10378044837E+03  0.00000000000E+00 0.  1.
</event>
<event>
12    1  0.8462562E-002  0.4530924E+03  0.7818608E-02  0.1026821E+00
         21   -1    0    0  503  502  0.00000000000E+00  0.00000000000E+00  0.41210745230E+03  0.41210745230E+03  0.00000000000E+00 0.  1.
         21   -1    0    0  501  503 -0.00000000000E+00 -0.00000000000E+00 -0.83916997574E+03  0.83916997574E+03  0.00000000000E+00 0. -1.
          6    2    1    2  501    0  0.37192957171E+03 -0.19339875100E+03 -0.61247957874E+03  0.76171416016E+03  0.17129665559E+03 0.  0.
         24    2    3    3    0    0  0.80746545450E+02 -0.44080943729E+02 -0.12628813774E+03  0.17563603426E+03  0.80225859900E+02 0.  0.
         -6    2    1    2    0  502 -0.37192957171E+03  0.19339875100E+03  0.18541705530E+03  0.48956326788E+03  0.17192447661E+03 0.  0.
        -24    2    5    5    0    0 -0.36407939358E+03  0.14092605993E+03  0.15285942685E+03  0.42713652862E+03  0.81643435179E+02 0.  0.
          5    1    3    3  501    0  0.29118302626E+03 -0.14931780727E+03 -0.48619144100E+03  0.58607812589E+03  0.47000000000E+01 0. -1.
        -13    1    4    4    0    0  0.57902679633E+02  0.83055162337E+01 -0.35706143373E+02  0.68531967601E+02  0.00000000000E+00 0.  1.
         14    1    4    4    0    0  0.22843865817E+02 -0.52386459962E+02 -0.90581994365E+02  0.10710406666E+03  0.00000000000E+00 0. -1.
         -5    1    5    5    0  502 -0.78501781366E+01  0.52472691070E+02  0.32557628441E+02  0.62426739259E+02  0.47000000000E+01 0.  1.
         13    1    6    6    0    0 -0.33391916266E+02  0.58363712005E+00 -0.66953872110E+01  0.34061545974E+02  0.00000000000E+00 0. -1.
        -14    1    6    6    0    0 -0.33068747731E+03  0.14034242281E+03  0.15955481407E+03  0.39307498264E+03  0.00000000000E+00 0.  1.
</event>
<event>
12    1  0.8462562E-002  0.2399012E+03  0.7818608E-02  0.1119930E+00
         21   -1    0    0  503  502  0.00000000000E+00  0.00000000000E+00  0.30987042280E+02  0.30987042280E+02  0.00000000000E+00 0.  1.
         21   -1    0    0  501  503 -0.00000000000E+00 -0.00000000000E+00 -0.19843533800E+04  0.19843533800E+04  0.00000000000E+00 0. -1.
          6    2    1    2  501    0  0.15929639823E+03 -0.44629614311E+02 -0.12341456993E+04  0.12571643822E+04  0.17314598351E+03 0.  0.
         24    2    3    3    0    0  0.75733305555E+02  0.34400026908E+02 -0.45284108856E+03  0.46742552692E+03  0.80639173517E+02 0.  0.
         -6    2    1    2    0  502 -0.15929639823E+03  0.44629614311E+02 -0.71922063837E+03  0.75817604011E+03  0.17373956423E+03 0.  0.
        -24    2    5    5    0    0 -0.72752519442E+02 -0.24311833968E+02 -0.50503596171E+03  0.51705380563E+03  0.79995755753E+02 0.  0.
          5    1    3    3  501    0  0.83563092673E+02 -0.79029641219E+02 -0.78130461079E+03  0.78973885525E+03  0.47000000000E+01 0. -1.
        -13    1    4    4    0    0  0.92136833620E+02  0.23843765997E+02 -0.39792255693E+03  0.40914555185E+03  0.00000000000E+00 0.  1.
         14    1    4    4    0    0 -0.16403528065E+02  0.10556260911E+02 -0.54918531627E+02  0.58279975064E+02  0.00000000000E+00 0. -1.
         -5    1    5    5    0  502 -0.86543878786E+02  0.68941448279E+02 -0.21418467665E+03  0.24112223448E+03  0.47000000000E+01 0.  1.
         13    1    6    6    0    0  0.13502062086E+02  0.50591841623E+01 -0.14309478354E+03  0.14381939404E+03  0.00000000000E+00 0. -1.
        -14    1    6    6    0    0 -0.86254581528E+02 -0.29371018130E+02 -0.36194117817E+03  0.37323441159E+03  0.00000000000E+00 0.  1.
</event>
<event>
12    1  0.8462562E-002  0.2523307E+03  0.7818608E-02  0.1111884E+00
         21   -1    0    0  501  502  0.00000000000E+00  0.00000000000E+00  0.26350506730E+04  0.26350506730E+04  0.00000000000E+00 0. -1.
         21   -1    0    0  502  503 -0.00000000000E+00 -0.00000000000E+00 -0.56093197719E+02  0.56093197719E+02  0.00000000000E+00 0.  1.
         -6    2    1    2    0  503 -0.15276605957E+03 -0.10391115151E+03  0.27355148725E+03  0.37196997187E+03  0.17145333893E+03 0.  0.
        -24    2    3    3    0    0 -0.17206809816E+03 -0.12119227546E+03  0.23762871786E+03  0.32743076106E+03  0.80302538591E+02 0.  0.
          6    2    1    2  501    0  0.15276605957E+03  0.10391115151E+03  0.23054059881E+04  0.23191738989E+04  0.17185984721E+03 0.  0.
         24    2    5    5    0    0  0.59611635998E+02  0.71793084178E+01  0.14381684313E+04  0.14415875123E+04  0.79000184387E+02 0.  0.
          5    1    5    5  501    0  0.93154423575E+02  0.96731843094E+02  0.86723755677E+03  0.87758638661E+03  0.47000000000E+01 0. -1.
        -11    1    6    6    0    0 -0.17879310907E+02  0.57286756510E+01  0.16555094140E+03  0.16661212946E+03  0.00000000000E+00 0.  1.
         12    1    6    6    0    0  0.77490946905E+02  0.14506327667E+01  0.12726174899E+04  0.12749753828E+04  0.00000000000E+00 0. -1.
         -5    1    3    3    0  503  0.19302038588E+02  0.17281123948E+02  0.35922769389E+02  0.44539210805E+02  0.47000000000E+01 0.  1.
         13    1    4    4    0    0 -0.31788366813E+02  0.79984517405E+01  0.50814369172E+02  0.60469625510E+02  0.00000000000E+00 0. -1.
        -14    1    4    4    0    0 -0.14027973135E+03 -0.12919072720E+03  0.18681434868E+03  0.26696113555E+03  0.00000000000E+00 0.  1.
</event>
<event>
12    1  0.8462562E-002  0.1748895E+03  0.7818608E-02  0.1172885E+00
         21   -1    0    0  501  502  0.00000000000E+00  0.00000000000E+00  0.76382844011E+03  0.76382844011E+03  0.00000000000E+00 0. -1.
         21   -1    0    0  502  503 -0.00000000000E+00 -0.00000000000E+00 -0.45259042761E+02  0.45259042761E+02  0.00000000000E+00 0. -1.
         -6    2    1    2    0  503  0.28032372060E+02 -0.10584638987E+02  0.49696343352E+03  0.52678350870E+03  0.17213472141E+03 0.  0.
        -24    2    3    3    0    0  0.43628242054E+01  0.25704955728E+02  0.46328572638E+03  0.47170665205E+03  0.84815814182E+02 0.  0.
          6    2    1    2  501    0 -0.28032372060E+02  0.10584638987E+02  0.22160596383E+03  0.28230397417E+03  0.17230345952E+03 0.  0.
         24    2    5    5    0    0 -0.29550038224E+02 -0.57757851224E+02  0.16602958601E+03  0.19407799699E+03  0.76754617756E+02 0.  0.
          5    1    5    5  501    0  0.15176661636E+01  0.68342490211E+02  0.55576377821E+02  0.88225977186E+02  0.47000000000E+01 0. -1.
        -13    1    6    6    0    0 -0.81327642590E+01 -0.39914295114E+02  0.16059019662E+03  0.16567590066E+03  0.00000000000E+00 0.  1.
         14    1    6    6    0    0 -0.21417273965E+02 -0.17843556109E+02  0.54393893870E+01  0.28402096324E+02  0.00000000000E+00 0. -1.
         -5    1    3    3    0  503  0.23669547855E+02 -0.36289594715E+02  0.33677707139E+02  0.55076856649E+02  0.47000000000E+01 0.  1.
         13    1    4    4    0    0  0.81638885324E+01 -0.14078070427E+02  0.36825709401E+03  0.36861650592E+03  0.00000000000E+00 0. -1.
        -14    1    4    4    0    0 -0.38010643270E+01  0.39783026155E+02  0.95028632369E+02  0.10309014613E+03  0.00000000000E+00 0.  1.
</event>
<event>
12    1  0.8462562E-002  0.5637680E+03  0.7818608E-02  0.9983832E-01
         21   -1    0    0  503  502  0.00000000000E+00  0.00000000000E+00  0.12624763860E+03  0.12624763860E+03  0.00000000000E+00 0.  1.
         21   -1    0    0  501  503 -0.00000000000E+00 -0.00000000000E+00 -0.25327938971E+04  0.25327938971E+04  0.00000000000E+00 0. -1.
          6    2    1    2  501    0  0.31213331812E+02  0.53596867208E+03 -0.13138952979E+04  0.14297395691E+04  0.17203979805E+03 0.  0.
         24    2    3    3    0    0  0.17250602110E+02  0.43632914342E+03 -0.11895931568E+04  0.12697517390E+04  0.80354809418E+02 0.  0.
         -6    2    1    2    0  502 -0.31213331812E+02 -0.53596867208E+03 -0.10926509607E+04  0.12293019666E+04  0.17047144575E+03 0.  0.
        -24    2    5    5    0    0 -0.54404871501E+02 -0.47438781811E+03 -0.10310564014E+04  0.11390466132E+04  0.79662991498E+02 0.  0.
          5    1    3    3  501    0  0.13962729702E+02  0.99639528660E+02 -0.12430214109E+03  0.15998783007E+03  0.47000000000E+01 0. -1.
        -11    1    4    4    0    0  0.24925616095E+02  0.40185228164E+03 -0.10214217639E+04  0.10979111814E+04  0.00000000000E+00 0.  1.
         12    1    4    4    0    0 -0.76750139847E+01  0.34476861785E+02 -0.16817139291E+03  0.17184055759E+03  0.00000000000E+00 0. -1.
         -5    1    5    5    0  502  0.23191539689E+02 -0.61580853969E+02 -0.61594559241E+02  0.90255353397E+02  0.47000000000E+01 0.  1.
         13    1    6    6    0    0 -0.61707206753E+02 -0.20207544039E+03 -0.42754107406E+03  0.47690002410E+03  0.00000000000E+00 0. -1.
        -14    1    6    6    0    0  0.73023352518E+01 -0.27231237773E+03 -0.60351532736E+03  0.66214658915E+03  0.00000000000E+00 0.  1.
</event>
<event>
12    1  0.8462562E-002  0.1731683E+03  0.7818608E-02  0.1174805E+00
         21   -1    0    0  501  502  0.00000000000E+00  0.00000000000E+00  0.22940439414E+04  0.22940439414E+04  0.00000000000E+00 0.  1.
         21   -1    0    0  502  503 -0.00000000000E+00 -0.00000000000E+00 -0.13067166963E+02  0.13067166963E+02  0.00000000000E+00 0.  1.
         -6    2    1    2    0  503 -0.95700721482E+01  0.89753803732E+01  0.10647224616E+04  0.10787127427E+04  0.17267054536E+03 0.  0.
        -24    2    3    3    0    0 -0.32269693321E+02 -0.43953189805E+02  0.87395564551E+03  0.87938694287E+03  0.80930272363E+02 0.  0.
          6    2    1    2  501    0  0.95700721482E+01 -0.89753803732E+01  0.12162543129E+04  0.12283983657E+04  0.17180176833E+03 0.  0.
         24    2    5    5    0    0  0.60536893067E+01 -0.53111557924E+02  0.10393124616E+04  0.10459404915E+04  0.10470737455E+03 0.  0.
          5    1    5    5  501    0  0.35163828415E+01  0.44136177551E+02  0.17694185130E+03  0.18245787420E+03  0.47000000000E+01 0. -1.
        -11    1    6    6    0    0 -0.14461041730E+02  0.28930386105E+02  0.33936978399E+03  0.34090752302E+03  0.00000000000E+00 0.  1.
         12    1    6    6    0    0  0.20514731037E+02 -0.82041944029E+02  0.69994267758E+03  0.70503296849E+03  0.00000000000E+00 0. -1.
         -5    1    3    3    0  503  0.22699621173E+02  0.52928570178E+02  0.19076681607E+03  0.19932579978E+03  0.47000000000E+01 0.  1.
         13    1    4    4    0    0 -0.50928183541E+02 -0.14444696571E+02  0.32148446696E+03  0.32581373764E+03  0.00000000000E+00 0. -1.
        -14    1    4    4    0    0  0.18658490220E+02 -0.29508493234E+02  0.55247117855E+03  0.55357320524E+03  0.00000000000E+00 0.  1.
</event>
<event>
12    1  0.8462562E-002  0.2272137E+03  0.7818608E-02  0.1128665E+00
         21   -1    0    0  503  502  0.00000000000E+00  0.00000000000E+00  0.76333943046E+03  0.76333943046E+03  0.00000000000E+00 0. -1.
         21   -1    0    0  501  503 -0.00000000000E+00 -0.00000000000E+00 -0.67887202989E+02  0.67887202989E+02  0.00000000000E+00 0.  1.
          6    2    1    2  501    0  0.14884540925E+03  0.95335348131E+01  0.31871739303E+03  0.39141648157E+03  0.17140665471E+03 0.  0.
         24    2    3    3    0    0  0.10125693347E+03 -0.36144455023E+02  0.11600025780E+03  0.17818545967E+03  0.82064669760E+02 0.  0.
         -6    2    1    2    0  502 -0.14884540925E+03 -0.95335348131E+01  0.37673483444E+03  0.43981015188E+03  0.17104967137E+03 0.  0.
        -24    2    5    5    0    0 -0.91178715826E+02 -0.49367033327E+02  0.33125566283E+03  0.35612861160E+03  0.79665623952E+02 0.  0.
          5    1    3    3  501    0  0.47588475778E+02  0.45677989836E+02  0.20271713523E+03  0.21323102190E+03  0.47000000000E+01 0. -1.
        -11    1    4    4    0    0  0.11134452558E+03 -0.15688569726E+02  0.95993389080E+02  0.14784608667E+03  0.00000000000E+00 0.  1.
         12    1    4    4    0    0 -0.10087592110E+02 -0.20455885297E+02  0.20006868721E+02  0.30339372998E+02  0.00000000000E+00 0. -1.
         -5    1    5    5    0  502 -0.57666693425E+02  0.39833498514E+02  0.45479171605E+02  0.83681540284E+02  0.47000000000E+01 0.  1.
         13    1    6    6    0    0 -0.12617064129E+02 -0.49334110517E+02  0.15518355214E+03  0.16332476732E+03  0.00000000000E+00 0. -1.
        -14    1    6    6    0    0 -0.78561651697E+02 -0.32922810415E-01  0.17607211070E+03  0.19280384427E+03  0.00000000000E+00 0.  1.
</event>
<event>
12    1  0.8462562E-002  0.2144753E+03  0.7818608E-02  0.1138289E+00
         21   -1    0    0  501  502  0.00000000000E+00  0.00000000000E+00  0.26561909395E+03  0.26561909395E+03  0.00000000000E+00 0. -1.
         21   -1    0    0  502  503 -0.00000000000E+00 -0.00000000000E+00 -0.20482630613E+03  0.20482630613E+03  0.00000000000E+00 0. -1.
         -6    2    1    2    0  503  0.47930329307E+02  0.11662405194E+03  0.12424942268E+03  0.24786607274E+03  0.17349693086E+03 0.  0.
        -24    2    3    3    0    0  0.61372667107E+02  0.95118188787E+02  0.41431322975E+02  0.16112435132E+03  0.10691317954E+03 0.  0.
          6    2    1    2  501    0 -0.47930329307E+02 -0.11662405194E+03 -0.63456634861E+02  0.22257932734E+03  0.17209394671E+03 0.  0.
         24    2    5    5    0    0 -0.41087456242E+02  0.82835603228E-02 -0.57145893568E+02  0.10548175242E+03  0.78565691073E+02 0.  0.
          5    1    5    5  501    0 -0.68428730654E+01 -0.11663233550E+03 -0.63107412933E+01  0.11709757492E+03  0.47000000000E+01 0. -1.
        -11    1    6    6    0    0 -0.81419621614E+01 -0.10310437325E+02 -0.68026988436E+02  0.69283965110E+02  0.00000000000E+00 0.  1.
         12    1    6    6    0    0 -0.32945494081E+02  0.10318720886E+02  0.10881094868E+02  0.36197787314E+02  0.00000000000E+00 0. -1.
         -5    1    3    3    0  503 -0.13442337800E+02  0.21505863151E+02  0.82818099708E+02  0.86741721419E+02  0.47000000000E+01 0.  1.
         11    1    4    4    0    0  0.18567326994E+02  0.77150929110E+02  0.70670301732E+02  0.10626054320E+03  0.00000000000E+00 0. -1.
        -12    1    4    4    0    0  0.42805340114E+02  0.17967259676E+02 -0.29238978757E+02  0.54863808119E+02  0.00000000000E+00 0.  1.
</event>
<event>
12    1  0.8462562E-002  0.2743500E+03  0.7818608E-02  0.1099150E+00
         21   -1    0    0  503  502  0.00000000000E+00  0.00000000000E+00  0.33216765169E+03  0.33216765169E+03  0.00000000000E+00 0. -1.
         21   -1    0    0  501  503 -0.00000000000E+00 -0.00000000000E+00 -0.36657021257E+03  0.36657021257E+03  0.00000000000E+00 0.  1.
          6    2    1    2  501    0 -0.17303853491E+03  0.12338237028E+03 -0.23463687561E+03  0.36100191712E+03  0.17350036574E+03 0.  0.
         24    2    3    3    0    0 -0.72592007288E+02  0.90418349860E+02 -0.51347382605E+02  0.14935773506E+03  0.78905651317E+02 0.  0.
         -6    2    1    2    0  502  0.17303853491E+03 -0.12338237028E+03  0.20023431473E+03  0.33773594713E+03  0.16972402697E+03 0.  0.
        -24    2    5    5    0    0  0.17297024727E+03 -0.15007904149E+03  0.16264309235E+03  0.29139043045E+03  0.77544711820E+02 0.  0.
          5    1    3    3  501    0 -0.10044652762E+03  0.32964020420E+02 -0.18328949300E+03  0.21164418206E+03  0.47000000000E+01 0. -1.
        -13    1    4    4    0    0 -0.34171470271E+02  0.92419275806E+02 -0.50850653295E+02  0.11088192306E+03  0.00000000000E+00 0.  1.
         14    1    4    4    0    0 -0.38420537017E+02 -0.20009259466E+01 -0.49672930959E+00  0.38475812004E+02  0.00000000000E+00 0. -1.
         -5    1    5    5    0  502  0.68287639635E-01  0.26696671211E+02  0.37591222378E+02  0.46345516685E+02  0.47000000000E+01 0.  1.
         11    1    6    6    0    0  0.14147049571E+03 -0.86687010311E+02  0.85356440586E+02  0.18658580027E+03  0.00000000000E+00 0. -1.
        -12    1    6    6    0    0  0.31499751560E+02 -0.63392031179E+02  0.77286651763E+02  0.10480463017E+03  0.00000000000E+00 0.  1.
</event>
<event>
12    1  0.8462562E-002  0.2739941E+03  0.7818608E-02  0.1099038E+00
         21   -1    0    0  501  502  0.00000000000E+00  0.00000000000E+00  0.17756801344E+04  0.17756801344E+04  0.00000000000E+00 0. -1.
         21   -1    0    0  502  503 -0.00000000000E+00 -0.00000000000E+00 -0.12150169187E+03  0.12150169187E+03  0.00000000000E+00 0.  1.
         -6    2    1    2    0  503 -0.20297259170E+03  0.65089064908E+02  0.61078103983E+02  0.28071929350E+03  0.17215785664E+03 0.  0.
        -24    2    3    3    0    0 -0.20859060266E+03  0.21694706780E+02  0.28450877238E+02  0.22593555239E+03  0.79099441200E+02 0.  0.
          6    2    1    2  501    0  0.20297259170E+03 -0.65089064908E+02  0.15931003386E+04  0.16164625328E+04  0.17189523511E+03 0.  0.
         24    2    5    5    0    0  0.13177576080E+03 -0.10577552687E+03  0.10032847662E+04  0.10209552899E+04  0.84947446722E+02 0.  0.
          5    1    5    5  501    0  0.71196830901E+02  0.40686461966E+02  0.58981557239E+03  0.59550724290E+03  0.47000000000E+01 0. -1.
        -11    1    6    6    0    0  0.16562803962E+02 -0.47732027624E+02  0.45009604442E+03  0.45292286555E+03  0.00000000000E+00 0.  1.
         12    1    6    6    0    0  0.11521295684E+03 -0.58043499249E+02  0.55318872174E+03  0.56803242433E+03  0.00000000000E+00 0. -1.
         -5    1    3    3    0  503  0.56180109568E+01  0.43394358128E+02  0.32627226745E+02  0.54783741105E+02  0.47000000000E+01 0.  1.
         13    1    4    4    0    0 -0.47066374153E+02  0.24885653904E+02 -0.20616653629E+02  0.57092781969E+02  0.00000000000E+00 0. -1.
        -14    1    4    4    0    0 -0.16152422851E+03 -0.31909471238E+01  0.49067530867E+02  0.16884277042E+03  0.00000000000E+00 0.  1.
</event>
<event>
12    1  0.8462562E-002  0.2352902E+03  0.7818608E-02  0.1123697E+00
         21   -1    0    0  503  502  0.00000000000E+00  0.00000000000E+00  0.17071818987E+03  0.17071818987E+03  0.00000000000E+00 0.  1.
         21   -1    0    0  501  503 -0.00000000000E+00 -0.00000000000E+00 -0.65096392258E+03  0.65096392258E+03  0.00000000000E+00 0.  1.
          6    2    1    2  501    0  0.10701162653E+03 -0.11747600891E+03 -0.53478303250E+03  0.58425541646E+03  0.17352060088E+03 0.  0.
         24    2    3    3    0    0  0.13366142550E+03 -0.66212500935E+02 -0.45657027740E+03  0.48690304568E+03  0.79804045921E+02 0.  0.
         -6    2    1    2    0  502 -0.10701162653E+03  0.11747600891E+03  0.54537299795E+02  0.23742669599E+03  0.16776476989E+03 0.  0.
        -24    2    5    5    0    0 -0.58116755493E+02  0.44509038212E+02  0.92404005825E+02  0.14166206446E+03  0.78555893871E+02 0.  0.
          5    1    3    3  501    0 -0.26649798966E+02 -0.51263507978E+02 -0.78212755098E+02  0.97352370774E+02  0.47000000000E+01 0. -1.
        -13    1    4    4    0    0  0.61945071595E+02 -0.44908907278E+01 -0.97708688616E+02  0.11577714725E+03  0.00000000000E+00 0.  1.
         14    1    4    4    0    0  0.71716353902E+02 -0.61721610208E+02 -0.35886158878E+03  0.37112589843E+03  0.00000000000E+00 0. -1.
         -5    1    5    5    0  502 -0.48894871038E+02  0.72966970702E+02 -0.37866706030E+02  0.95764631534E+02  0.47000000000E+01 0.  1.
         13    1    6    6    0    0  0.14323407012E+02  0.11136334502E+02 -0.17961909024E+01  0.18231956459E+02  0.00000000000E+00 0. -1.
        -14    1    6    6    0    0 -0.72440162505E+02  0.33372703710E+02  0.94200196728E+02  0.12343010800E+03  0.00000000000E+00 0.  1.
</event>
<event>
12    1  0.8462562E-002  0.2223347E+03  0.7818608E-02  0.1132194E+00
         21   -1    0    0  503  502  0.00000000000E+00  0.00000000000E+00  0.27682055403E+02  0.27682055403E+02  0.00000000000E+00 0.  1.
         21   -1    0    0  501  503 -0.00000000000E+00 -0.00000000000E+00 -0.19214510844E+04  0.19214510844E+04  0.00000000000E+00 0.  1.
          6    2    1    2  501    0 -0.39764254811E+02  0.13542864500E+03 -0.68581086098E+03  0.72088411913E+03  0.17150878206E+03 0.  0.
         24    2    3    3    0    0 -0.34481760738E+02  0.16335904788E+03 -0.49742579670E+03  0.53030858399E+03  0.76938941274E+02 0.  0.
         -6    2    1    2    0  502  0.39764254811E+02 -0.13542864500E+03 -0.12079581680E+04  0.12282490206E+04  0.17178651655E+03 0.  0.
        -24    2    5    5    0    0 -0.35227166694E+02 -0.10710488864E+03 -0.63742031867E+03  0.65208803969E+03  0.78751116889E+02 0.  0.
          5    1    3    3  501    0 -0.52824940729E+01 -0.27930402876E+02 -0.18838506428E+03  0.19057553514E+03  0.47000000000E+01 0. -1.
        -11    1    4    4    0    0 -0.44804807089E+02  0.85377542685E+02 -0.19113376804E+03  0.21407688530E+03  0.00000000000E+00 0.  1.
         12    1    4    4    0    0  0.10323046351E+02  0.77981505190E+02 -0.30629202866E+03  0.31623169869E+03  0.00000000000E+00 0. -1.
         -5    1    5    5    0  502  0.74991421505E+02 -0.28323756362E+02 -0.57053784930E+03  0.57616098094E+03  0.47000000000E+01 0.  1.
         13    1    6    6    0    0 -0.34818779025E+02 -0.45673348520E+02 -0.47462519777E+03  0.47808731472E+03  0.00000000000E+00 0. -1.
        -14    1    6    6    0    0 -0.40838766878E+00 -0.61431540117E+02 -0.16279512090E+03  0.17400072497E+03  0.00000000000E+00 0.  1.
</event>
<event>
12    1  0.8462562E-002  0.3285140E+03  0.7818608E-02  0.1071852E+00
         21   -1    0    0  503  502  0.00000000000E+00  0.00000000000E+00  0.39427231701E+03  0.39427231701E+03  0.00000000000E+00 0. -1.
         21   -1    0    0  501  503 -0.00000000000E+00 -0.00000000000E+00 -0.32293860222E+03  0.32293860222E+03  0.00000000000E+00 0.  1.
          6    2    1    2  501    0  0.17943100398E+03  0.21489433291E+03 -0.10489354246E+03  0.34485374897E+03  0.17189064379E+03 0.  0.
         24    2    3    3    0    0  0.18528522425E+03  0.17663950528E+03 -0.13102043565E+03  0.29792392605E+03  0.77847170808E+02 0.  0.
         -6    2    1    2    0  502 -0.17943100398E+03 -0.21489433291E+03  0.17622725726E+03  0.37235717026E+03  0.17093494827E+03 0.  0.
        -24    2    5    5    0    0 -0.14065591746E+03 -0.79713161311E+02  0.13557229907E+03  0.22589088706E+03  0.80675705005E+02 0.  0.
          5    1    3    3  501    0 -0.58542202687E+01  0.38254827632E+02  0.26126893189E+02  0.46929822926E+02  0.47000000000E+01 0. -1.
        -13    1    4    4    0    0  0.13779509813E+03  0.92890370132E+02 -0.11026457346E+03  0.19943516764E+03  0.00000000000E+00 0.  1.
         14    1    4    4    0    0  0.47490126113E+02  0.83749135149E+02 -0.20755862191E+02  0.98488758403E+02  0.00000000000E+00 0. -1.
         -5    1    5    5    0  502 -0.38775086516E+02 -0.13518117160E+03  0.40654958181E+02  0.14646628320E+03  0.47000000000E+01 0.  1.
         13    1    6    6    0    0 -0.48778678868E+02 -0.53541258915E+02  0.18438521641E+02  0.74739581204E+02  0.00000000000E+00 0. -1.
        -14    1    6    6    0    0 -0.91877238595E+02 -0.26171902396E+02  0.11713377743E+03  0.15115130586E+03  0.00000000000E+00 0.  1.
</event>
<event>
12    1  0.8462562E-002  0.2052670E+03  0.7818608E-02  0.1145442E+00
         21   -1    0    0  503  502  0.00000000000E+00  0.00000000000E+00  0.60822204581E+03  0.60822204581E+03  0.00000000000E+00 0. -1.
         21   -1    0    0  501  503 -0.00000000000E+00 -0.00000000000E+00 -0.90223115701E+02  0.90223115701E+02  0.00000000000E+00 0. -1.
          6    2    1    2  501    0  0.10326080444E+03 -0.36578156540E+02  0.90073369940E+02  0.22383498323E+03  0.17317081877E+03 0.  0.
         24    2    3    3    0    0  0.14015541400E+03 -0.19299159366E+02  0.83761026709E+02  0.18234147006E+03  0.78844812643E+02 0.  0.
         -6    2    1    2    0  502 -0.10326080444E+03  0.36578156540E+02  0.42792556017E+03  0.47461017829E+03  0.17359084369E+03 0.  0.
        -24    2    5    5    0    0 -0.31948802249E+02  0.79599030871E+02  0.29280916630E+03  0.31581872014E+03  0.81532352141E+02 0.  0.
          5    1    3    3  501    0 -0.36894609562E+02 -0.17278997174E+02  0.63123432306E+01  0.41493513169E+02  0.47000000000E+01 0. -1.
        -11    1    4    4    0    0  0.10891147536E+03  0.28653585376E-01  0.22964082546E+02  0.11130615156E+03  0.00000000000E+00 0.  1.
         12    1    4    4    0    0  0.31243938640E+02 -0.19327812951E+02  0.60796944163E+02  0.71035318503E+02  0.00000000000E+00 0. -1.
         -5    1    5    5    0  502 -0.71312002192E+02 -0.43020874331E+02  0.13511639388E+03  0.15879145814E+03  0.47000000000E+01 0.  1.
         13    1    6    6    0    0  0.16379604504E+02  0.59866439951E+02  0.19910952870E+03  0.20855907196E+03  0.00000000000E+00 0. -1.
        -14    1    6    6    0    0 -0.48328406753E+02  0.19732590920E+02  0.93699637594E+02  0.10725964819E+03  0.00000000000E+00 0.  1.
</event>
<event>
12    1  0.8462562E-002  0.2121022E+03  0.7818608E-02  0.1139987E+00
         21   -1    0    0  501  502  0.00000000000E+00  0.00000000000E+00  0.49260141365E+03  0.49260141365E+03  0.00000000000E+00 0. -1.
         21   -1    0    0  502  503 -0.00000000000E+00 -0.00000000000E+00 -0.95817943446E+02  0.95817943446E+02  0.00000000000E+00 0. -1.
         -6    2    1    2    0  503  0.94538027216E+00 -0.12547320852E+03  0.13369721379E+03  0.25072356527E+03  0.17100567652E+03 0.  0.
        -24    2    3    3    0    0  0.10399629826E+02 -0.68456565830E+02  0.12978123824E+01  0.10618301085E+03  0.80490333395E+02 0.  0.
          6    2    1    2  501    0 -0.94538027216E+00  0.12547320852E+03  0.26308625641E+03  0.33769579183E+03  0.17052756288E+03 0.  0.
         24    2    5    5    0    0 -0.10202048600E+02  0.51543846714E+02  0.24102161878E+03  0.25984866805E+03  0.81664310672E+02 0.  0.
          5    1    5    5  501    0  0.92566683276E+01  0.73929361810E+02  0.22064637628E+02  0.77847123774E+02  0.47000000000E+01 0. -1.
        -13    1    6    6    0    0  0.23928299368E+02  0.23812516041E+02  0.18779645770E+03  0.19080646990E+03  0.00000000000E+00 0.  1.
         14    1    6    6    0    0 -0.34130347967E+02  0.27731330673E+02  0.53225161082E+02  0.69042198151E+02  0.00000000000E+00 0. -1.
         -5    1    3    3    0  503 -0.94542495534E+01 -0.57016642695E+02  0.13239940141E+03  0.14454055442E+03  0.47000000000E+01 0.  1.
         13    1    4    4    0    0  0.19205235341E+02 -0.54331653463E+02  0.35824222219E+02  0.67853846834E+02  0.00000000000E+00 0. -1.
        -14    1    4    4    0    0 -0.88056055153E+01 -0.14124912367E+02 -0.34526409836E+02  0.38329164014E+02  0.00000000000E+00 0.  1.
</event>
<event>
12    1  0.8462562E-002  0.3294561E+03  0.7818608E-02  0.1071488E+00
         21   -1    0    0  501  502  0.00000000000E+00  0.00000000000E+00  0.95756769034E+02  0.95756769034E+02  0.00000000000E+00 0. -1.
         21   -1    0    0  502  503 -0.00000000000E+00 -0.00000000000E+00 -0.13185643111E+04  0.13185643111E+04  0.00000000000E+00 0.  1.
         -6    2    1    2    0  503 -0.18312814303E+03 -0.21151454114E+03 -0.87796575917E+03  0.93739635949E+03  0.17208643940E+03 0.  0.
        -24    2    3    3    0    0 -0.33749336968E+02 -0.13029852598E+03 -0.40031669120E+03  0.43036500844E+03  0.82727647216E+02 0.  0.
          6    2    1    2  501    0  0.18312814303E+03  0.21151454114E+03 -0.34484178285E+03  0.47692472060E+03  0.17397418209E+03 0.  0.
         24    2    5    5    0    0  0.14585676560E+03  0.85268636464E+02 -0.26096603855E+03  0.32076962301E+03  0.79024941182E+02 0.  0.
          5    1    5    5  501    0  0.37271377430E+02  0.12624590468E+03 -0.83875744295E+02  0.15615509759E+03  0.47000000000E+01 0. -1.
        -11    1    6    6    0    0  0.96696155946E+02  0.93615623915E+02 -0.16787860720E+03  0.21516797711E+03  0.00000000000E+00 0.  1.
         12    1    6    6    0    0  0.49160609655E+02 -0.83469874510E+01 -0.93087431351E+02  0.10560164590E+03  0.00000000000E+00 0. -1.
         -5    1    3    3    0  503 -0.14937880606E+03 -0.81216015156E+02 -0.47764906797E+03  0.50703135105E+03  0.47000000000E+01 0.  1.
         13    1    4    4    0    0 -0.34546064290E+02 -0.82393327615E+01 -0.10379599744E+03  0.10970381145E+03  0.00000000000E+00 0. -1.
        -14    1    4    4    0    0  0.79672732219E+00 -0.12205919322E+03 -0.29652069376E+03  0.32066119699E+03  0.00000000000E+00 0.  1.
</event>
<event>
12    1  0.8462562E-002  0.1879820E+03  0.7818608E-02  0.1160881E+00
         21   -1    0    0  503  502  0.00000000000E+00  0.00000000000E+00  0.63646209867E+02  0.63646209867E+02  0.00000000000E+00 0.  1.
         21   -1    0    0  501  503 -0.00000000000E+00 -0.00000000000E+00 -0.54998051281E+03  0.54998051281E+03  0.00000000000E+00 0.  1.
          6    2    1    2  501    0  0.35957914573E+02 -0.62163299439E+02 -0.22184551821E+03  0.28914015731E+03  0.17096592994E+03 0.  0.
         24    2    3    3    0    0  0.54277186607E+01 -0.10490782835E+03 -0.14965994391E+03  0.19974197639E+03  0.80396801820E+02 0.  0.
         -6    2    1    2    0  502 -0.35957914573E+02  0.62163299439E+02 -0.26448878474E+03  0.32448656538E+03  0.17372382232E+03 0.  0.
        -24    2    5    5    0    0 -0.70922230518E+02  0.28876669852E+01 -0.98962259872E+02  0.14516221001E+03  0.78995170326E+02 0.  0.
          5    1    3    3  501    0  0.30530195913E+02  0.42744528907E+02 -0.72185574301E+02  0.89398180916E+02  0.47000000000E+01 0. -1.
        -11    1    4    4    0    0 -0.13067831852E+02 -0.50908515969E+02 -0.12855831847E+03  0.13888731574E+03  0.00000000000E+00 0.  1.
         12    1    4    4    0    0  0.18495550513E+02 -0.53999312376E+02 -0.21101625442E+02  0.60854660644E+02  0.00000000000E+00 0. -1.
         -5    1    5    5    0  502  0.34964315945E+02  0.59275632453E+02 -0.16552652487E+03  0.17932435536E+03  0.47000000000E+01 0.  1.
         13    1    6    6    0    0 -0.75458860465E+01  0.30785796788E+01  0.13674963227E+02  0.15919254641E+02  0.00000000000E+00 0. -1.
        -14    1    6    6    0    0 -0.63376344472E+02 -0.19091269351E+00 -0.11263722310E+03  0.12924295537E+03  0.00000000000E+00 0.  1.
</event>
<event>
12    1  0.8462562E-002  0.2139513E+03  0.7818608E-02  0.1138510E+00
         21   -1    0    0  501  502  0.00000000000E+00  0.00000000000E+00  0.36145607243E+03  0.36145607243E+03  0.00000000000E+00 0. -1.
         21   -1    0    0  502  503 -0.00000000000E+00 -0.00000000000E+00 -0.13970723041E+03  0.13970723041E+03  0.00000000000E+00 0. -1.
         -6    2    1    2    0  503  0.12711597786E+03 -0.15209549467E+02  0.33970411326E+02  0.21663137765E+03  0.17142159349E+03 0.  0.
        -24    2    3    3    0    0  0.87262785357E+02 -0.70707797647E+02  0.47590984758E+02  0.14680342820E+03  0.81682056438E+02 0.  0.
          6    2    1    2  501    0 -0.12711597786E+03  0.15209549467E+02  0.18777843070E+03  0.28453192519E+03  0.17119542983E+03 0.  0.
         24    2    5    5    0    0 -0.82440743741E+02  0.17313713585E+02  0.20568643873E+03  0.23612644202E+03  0.79702852121E+02 0.  0.
          5    1    5    5  501    0 -0.44675234116E+02 -0.21041641180E+01 -0.17908008027E+02  0.48405483176E+02  0.47000000000E+01 0. -1.
        -13    1    6    6    0    0 -0.56406703791E+00 -0.12583816963E+02 -0.14751727889E+00  0.12597316473E+02  0.00000000000E+00 0.  1.
         14    1    6    6    0    0 -0.81876676703E+02  0.29897530548E+02  0.20583395601E+03  0.22352912554E+03  0.00000000000E+00 0. -1.
         -5    1    3    3    0  503  0.39853192500E+02  0.55498248180E+02 -0.13620573432E+02  0.69827949448E+02  0.47000000000E+01 0.  1.
         11    1    4    4    0    0  0.96778478879E+02 -0.60648297449E+02  0.20023375515E+02  0.11595354900E+03  0.00000000000E+00 0. -1.
        -12    1    4    4    0    0 -0.95156935217E+01 -0.10059500197E+02  0.27567609243E+02  0.30849879202E+02  0.00000000000E+00 0.  1.
</event>
<event>
12    1  0.8462562E-002  0.1775543E+03  0.7818608E-02  0.1170679E+00
         21   -1    0    0  503  502  0.00000000000E+00  0.00000000000E+00  0.69535354989E+02  0.69535354989E+02  0.00000000000E+00 0.  1.
         21   -1    0    0  501  503 -0.00000000000E+00 -0.00000000000E+00 -0.46716761472E+03  0.46716761472E+03  0.00000000000E+00 0.  1.
          6    2    1    2  501    0 -0.19381944591E+01  0.37922596690E+02 -0.25372664927E+03  0.30968167107E+03  0.17344637474E+03 0.  0.
         24    2    3    3    0    0  0.18541799443E+01  0.65448014890E+02 -0.26095901730E+03  0.28058823714E+03  0.79644644996E+02 0.  0.
         -6    2    1    2    0  502  0.19381944591E+01 -0.37922596690E+02 -0.14390561046E+03  0.22702129864E+03  0.17142918472E+03 0.  0.
        -24    2    5    5    0    0  0.38576442934E+01  0.44754618991E+02 -0.66695935013E+02  0.11378424523E+03  0.80502480556E+02 0.  0.
          5    1    3    3  501    0 -0.37923744034E+01 -0.27525418200E+02  0.72323680272E+01  0.29093433933E+02  0.47000000000E+01 0. -1.
        -11    1    4    4    0    0 -0.14027384808E+02  0.44272521469E+02 -0.51038251945E+02  0.69005266780E+02  0.00000000000E+00 0.  1.
         12    1    4    4    0    0  0.15881564752E+02  0.21175493421E+02 -0.20992076535E+03  0.21158297036E+03  0.00000000000E+00 0. -1.
         -5    1    5    5    0  502 -0.19194498343E+01 -0.82677215681E+02 -0.77209675450E+02  0.11323705340E+03  0.47000000000E+01 0.  1.
         11    1    6    6    0    0 -0.51818785185E+01  0.11202274329E+02 -0.76650421418E+02  0.77637812428E+02  0.00000000000E+00 0. -1.
        -12    1    6    6    0    0  0.90395228119E+01  0.33552344662E+02  0.99544864054E+01  0.36146432805E+02  0.00000000000E+00 0.  1.
</event>
<event>
12    1  0.8462562E-002  0.1983317E+03  0.7818608E-02  0.1151286E+00
         21   -1    0    0  503  502  0.00000000000E+00  0.00000000000E+00  0.36476192468E+02  0.36476192468E+02  0.00000000000E+00 0. -1.
         21   -1    0    0  501  503 -0.00000000000E+00 -0.00000000000E+00 -0.15294635476E+04  0.15294635476E+04  0.00000000000E+00 0. -1.
          6    2    1    2  501    0 -0.67094517912E+02  0.70945835639E+02 -0.11740874370E+04  0.11907211105E+04  0.17262811883E+03 0.  0.
         24    2    3    3    0    0 -0.30565378715E+02  0.66567666671E+02 -0.11200523120E+04  0.11251815720E+04  0.78427621154E+02 0.  0.
         -6    2    1    2    0  502  0.67094517912E+02 -0.70945835639E+02 -0.31889991819E+03  0.37521862959E+03  0.17192113380E+03 0.  0.
        -24    2    5    5    0    0 -0.72030467423E+01 -0.89262710157E+02 -0.21601229603E+03  0.24690811250E+03  0.79262782384E+02 0.  0.
          5    1    3    3  501    0 -0.36529139197E+02  0.43781689672E+01 -0.54035124950E+02  0.65539538466E+02  0.47000000000E+01 0. -1.
        -13    1    4    4    0    0 -0.71896928233E-01  0.63878674519E+01 -0.50582994615E+01  0.81483994253E+01  0.00000000000E+00 0.  1.
         14    1    4    4    0    0 -0.30493481787E+02  0.60179799220E+02 -0.11149940125E+04  0.11170331726E+04  0.00000000000E+00 0. -1.
         -5    1    5    5    0  502  0.74297564654E+02  0.18316874518E+02 -0.10288762215E+03  0.12831051710E+03  0.47000000000E+01 0.  1.
         11    1    6    6    0    0  0.17470857004E+02 -0.64112140603E+02 -0.69245453607E+02  0.95971507555E+02  0.00000000000E+00 0. -1.
        -12    1    6    6    0    0 -0.24673903746E+02 -0.25150569554E+02 -0.14676684243E+03  0.15093660494E+03  0.00000000000E+00 0.  1.
</event>
<event>
12    1  0.8462562E-002  0.1806700E+03  0.7818608E-02  0.1167932E+00
         21   -1    0    0  503  502  0.00000000000E+00  0.00000000000E+00  0.18100314714E+03  0.18100314714E+03  0.00000000000E+00 0.  1.
         21   -1    0    0  501  503 -0.00000000000E+00 -0.00000000000E+00 -0.19699882367E+03  0.19699882367E+03  0.00000000000E+00 0.  1.
          6    2    1    2  501    0 -0.53876434767E+02 -0.71324212991E+01 -0.68026734323E+02  0.19305257740E+03  0.17230240683E+03 0.  0.
         24    2    3    3    0    0 -0.10186523943E+02  0.10030014050E+02  0.33092361155E+02  0.81470683860E+02  0.73061628164E+02 0.  0.
         -6    2    1    2    0  502  0.53876434767E+02  0.71324212991E+01  0.52031057789E+02  0.18494939342E+03  0.16895415205E+03 0.  0.
        -24    2    5    5    0    0  0.69325943441E+02 -0.51806527649E+02  0.16892828381E+02  0.11445632860E+03  0.72971780607E+02 0.  0.
          5    1    3    3  501    0 -0.43689910824E+02 -0.17162435349E+02 -0.10111909548E+03  0.11158189354E+03  0.47000000000E+01 0. -1.
        -11    1    4    4    0    0 -0.15809232856E+02 -0.11535022477E+02 -0.17458225371E+02  0.26225526118E+02  0.00000000000E+00 0.  1.
         12    1    4    4    0    0  0.56227089132E+01  0.21565036527E+02  0.50550586526E+02  0.55245157743E+02  0.00000000000E+00 0. -1.
         -5    1    5    5    0  502 -0.15449508675E+02  0.58938948948E+02  0.35138229408E+02  0.70493064817E+02  0.47000000000E+01 0.  1.
         11    1    6    6    0    0 -0.13430484763E+02 -0.17306275504E+02  0.11231964259E+02  0.24617922616E+02  0.00000000000E+00 0. -1.
        -12    1    6    6    0    0  0.82756428205E+02 -0.34500252145E+02  0.56608641215E+01  0.89838405985E+02  0.00000000000E+00 0.  1.
</event>
<event>
12    1  0.8462562E-002  0.3054588E+03  0.7818608E-02  0.1082552E+00
         21   -1    0    0  503  502  0.00000000000E+00  0.00000000000E+00  0.10126747733E+04  0.10126747733E+04  0.00000000000E+00 0.  1.
         21   -1    0    0  501  503 -0.00000000000E+00 -0.00000000000E+00 -0.11367300195E+03  0.11367300195E+03  0.00000000000E+00 0.  1.
          6    2    1    2  501    0 -0.20298453271E+03  0.14961304428E+03  0.20419738784E+03  0.36736279101E+03  0.17225580826E+03 0.  0.
         24    2    3    3    0    0 -0.11381622713E+03  0.93115675009E+02  0.19974931764E+03  0.26160450631E+03  0.83141237246E+02 0.  0.
         -6    2    1    2    0  502  0.20298453271E+03 -0.14961304428E+03  0.69480438351E+03  0.75898498424E+03  0.17238994000E+03 0.  0.
        -24    2    5    5    0    0  0.30302193341E+02 -0.58346964763E+02  0.20238672325E+03  0.22922472739E+03  0.85211493821E+02 0.  0.
          5    1    3    3  501    0 -0.89168305580E+02  0.56497369275E+02  0.44480701963E+01  0.10575828470E+03  0.47000000000E+01 0. -1.
        -13    1    4    4    0    0 -0.12375008608E+03  0.83374844008E+02  0.15677591271E+03  0.21643506006E+03  0.00000000000E+00 0.  1.
         14    1    4    4    0    0  0.99338589521E+01  0.97408310003E+01  0.42973404938E+02  0.45169446246E+02  0.00000000000E+00 0. -1.
         -5    1    5    5    0  502  0.17268233937E+03 -0.91266079521E+02  0.49241766026E+03  0.52976025685E+03  0.47000000000E+01 0.  1.
         11    1    6    6    0    0  0.14697250589E+01  0.93417006220E+01  0.11325865305E+03  0.11365276043E+03  0.00000000000E+00 0. -1.
        -12    1    6    6    0    0  0.28832468282E+02 -0.67688665385E+02  0.89128070195E+02  0.11557196695E+03  0.00000000000E+00 0.  1.
</event>
<event>
12    1  0.8462562E-002  0.1966608E+03  0.7818608E-02  0.1153251E+00
         21   -1    0    0  503  502  0.00000000000E+00  0.00000000000E+00  0.11809094240E+03  0.11809094240E+03  0.00000000000E+00 0.  1.
         21   -1    0    0  501  503 -0.00000000000E+00 -0.00000000000E+00 -0.37585898550E+03  0.37585898550E+03  0.00000000000E+00 0. -1.
          6    2    1    2  501    0 -0.22693748062E+02 -0.95569664108E+02 -0.22285032175E+03  0.29721667436E+03  0.17037288140E+03 0.  0.
         24    2    3    3    0    0 -0.27411067751E+02 -0.49727969499E+02 -0.38426681209E+02  0.10706441100E+03  0.82231020236E+02 0.  0.
         -6    2    1    2    0  502  0.22693748062E+02  0.95569664108E+02 -0.34917721360E+02  0.19673325354E+03  0.16684171806E+03 0.  0.
        -24    2    5    5    0    0 -0.22269924441E+02  0.20205453872E+02  0.28523120108E+02  0.88343556633E+02  0.78017983292E+02 0.  0.
          5    1    3    3  501    0  0.47173196889E+01 -0.45841694608E+02 -0.18442364054E+03  0.19015226335E+03  0.47000000000E+01 0. -1.
        -11    1    4    4    0    0  0.17969930126E+02 -0.21806371014E+02  0.14674191724E+02  0.31839725317E+02  0.00000000000E+00 0.  1.
         12    1    4    4    0    0 -0.45380997877E+02 -0.27921598486E+02 -0.53100872933E+02  0.75224685686E+02  0.00000000000E+00 0. -1.
         -5    1    5    5    0  502  0.44963672503E+02  0.75364210235E+02 -0.63440841469E+02  0.10838969691E+03  0.47000000000E+01 0.  1.
         13    1    6    6    0    0 -0.13889897855E+02 -0.23354948281E+02  0.34135876571E+02  0.43630733903E+02  0.00000000000E+00 0. -1.
        -14    1    6    6    0    0 -0.83800265857E+01  0.43560402153E+02 -0.56127564629E+01  0.44712822730E+02  0.00000000000E+00 0.  1.
</event>
<event>
12    1  0.8462562E-002  0.1728906E+03  0.7818608E-02  0.1175065E+00
         21   -1    0    0  503  502  0.00000000000E+00  0.00000000000E+00  0.19534995420E+03  0.19534995420E+03  0.00000000000E+00 0.  1.
         21   -1    0    0  501  503 -0.00000000000E+00 -0.00000000000E+00 -0.17033721115E+03  0.17033721115E+03  0.00000000000E+00 0.  1.
          6    2    1    2  501    0 -0.60611439438E+01  0.75370095667E+01 -0.46972818980E+02  0.17840906404E+03  0.17184238252E+03 0.  0.
         24    2    3    3    0    0 -0.47919065678E+02  0.46618983665E+02 -0.37666758156E+01  0.10651784679E+03  0.82838984447E+02 0.  0.
         -6    2    1    2    0  502  0.60611439438E+01 -0.75370095667E+01  0.71985562027E+02  0.18727810130E+03  0.17261987750E+03 0.  0.
        -24    2    5    5    0    0 -0.22074203397E+02  0.49313758169E+02  0.78449050519E+02  0.12334474346E+03  0.78361693515E+02 0.  0.
          5    1    3    3  501    0  0.41857921734E+02 -0.39081974099E+02 -0.43206143165E+02  0.71891217256E+02  0.47000000000E+01 0. -1.
        -13    1    4    4    0    0 -0.13640552266E+02  0.34752555764E+02 -0.40368810503E+02  0.54985867818E+02  0.00000000000E+00 0.  1.
         14    1    4    4    0    0 -0.34278513412E+02  0.11866427902E+02  0.36602134688E+02  0.51531978970E+02  0.00000000000E+00 0. -1.
         -5    1    5    5    0  502  0.28135347341E+02 -0.56850767735E+02 -0.64634884920E+01  0.63933357847E+02  0.47000000000E+01 0.  1.
         11    1    6    6    0    0 -0.83072306952E+01  0.20696697404E+02  0.87521230583E+02  0.90317933811E+02  0.00000000000E+00 0. -1.
        -12    1    6    6    0    0 -0.13766972702E+02  0.28617060765E+02 -0.90721800637E+01  0.33026809644E+02  0.00000000000E+00 0.  1.
</event>
<event>
12    1  0.8462562E-002  0.2170943E+03  0.7818608E-02  0.1136112E+00
         21   -1    0    0  501  502  0.00000000000E+00  0.00000000000E+00  0.13283191722E+04  0.13283191722E+04  0.00000000000E+00 0. -1.
         21   -1    0    0  502  503 -0.00000000000E+00 -0.00000000000E+00 -0.35979251522E+02  0.35979251522E+02  0.00000000000E+00 0. -1.
         -6    2    1    2    0  503  0.53835268929E+02 -0.12077543730E+03  0.56256183286E+03  0.60291417160E+03  0.17188583449E+03 0.  0.
        -24    2    3    3    0    0 -0.26118451219E+01 -0.96051331633E+02  0.20773624163E+03  0.24274636589E+03  0.80862673846E+02 0.  0.
          6    2    1    2  501    0 -0.53835268929E+02  0.12077543730E+03  0.72977808777E+03  0.76138425207E+03  0.17217717465E+03 0.  0.
         24    2    5    5    0    0  0.35582194897E+02  0.47134636094E+02  0.41040478249E+03  0.42161985051E+03  0.76442438080E+02 0.  0.
          5    1    5    5  501    0 -0.89417463826E+02  0.73640801208E+02  0.31937330528E+03  0.33976440156E+03  0.47000000000E+01 0. -1.
        -13    1    6    6    0    0  0.15557626131E+02  0.32477785184E+02  0.57516405396E+02  0.67860026164E+02  0.00000000000E+00 0.  1.
         14    1    6    6    0    0  0.20024568766E+02  0.14656850910E+02  0.35288837710E+03  0.35375982435E+03  0.00000000000E+00 0. -1.
         -5    1    3    3    0  503  0.56447114051E+02 -0.24724105669E+02  0.35482559122E+03  0.36016780572E+03  0.47000000000E+01 0.  1.
         13    1    4    4    0    0 -0.15718923624E+00 -0.11071325944E+03  0.18384408365E+03  0.21460684429E+03  0.00000000000E+00 0. -1.
        -14    1    4    4    0    0 -0.24546558857E+01  0.14661927808E+02  0.23892157983E+02  0.28139521596E+02  0.00000000000E+00 0.  1.
</event>
<event>
12    1  0.8462562E-002  0.2559573E+03  0.7818608E-02  0.1109975E+00
         21   -1    0    0  501  502  0.00000000000E+00  0.00000000000E+00  0.11261384813E+04  0.11261384813E+04  0.00000000000E+00 0. -1.
         21   -1    0    0  502  503 -0.00000000000E+00 -0.00000000000E+00 -0.68452722712E+02  0.68452722712E+02  0.00000000000E+00 0. -1.
         -6    2    1    2    0  503 -0.16781120992E+03  0.88577092238E+02  0.28908619171E+03  0.38449279885E+03  0.16809932388E+03 0.  0.
        -24    2    3    3    0    0 -0.16236588985E+02  0.36117969120E+02  0.13629896966E+03  0.16292373393E+03  0.79991245967E+02 0.  0.
          6    2    1    2  501    0  0.16781120992E+03 -0.88577092238E+02  0.76859956687E+03  0.81009840515E+03  0.17177784604E+03 0.  0.
         24    2    5    5    0    0  0.86917509602E+02  0.14342590064E+02  0.45894307793E+03  0.47387603395E+03  0.78545422541E+02 0.  0.
          5    1    5    5  501    0  0.80893700320E+02 -0.10291968230E+03  0.30965648894E+03  0.33622237120E+03  0.47000000000E+01 0. -1.
        -11    1    6    6    0    0  0.58033378465E+02  0.32401772462E+02  0.16376979013E+03  0.17674357707E+03  0.00000000000E+00 0.  1.
         12    1    6    6    0    0  0.28884131137E+02 -0.18059182398E+02  0.29517328780E+03  0.29713245688E+03  0.00000000000E+00 0. -1.
         -5    1    3    3    0  503 -0.15157462094E+03  0.52459123118E+02  0.15278722205E+03  0.22156906493E+03  0.47000000000E+01 0.  1.
         13    1    4    4    0    0 -0.44266476544E+02  0.29674144609E+02  0.11619377649E+03  0.12783219273E+03  0.00000000000E+00 0. -1.
        -14    1    4    4    0    0  0.28029887559E+02  0.64438245116E+01  0.20105193165E+02  0.35091541191E+02  0.00000000000E+00 0.  1.
</event>
<event>
12    1  0.8462562E-002  0.1787718E+03  0.7818608E-02  0.1169331E+00
         21   -1    0    0  501  502  0.00000000000E+00  0.00000000000E+00  0.25678531376E+02  0.25678531376E+02  0.00000000000E+00 0.  1.
         21   -1    0    0  502  503 -0.00000000000E+00 -0.00000000000E+00 -0.12760823300E+04  0.12760823300E+04  0.00000000000E+00 0.  1.
         -6    2    1    2    0  503  0.18136933014E+02  0.37689319575E+02 -0.73949797012E+03  0.76048079659E+03  0.17240754340E+03 0.  0.
        -24    2    3    3    0    0 -0.34726375824E+02  0.60520280843E+02 -0.32247195301E+03  0.33947180481E+03  0.79901941224E+02 0.  0.
          6    2    1    2  501    0 -0.18136933014E+02 -0.37689319575E+02 -0.51090582851E+03  0.54128006479E+03  0.17380998184E+03 0.  0.
         24    2    5    5    0    0 -0.28135165925E+02 -0.20697296580E+02 -0.51314521153E+03  0.52088893085E+03  0.82385098917E+02 0.  0.
          5    1    5    5  501    0  0.99982329117E+01 -0.16992022995E+02  0.22393830228E+01  0.20391133934E+02  0.47000000000E+01 0. -1.
        -11    1    6    6    0    0 -0.11035261093E+02  0.32117483660E+02 -0.19121276444E+03  0.19420512616E+03  0.00000000000E+00 0.  1.
         12    1    6    6    0    0 -0.17099904833E+02 -0.52814780240E+02 -0.32193244709E+03  0.32668380469E+03  0.00000000000E+00 0. -1.
         -5    1    3    3    0  503  0.52863308838E+02 -0.22830961268E+02 -0.41702601711E+03  0.42100899178E+03  0.47000000000E+01 0.  1.
         11    1    4    4    0    0  0.23689713788E+02  0.31975525707E+02 -0.97945100853E+02  0.10572076222E+03  0.00000000000E+00 0. -1.
        -12    1    4    4    0    0 -0.58416089613E+02  0.28544755136E+02 -0.22452685216E+03  0.23375104259E+03  0.00000000000E+00 0.  1.
</event>
<event>
12    1  0.8462562E-002  0.1961662E+03  0.7818608E-02  0.1153565E+00
         21   -1    0    0  503  502  0.00000000000E+00  0.00000000000E+00  0.12442718563E+03  0.12442718563E+03  0.00000000000E+00 0.  1.
         21   -1    0    0  501  503 -0.00000000000E+00 -0.00000000000E+00 -0.31634349431E+03  0.31634349431E+03  0.00000000000E+00 0.  1.
          6    2    1    2  501    0  0.90981811437E+02 -0.74564933183E+01 -0.13654427729E+03  0.23693931817E+03  0.17077064012E+03 0.  0.
         24    2    3    3    0    0 -0.11872479563E+02 -0.27807217127E+02 -0.45697277709E+02  0.98128567612E+02  0.81405021321E+02 0.  0.
         -6    2    1    2    0  502 -0.90981811437E+02  0.74564933183E+01 -0.55372031390E+02  0.20383136177E+03  0.17363142825E+03 0.  0.
        -24    2    5    5    0    0 -0.97465240563E+02  0.37026605716E+02  0.98394133897E+01  0.13178242749E+03  0.79995946715E+02 0.  0.
          5    1    3    3  501    0  0.10285429100E+03  0.20350723809E+02 -0.90846999581E+02  0.13881075055E+03  0.47000000000E+01 0. -1.
        -11    1    4    4    0    0  0.28913599307E+02 -0.34303310376E+02 -0.29880905909E+02  0.53903449478E+02  0.00000000000E+00 0.  1.
         12    1    4    4    0    0 -0.40786078870E+02  0.64960932491E+01 -0.15816371800E+02  0.44225118135E+02  0.00000000000E+00 0. -1.
         -5    1    5    5    0  502  0.64834291259E+01 -0.29570112398E+02 -0.65211444779E+02  0.72048934279E+02  0.47000000000E+01 0.  1.
         13    1    6    6    0    0 -0.14263074911E+02 -0.19253813629E+02 -0.15049574911E+02  0.28295482859E+02  0.00000000000E+00 0. -1.
        -14    1    6    6    0    0 -0.83202165651E+02  0.56280419346E+02  0.24888988301E+02  0.10348694463E+03  0.00000000000E+00 0.  1.
</event>
<event>
12    1  0.8462562E-002  0.1968325E+03  0.7818608E-02  0.1152891E+00
         21   -1    0    0  503  502  0.00000000000E+00  0.00000000000E+00  0.18732373094E+03  0.18732373094E+03  0.00000000000E+00 0.  1.
         21   -1    0    0  501  503 -0.00000000000E+00 -0.00000000000E+00 -0.43467135321E+03  0.43467135321E+03  0.00000000000E+00 0. -1.
          6    2    1    2  501    0  0.82229032037E+02  0.43272949142E+02 -0.34960277507E+03  0.40018623978E+03  0.17115129076E+03 0.  0.
         24    2    3    3    0    0  0.10816899925E+03  0.16034240733E+02 -0.33153135763E+03  0.35819224898E+03  0.80193621066E+02 0.  0.
         -6    2    1    2    0  502 -0.82229032037E+02 -0.43272949142E+02  0.10225515281E+03  0.22180884437E+03  0.17351912093E+03 0.  0.
        -24    2    5    5    0    0 -0.59885963652E+01 -0.75801497067E+01  0.10710839071E+03  0.13735634955E+03  0.85447278743E+02 0.  0.
          5    1    3    3  501    0 -0.25939967216E+02  0.27238708408E+02 -0.18071417444E+02  0.41993990801E+02  0.47000000000E+01 0. -1.
        -13    1    4    4    0    0  0.68126158243E+02 -0.12848577141E+02 -0.10146472610E+03  0.12288755028E+03  0.00000000000E+00 0.  1.
         14    1    4    4    0    0  0.40042841010E+02  0.28882817874E+02 -0.23006663153E+03  0.23530469870E+03  0.00000000000E+00 0. -1.
         -5    1    5    5    0  502 -0.76240435672E+02 -0.35692799435E+02 -0.48532379050E+01  0.84452494819E+02  0.47000000000E+01 0.  1.
         13    1    6    6    0    0  0.37906040609E+02  0.93684870918E-01  0.30176005211E+02  0.48450675764E+02  0.00000000000E+00 0. -1.
        -14    1    6    6    0    0 -0.43894636974E+02 -0.76738345776E+01  0.76932385502E+02  0.88905673786E+02  0.00000000000E+00 0.  1.
</event>
<event>
12    1  0.8462562E-002  0.2005218E+03  0.7818608E-02  0.1151767E+00
         21   -1    0    0  501  502  0.00000000000E+00  0.00000000000E+00  0.46662701625E+03  0.46662701625E+03  0.00000000000E+00 0. -1.
         21   -1    0    0  502  503 -0.00000000000E+00 -0.00000000000E+00 -0.14851515230E+03  0.14851515230E+03  0.00000000000E+00 0. -1.
         -6    2    1    2    0  503  0.74208762503E+02  0.31420294253E+02 -0.50278538240E+02  0.19571342086E+03  0.17111877855E+03 0.  0.
        -24    2    3    3    0    0  0.12071548153E+02  0.55690944863E+02 -0.79216685742E+02  0.12284638943E+03  0.74624047607E+02 0.  0.
          6    2    1    2  501    0 -0.74208762503E+02 -0.31420294253E+02  0.36839040219E+03  0.41942874769E+03  0.18361593244E+03 0.  0.
         24    2    5    5    0    0 -0.76623291523E+01  0.28267010901E+02  0.27842433623E+03  0.29251544969E+03  0.84778783346E+02 0.  0.
          5    1    5    5  501    0 -0.66546433351E+02 -0.59687305153E+02  0.89966065955E+02  0.12691329801E+03  0.47000000000E+01 0. -1.
        -11    1    6    6    0    0 -0.10558562850E+01 -0.27641926805E+02  0.14637492899E+03  0.14896580409E+03  0.00000000000E+00 0.  1.
         12    1    6    6    0    0 -0.66064728673E+01  0.55908937706E+02  0.13204940724E+03  0.14354964560E+03  0.00000000000E+00 0. -1.
         -5    1    3    3    0  503  0.62137214350E+02 -0.24270650611E+02  0.28938147502E+02  0.72867031428E+02  0.47000000000E+01 0.  1.
         11    1    4    4    0    0  0.43447657616E+02  0.32010379075E+02 -0.38803500453E+02  0.66468601371E+02  0.00000000000E+00 0. -1.
        -12    1    4    4    0    0 -0.31376109463E+02  0.23680565789E+02 -0.40413185290E+02  0.56377788059E+02  0.00000000000E+00 0.  1.
</event>
<event>
12    1  0.8462562E-002  0.1797333E+03  0.7818608E-02  0.1168298E+00
         21   -1    0    0  501  502  0.00000000000E+00  0.00000000000E+00  0.37231528995E+03  0.37231528995E+03  0.00000000000E+00 0. -1.
         21   -1    0    0  502  503 -0.00000000000E+00 -0.00000000000E+00 -0.11897067837E+03  0.11897067837E+03  0.00000000000E+00 0. -1.
         -6    2    1    2    0  503 -0.17902706137E+02  0.45681176519E+02 -0.23077992909E+01  0.17877643588E+03  0.17189651339E+03 0.  0.
        -24    2    3    3    0    0 -0.28882498377E+02  0.36541862128E+02 -0.65996575589E+02  0.11333613384E+03  0.79498583913E+02 0.  0.
          6    2    1    2  501    0  0.17902706137E+02 -0.45681176519E+02  0.25565241087E+03  0.31250953244E+03  0.17290684171E+03 0.  0.
         24    2    5    5    0    0  0.71080475079E+01 -0.12007468496E+02  0.36843911336E+02  0.90812232653E+02  0.81821049601E+02 0.  0.
          5    1    5    5  501    0  0.10794658629E+02 -0.33673708023E+02  0.21880849953E+03  0.22169729979E+03  0.47000000000E+01 0. -1.
        -11    1    6    6    0    0  0.21480045504E+02  0.22599204296E+02  0.42713992284E+02  0.52882903915E+02  0.00000000000E+00 0.  1.
         12    1    6    6    0    0 -0.14371997996E+02 -0.34606672792E+02 -0.58700809475E+01  0.37929328737E+02  0.00000000000E+00 0. -1.
         -5    1    3    3    0  503  0.10979792240E+02  0.91393143913E+01  0.63688776298E+02  0.65440302043E+02  0.47000000000E+01 0.  1.
         11    1    4    4    0    0  0.26070320421E+02  0.22569835265E+02 -0.17227134226E+02  0.38546507291E+02  0.00000000000E+00 0. -1.
        -12    1    4    4    0    0 -0.54952818798E+02  0.13972026863E+02 -0.48769441363E+02  0.74789626549E+02  0.00000000000E+00 0.  1.
</event>
<event>
12    1  0.8462562E-002  0.1955817E+03  0.7818608E-02  0.1153735E+00
         21   -1    0    0  503  502  0.00000000000E+00  0.00000000000E+00  0.95422580445E+02  0.95422580445E+02  0.00000000000E+00 0. -1.
         21   -1    0    0  501  503 -0.00000000000E+00 -0.00000000000E+00 -0.39886686985E+03  0.39886686985E+03  0.00000000000E+00 0. -1.
          6    2    1    2  501    0  0.22754825511E+02  0.88584835882E+02 -0.15135476156E+03  0.24730642448E+03  0.17287899962E+03 0.  0.
         24    2    3    3    0    0  0.66895101369E+02  0.10475240269E+03 -0.10942821497E+03  0.18414251486E+03  0.80535154377E+02 0.  0.
         -6    2    1    2    0  502 -0.22754825511E+02 -0.88584835882E+02 -0.15208952785E+03  0.24698302582E+03  0.17176826054E+03 0.  0.
        -24    2    5    5    0    0 -0.48143387702E+02 -0.21287377477E+02 -0.20962252907E+02  0.97350211130E+02  0.79162550116E+02 0.  0.
          5    1    3    3  501    0 -0.44140275858E+02 -0.16167566809E+02 -0.41926546583E+02  0.63163909614E+02  0.47000000000E+01 0. -1.
        -13    1    4    4    0    0  0.37894547824E+02 -0.14776851024E+01 -0.30346372362E+02  0.48570388341E+02  0.00000000000E+00 0.  1.
         14    1    4    4    0    0  0.29000553545E+02  0.10623008779E+03 -0.79081842612E+02  0.13557212652E+03  0.00000000000E+00 0. -1.
         -5    1    5    5    0  502  0.25388562190E+02 -0.67297458405E+02 -0.13112727494E+03  0.14963281469E+03  0.47000000000E+01 0.  1.
         13    1    6    6    0    0 -0.37191409974E+02 -0.36774692284E+02 -0.43403393036E+02  0.67966414467E+02  0.00000000000E+00 0. -1.
        -14    1    6    6    0    0 -0.10951977727E+02  0.15487314807E+02  0.22441140129E+02  0.29383796663E+02  0.00000000000E+00 0.  1.
</event>
<event>
12    1  0.8462562E-002  0.1801509E+03  0.7818608E-02  0.1167953E+00
         21   -1    0    0  501  502  0.00000000000E+00  0.00000000000E+00  0.11360275106E+03  0.11360275106E+03  0.00000000000E+00 0.  1.
         21   -1    0    0  502  503 -0.00000000000E+00 -0.00000000000E+00 -0.37826261622E+03  0.37826261622E+03  0.00000000000E+00 0.  1.
         -6    2    1    2    0  503 -0.29237599278E+02  0.38766038546E+02 -0.25560008628E+03  0.31270713619E+03  0.17348402221E+03 0.  0.
        -24    2    3    3    0    0 -0.52325583753E+01 -0.11755513212E+02 -0.38274428823E+02  0.88249566551E+02  0.78469626841E+02 0.  0.
          6    2    1    2  501    0  0.29237599278E+02 -0.38766038546E+02 -0.90597788714E+01  0.17915823109E+03  0.17221483448E+03 0.  0.
         24    2    5    5    0    0 -0.13201866246E+02 -0.80276929707E+02 -0.25140484115E+02  0.11747402403E+03  0.80928534306E+02 0.  0.
          5    1    5    5  501    0  0.42439465524E+02  0.41510891160E+02  0.16080705244E+02  0.61684207055E+02  0.47000000000E+01 0. -1.
        -11    1    6    6    0    0 -0.18715935963E+02 -0.26994756642E+02  0.27150151309E+02  0.42616122081E+02  0.00000000000E+00 0.  1.
         12    1    6    6    0    0  0.55140697175E+01 -0.53282173065E+02 -0.52290635424E+02  0.74857901950E+02  0.00000000000E+00 0. -1.
         -5    1    3    3    0  503 -0.24005040903E+02  0.50521551759E+02 -0.21732565746E+03  0.22445756964E+03  0.47000000000E+01 0.  1.
         11    1    4    4    0    0 -0.11801990446E+02  0.24214208805E+02  0.90754010449E+01  0.28424950143E+02  0.00000000000E+00 0. -1.
        -12    1    4    4    0    0  0.65694320712E+01 -0.35969722017E+02 -0.47349829868E+02  0.59824616407E+02  0.00000000000E+00 0.  1.
</event>
<event>
12    1  0.8462562E-002  0.1782404E+03  0.7818608E-02  0.1169544E+00
         21   -1    0    0  503  502  0.00000000000E+00  0.00000000000E+00  0.15017213975E+03  0.15017213975E+03  0.00000000000E+00 0.  1.
         21   -1    0    0  501  503 -0.00000000000E+00 -0.00000000000E+00 -0.40606588599E+03  0.40606588599E+03  0.00000000000E+00 0.  1.
          6    2    1    2  501    0  0.28961393772E+02 -0.32544081159E+02 -0.32051918095E+03  0.36674538862E+03  0.17283447332E+03 0.  0.
         24    2    3    3    0    0  0.85266783668E+02 -0.22261544093E+02 -0.19978466836E+03  0.23304819332E+03  0.81434304539E+02 0.  0.
         -6    2    1    2    0  502 -0.28961393772E+02  0.32544081159E+02  0.64625434712E+02  0.18949263713E+03  0.17272270599E+03 0.  0.
        -24    2    5    5    0    0  0.50214707221E+02  0.90588964725E+00  0.40374260371E+02  0.10072305006E+03  0.77412624656E+02 0.  0.
          5    1    3    3  501    0 -0.56305389897E+02 -0.10282537066E+02 -0.12073451259E+03  0.13369719530E+03  0.47000000000E+01 0. -1.
        -11    1    4    4    0    0  0.62707819779E+02  0.11769762065E+02 -0.17255216603E+03  0.18397023662E+03  0.00000000000E+00 0.  1.
         12    1    4    4    0    0  0.22558963889E+02 -0.34031306157E+02 -0.27232502325E+02  0.49077956696E+02  0.00000000000E+00 0. -1.
         -5    1    5    5    0  502 -0.79176100992E+02  0.31638191511E+02  0.24251174342E+02  0.88769587064E+02  0.47000000000E+01 0.  1.
         13    1    6    6    0    0  0.63646096193E+02 -0.13494154333E+02  0.11957956410E+02  0.66150665026E+02  0.00000000000E+00 0. -1.
        -14    1    6    6    0    0 -0.13431388973E+02  0.14400043981E+02  0.28416303960E+02  0.34572385037E+02  0.00000000000E+00 0.  1.
</event>
<event>
12    1  0.8462562E-002  0.2089557E+03  0.7818608E-02  0.1142406E+00
         21   -1    0    0  503  502  0.00000000000E+00  0.00000000000E+00  0.71547885483E+03  0.71547885483E+03  0.00000000000E+00 0.  1.
         21   -1    0    0  501  503 -0.00000000000E+00 -0.00000000000E+00 -0.15769704522E+03  0.15769704522E+03  0.00000000000E+00 0. -1.
          6    2    1    2  501    0 -0.11760814323E+03 -0.11680511409E+02 -0.62951334809E+02  0.21823232855E+03  0.17232054135E+03 0.  0.
         24    2    3    3    0    0 -0.71074793759E+02  0.56275160386E+02 -0.61981659282E+02  0.13573168484E+03  0.79767438208E+02 0.  0.
         -6    2    1    2    0  502  0.11760814323E+03  0.11680511409E+02  0.62073314442E+03  0.65494357150E+03  0.17225950063E+03 0.  0.
        -24    2    5    5    0    0  0.74467361078E+02  0.73534767521E+02  0.43955151789E+03  0.45863782049E+03  0.78678863783E+02 0.  0.
          5    1    3    3  501    0 -0.46533349469E+02 -0.67955671795E+02 -0.96967552664E+00  0.82500643709E+02  0.47000000000E+01 0. -1.
        -11    1    4    4    0    0  0.65311175620E+01  0.19061942693E+02 -0.43158480495E+02  0.47630532167E+02  0.00000000000E+00 0.  1.
         12    1    4    4    0    0 -0.77605911321E+02  0.37213217693E+02 -0.18823178787E+02  0.88101152675E+02  0.00000000000E+00 0. -1.
         -5    1    5    5    0  502  0.43140782149E+02 -0.61854256112E+02  0.18118162654E+03  0.19630575101E+03  0.47000000000E+01 0.  1.
         13    1    6    6    0    0  0.23106177330E+02  0.28775374607E+02  0.31070262334E+03  0.31288662127E+03  0.00000000000E+00 0. -1.
        -14    1    6    6    0    0  0.51361183748E+02  0.44759392914E+02  0.12884889454E+03  0.14575119922E+03  0.00000000000E+00 0.  1.
</event>
<event>
12    1  0.8462562E-002  0.1720972E+03  0.7818608E-02  0.1175969E+00
         21   -1    0    0  503  502  0.00000000000E+00  0.00000000000E+00  0.75765715357E+03  0.75765715357E+03  0.00000000000E+00 0.  1.
         21   -1    0    0  501  503 -0.00000000000E+00 -0.00000000000E+00 -0.39670958880E+02  0.39670958880E+02  0.00000000000E+00 0.  1.
          6    2    1    2  501    0  0.32308060864E+02  0.10733716935E+02  0.41803228721E+03  0.45207128559E+03  0.16869626737E+03 0.  0.
         24    2    3    3    0    0 -0.15947804649E+02  0.60185431905E+02  0.23036318847E+03  0.25203158629E+03  0.81093176050E+02 0.  0.
         -6    2    1    2    0  502 -0.32308060864E+02 -0.10733716935E+02  0.29995390748E+03  0.34525682687E+03  0.16754374476E+03 0.  0.
        -24    2    5    5    0    0 -0.31075931850E+02  0.28216420362E+02  0.29049271333E+03  0.30488065156E+03  0.82488273591E+02 0.  0.
          5    1    3    3  501    0  0.48255865513E+02 -0.49451714970E+02  0.18766909874E+03  0.20003969929E+03  0.47000000000E+01 0. -1.
        -13    1    4    4    0    0 -0.32295994868E+02  0.27230619047E+02  0.40103067040E+02  0.58247694239E+02  0.00000000000E+00 0.  1.
         14    1    4    4    0    0  0.16348190219E+02  0.32954812858E+02  0.19026012143E+03  0.19378389206E+03  0.00000000000E+00 0. -1.
         -5    1    5    5    0  502 -0.12321290141E+01 -0.38950137297E+02  0.94611941469E+01  0.40376175302E+02  0.47000000000E+01 0.  1.
         11    1    6    6    0    0 -0.13705084440E+01  0.51913824668E+02  0.13087311725E+03  0.14080019994E+03  0.00000000000E+00 0. -1.
        -12    1    6    6    0    0 -0.29705423406E+02 -0.23697404306E+02  0.15961959608E+03  0.16408045162E+03  0.00000000000E+00 0.  1.
</event>
<event>
12    1  0.8462562E-002  0.1924038E+03  0.7818608E-02  0.1156425E+00
         21   -1    0    0  501  502  0.00000000000E+00  0.00000000000E+00  0.33167086894E+03  0.33167086894E+03  0.00000000000E+00 0.  1.
         21   -1    0    0  502  503 -0.00000000000E+00 -0.00000000000E+00 -0.11455702267E+03  0.11455702267E+03  0.00000000000E+00 0.  1.
         -6    2    1    2    0  503  0.67066642140E+02 -0.51859197358E+02  0.14621843990E+03  0.24165897635E+03  0.17271918784E+03 0.  0.
        -24    2    3    3    0    0 -0.25818110448E+02 -0.39452863645E+02  0.10203989527E+03  0.13795107798E+03  0.79970347084E+02 0.  0.
          6    2    1    2  501    0 -0.67066642140E+02  0.51859197358E+02  0.70895406373E+02  0.20456891526E+03  0.17214810951E+03 0.  0.
         24    2    5    5    0    0 -0.11243897667E+03  0.46843715702E+02  0.62404629495E+02  0.15790000603E+03  0.78747805973E+02 0.  0.
          5    1    5    5  501    0  0.45372334530E+02  0.50154816562E+01  0.84907768780E+01  0.46668909232E+02  0.47000000000E+01 0. -1.
        -13    1    6    6    0    0 -0.46577358649E+02  0.52237740389E+02  0.59321993639E+02  0.91746012387E+02  0.00000000000E+00 0.  1.
         14    1    6    6    0    0 -0.65861618021E+02 -0.53940246873E+01  0.30826358568E+01  0.66153993640E+02  0.00000000000E+00 0. -1.
         -5    1    3    3    0  503  0.92884752587E+02 -0.12406333713E+02  0.44178544623E+02  0.10370789837E+03  0.47000000000E+01 0.  1.
         13    1    4    4    0    0  0.52269520330E+01  0.18643098031E+02  0.38938663445E+01  0.19749641183E+02  0.00000000000E+00 0. -1.
        -14    1    4    4    0    0 -0.31045062481E+02 -0.58095961676E+02  0.98146028928E+02  0.11820143680E+03  0.00000000000E+00 0.  1.
</event>
<event>
12    1  0.8462562E-002  0.1953302E+03  0.7818608E-02  0.1154527E+00
         21   -1    0    0  501  502  0.00000000000E+00  0.00000000000E+00  0.68173685905E+02  0.68173685905E+02  0.00000000000E+00 0.  1.
         21   -1    0    0  502  503 -0.00000000000E+00 -0.00000000000E+00 -0.58968911372E+03  0.58968911372E+03  0.00000000000E+00 0.  1.
         -6    2    1    2    0  503 -0.75398680465E+02  0.50981653511E+02 -0.34894751090E+03  0.39989781572E+03  0.17282883916E+03 0.  0.
        -24    2    3    3    0    0 -0.99377531479E+02  0.63996534058E+02 -0.18399567056E+03  0.23263881882E+03  0.79340803525E+02 0.  0.
          6    2    1    2  501    0  0.75398680465E+02 -0.50981653511E+02 -0.17256791691E+03  0.25796498390E+03  0.16876657537E+03 0.  0.
         24    2    5    5    0    0  0.10895011191E+02 -0.72778485996E+02 -0.55778412278E+02  0.12269597914E+03  0.80793952302E+02 0.  0.
          5    1    5    5  501    0  0.64503669274E+02  0.21796832485E+02 -0.11678950464E+03  0.13526900476E+03  0.47000000000E+01 0. -1.
        -11    1    6    6    0    0 -0.12161139951E+02 -0.30887418030E+02  0.15682087215E+02  0.36713128127E+02  0.00000000000E+00 0.  1.
         12    1    6    6    0    0  0.23056151141E+02 -0.41891067966E+02 -0.71460499493E+02  0.85982851015E+02  0.00000000000E+00 0. -1.
         -5    1    3    3    0  503  0.23978851014E+02 -0.13014880548E+02 -0.16495184035E+03  0.16725899690E+03  0.47000000000E+01 0.  1.
         11    1    4    4    0    0  0.98573434752E+01 -0.19705901056E+01 -0.18196528683E+01  0.10215751676E+02  0.00000000000E+00 0. -1.
        -12    1    4    4    0    0 -0.10923487495E+03  0.65967124164E+02 -0.18217601769E+03  0.22242306714E+03  0.00000000000E+00 0.  1.
</event>
<event>
12    1  0.8462562E-002  0.1851305E+03  0.7818608E-02  0.1163979E+00
         21   -1    0    0  501  502  0.00000000000E+00  0.00000000000E+00  0.18097400123E+04  0.18097400123E+04  0.00000000000E+00 0.  1.
         21   -1    0    0  502  503 -0.00000000000E+00 -0.00000000000E+00 -0.19773662480E+02  0.19773662480E+02  0.00000000000E+00 0.  1.
         -6    2    1    2    0  503  0.47321544618E+02  0.23595166640E+02  0.65138811748E+03  0.67598271081E+03  0.17277177213E+03 0.  0.
        -24    2    3    3    0    0 -0.55297749850E+01  0.10763818202E+02  0.58252107574E+03  0.58810401644E+03  0.79931797645E+02 0.  0.
          6    2    1    2  501    0 -0.47321544618E+02 -0.23595166640E+02  0.11385782324E+04  0.11535309640E+04  0.17741824372E+03 0.  0.
         24    2    5    5    0    0 -0.31804076205E+02  0.55892286287E+02  0.70173677008E+03  0.70922071184E+03  0.80150338057E+02 0.  0.
          5    1    5    5  501    0 -0.15517468414E+02 -0.79487452927E+02  0.43684146229E+03  0.44431025216E+03  0.47000000000E+01 0. -1.
        -13    1    6    6    0    0  0.10147573225E+02  0.44022115928E+02  0.53409883644E+03  0.53600605129E+03  0.00000000000E+00 0.  1.
         14    1    6    6    0    0 -0.41951649429E+02  0.11870170359E+02  0.16763793364E+03  0.17321466055E+03  0.00000000000E+00 0. -1.
         -5    1    3    3    0  503  0.52851319603E+02  0.12831348437E+02  0.68867041739E+02  0.87878694371E+02  0.47000000000E+01 0.  1.
         13    1    4    4    0    0  0.24167579467E+02 -0.24055455083E+02  0.20457441457E+03  0.20739678858E+03  0.00000000000E+00 0. -1.
        -14    1    4    4    0    0 -0.29697354452E+02  0.34819273285E+02  0.37794666117E+03  0.38070722786E+03  0.00000000000E+00 0.  1.
</event>
<event>
12    1  0.8462562E-002  0.1914140E+03  0.7818608E-02  0.1157350E+00
         21   -1    0    0  501  502  0.00000000000E+00  0.00000000000E+00  0.60726741012E+03  0.60726741012E+03  0.00000000000E+00 0. -1.
         21   -1    0    0  502  503 -0.00000000000E+00 -0.00000000000E+00 -0.74944361308E+02  0.74944361308E+02  0.00000000000E+00 0. -1.
         -6    2    1    2    0  503  0.60868264444E+02 -0.52156731002E+02  0.11401991487E+03  0.22219346809E+03  0.17304371144E+03 0.  0.
        -24    2    3    3    0    0  0.30610224216E+02  0.43637921080E+01 -0.67061236751E+01  0.85419987792E+02  0.79344651435E+02 0.  0.
          6    2    1    2  501    0 -0.60868264444E+02  0.52156731002E+02  0.41830313395E+03  0.46001830334E+03  0.17382191269E+03 0.  0.
         24    2    5    5    0    0 -0.74779023066E+02  0.86443290063E+02  0.24114594363E+03  0.27897732063E+03  0.81318107523E+02 0.  0.
          5    1    5    5  501    0  0.13910758622E+02 -0.34286559061E+02  0.17715719032E+03  0.18104098271E+03  0.47000000000E+01 0. -1.
        -13    1    6    6    0    0 -0.33025519151E+02  0.83874578809E+02  0.20401840815E+03  0.22304515406E+03  0.00000000000E+00 0.  1.
         14    1    6    6    0    0 -0.41753503915E+02  0.25687112542E+01  0.37127535475E+02  0.55932166569E+02  0.00000000000E+00 0. -1.
         -5    1    3    3    0  503  0.30258040228E+02 -0.56520523110E+02  0.12072603854E+03  0.13677348030E+03  0.47000000000E+01 0.  1.
         13    1    4    4    0    0  0.31962222582E+02  0.33590787153E+02  0.15281739481E+02  0.48820653575E+02  0.00000000000E+00 0. -1.
        -14    1    4    4    0    0 -0.13519983652E+01 -0.29226995045E+02 -0.21987863156E+02  0.36599334217E+02  0.00000000000E+00 0.  1.
</event>
<event>
12    1  0.8462562E-002  0.2322180E+03  0.7818608E-02  0.1125098E+00
         21   -1    0    0  501  502  0.00000000000E+00  0.00000000000E+00  0.12739645559E+03  0.12739645559E+03  0.00000000000E+00 0. -1.
         21   -1    0    0  502  503 -0.00000000000E+00 -0.00000000000E+00 -0.45843496024E+03  0.45843496024E+03  0.00000000000E+00 0. -1.
         -6    2    1    2    0  503 -0.31937430359E+02 -0.15343748644E+03 -0.24672513240E+03  0.33878095001E+03  0.17127807632E+03 0.  0.
        -24    2    3    3    0    0 -0.18888316489E+02 -0.17868480461E+03 -0.18255931445E+03  0.26844569114E+03  0.80312875057E+02 0.  0.
          6    2    1    2  501    0  0.31937430359E+02  0.15343748644E+03 -0.84313372246E+02  0.24705046583E+03  0.17135380422E+03 0.  0.
         24    2    5    5    0    0 -0.39152532326E+02  0.43449555149E+02 -0.66355990631E+02  0.11477920901E+03  0.73146187179E+02 0.  0.
          5    1    5    5  501    0  0.71089962685E+02  0.10998793129E+03 -0.17957381615E+02  0.13227125681E+03  0.47000000000E+01 0. -1.
        -11    1    6    6    0    0 -0.32835154275E+02  0.22949114673E+02 -0.79920583977E+02  0.89398595983E+02  0.00000000000E+00 0.  1.
         12    1    6    6    0    0 -0.63173780517E+01  0.20500440476E+02  0.13564593346E+02  0.25380613030E+02  0.00000000000E+00 0. -1.
         -5    1    3    3    0  503 -0.13049113870E+02  0.25247318166E+02 -0.64165817949E+02  0.70335258871E+02  0.47000000000E+01 0.  1.
         11    1    4    4    0    0 -0.32852502108E+02 -0.31713457682E+02 -0.66438361844E+02  0.80616910245E+02  0.00000000000E+00 0. -1.
        -12    1    4    4    0    0  0.13964185620E+02 -0.14697134692E+03 -0.11612095261E+03  0.18782878089E+03  0.00000000000E+00 0.  1.
</event>
<event>
12    1  0.8462562E-002  0.2239767E+03  0.7818608E-02  0.1131085E+00
         21   -1    0    0  503  502  0.00000000000E+00  0.00000000000E+00  0.25084077640E+03  0.25084077640E+03  0.00000000000E+00 0. -1.
         21   -1    0    0  501  503 -0.00000000000E+00 -0.00000000000E+00 -0.34295165212E+03  0.34295165212E+03  0.00000000000E+00 0. -1.
          6    2    1    2  501    0  0.14078214688E+03 -0.34307010171E+02 -0.23813482105E+03  0.32641902204E+03  0.16983698399E+03 0.  0.
         24    2    3    3    0    0  0.89433777005E+02 -0.82765323344E+02 -0.19614132123E+03  0.24413653769E+03  0.79263686046E+02 0.  0.
         -6    2    1    2    0  502 -0.14078214688E+03  0.34307010171E+02  0.14602394532E+03  0.26737340648E+03  0.17078923286E+03 0.  0.
        -24    2    5    5    0    0 -0.11505931832E+03  0.75771826664E+02  0.79285547639E+02  0.18456580634E+03  0.93799372905E+02 0.  0.
          5    1    3    3  501    0  0.51348369872E+02  0.48458313173E+02 -0.41993499822E+02  0.82282484353E+02  0.47000000000E+01 0. -1.
        -13    1    4    4    0    0  0.45768610260E+02 -0.15868501331E+02 -0.23357341536E+02  0.53778624222E+02  0.00000000000E+00 0.  1.
         14    1    4    4    0    0  0.43665166745E+02 -0.66896822013E+02 -0.17278397969E+03  0.19035791347E+03  0.00000000000E+00 0. -1.
         -5    1    5    5    0  502 -0.25722828557E+02 -0.41464816493E+02  0.66738397680E+02  0.82807600138E+02  0.47000000000E+01 0.  1.
         13    1    6    6    0    0 -0.12242430536E+03  0.73391981982E+02  0.91901748704E+02  0.16976461639E+03  0.00000000000E+00 0. -1.
        -14    1    6    6    0    0  0.73649870385E+01  0.23798446826E+01 -0.12616201065E+02  0.14801189955E+02  0.00000000000E+00 0.  1.
</event>
<event>
12    1  0.8462562E-002  0.1842930E+03  0.7818608E-02  0.1163756E+00
         21   -1    0    0  503  502  0.00000000000E+00  0.00000000000E+00  0.18397309095E+04  0.18397309095E+04  0.00000000000E+00 0.  1.
         21   -1    0    0  501  503 -0.00000000000E+00 -0.00000000000E+00 -0.20873074056E+02  0.20873074056E+02  0.00000000000E+00 0.  1.
          6    2    1    2  501    0 -0.48025778194E+02 -0.45146481757E+02  0.59237404324E+03  0.62037964796E+03  0.17210235416E+03 0.  0.
         24    2    3    3    0    0 -0.10446203530E+02 -0.83522099152E+02  0.47253266879E+03  0.48896824255E+03  0.93368918418E+02 0.  0.
         -6    2    1    2    0  502  0.48025778194E+02  0.45146481757E+02  0.12264837922E+04  0.12402243356E+04  0.17189889439E+03 0.  0.
        -24    2    5    5    0    0  0.76081067518E+02  0.40349977372E+02  0.11772812484E+04  0.11831885045E+04  0.80792634755E+02 0.  0.
          5    1    3    3  501    0 -0.37579574664E+02  0.38375617395E+02  0.11984137445E+03  0.13141140541E+03  0.47000000000E+01 0. -1.
        -13    1    4    4    0    0 -0.36168063956E+02 -0.91335883038E+02  0.38922931941E+03  0.40143472130E+03  0.00000000000E+00 0.  1.
         14    1    4    4    0    0  0.25721860426E+02  0.78137838863E+01  0.83303349388E+02  0.87533521246E+02  0.00000000000E+00 0. -1.
         -5    1    5    5    0  502 -0.28055289324E+02  0.47965043842E+01  0.49202543825E+02  0.57035831126E+02  0.47000000000E+01 0.  1.
         11    1    6    6    0    0  0.39296685176E+02 -0.46649073680E+01  0.84018527163E+03  0.84111668721E+03  0.00000000000E+00 0. -1.
        -12    1    6    6    0    0  0.36784382342E+02  0.45014884741E+02  0.33709597676E+03  0.34207181728E+03  0.00000000000E+00 0.  1.
</event>
<event>
12    1  0.8462562E-002  0.1811472E+03  0.7818608E-02  0.1166935E+00
         21   -1    0    0  501  502  0.00000000000E+00  0.00000000000E+00  0.31811494730E+03  0.31811494730E+03  0.00000000000E+00 0. -1.
         21   -1    0    0  502  503 -0.00000000000E+00 -0.00000000000E+00 -0.10523849181E+03  0.10523849181E+03  0.00000000000E+00 0. -1.
         -6    2    1    2    0  503  0.67426083641E+00  0.56348542042E+02  0.13972735430E+03  0.22799457505E+03  0.17112036669E+03 0.  0.
        -24    2    3    3    0    0  0.46808602001E+02  0.17670586090E+02  0.23129346234E+02  0.96687502908E+02  0.79436841121E+02 0.  0.
          6    2    1    2  501    0 -0.67426083641E+00 -0.56348542042E+02  0.73149101187E+02  0.19535886406E+03  0.17215888575E+03 0.  0.
         24    2    5    5    0    0 -0.40272721830E+02 -0.44244498753E+02 -0.97784867854E+01  0.10254926959E+03  0.82711946519E+02 0.  0.
          5    1    5    5  501    0  0.39598460994E+02 -0.12104043290E+02  0.82927587972E+02  0.92809594460E+02  0.47000000000E+01 0. -1.
        -11    1    6    6    0    0 -0.48422350572E+01 -0.58887427550E+02 -0.20831105744E+02  0.62650708937E+02  0.00000000000E+00 0.  1.
         12    1    6    6    0    0 -0.35430486773E+02  0.14642928797E+02  0.11052618959E+02  0.39898560658E+02  0.00000000000E+00 0. -1.
         -5    1    3    3    0  503 -0.46134341165E+02  0.38677955952E+02  0.11659800806E+03  0.13130707214E+03  0.47000000000E+01 0.  1.
         11    1    4    4    0    0  0.30241736600E+02  0.48786225453E+02  0.21837061437E+02  0.61412667087E+02  0.00000000000E+00 0. -1.
        -12    1    4    4    0    0  0.16566865401E+02 -0.31115639363E+02  0.12922847964E+01  0.35274835821E+02  0.00000000000E+00 0.  1.
</event>
<event>
12    1  0.8462562E-002  0.1935758E+03  0.7818608E-02  0.1156864E+00
         21   -1    0    0  501  502  0.00000000000E+00  0.00000000000E+00  0.28345588667E+02  0.28345588667E+02  0.00000000000E+00 0.  1.
         21   -1    0    0  502  503 -0.00000000000E+00 -0.00000000000E+00 -0.18988286974E+04  0.18988286974E+04  0.00000000000E+00 0.  1.
         -6    2    1    2    0  503 -0.39617304671E+02 -0.57026974491E+02 -0.14995763728E+04  0.15120188064E+04  0.18069301728E+03 0.  0.
        -24    2    3    3    0    0 -0.50415989279E+02 -0.84832394133E+02 -0.77305599209E+03  0.78487115530E+03  0.93106693937E+02 0.  0.
          6    2    1    2  501    0  0.39617304671E+02  0.57026974491E+02 -0.37090673594E+03  0.41515547965E+03  0.17309147542E+03 0.  0.
         24    2    5    5    0    0  0.79724641369E+02  0.74402507532E+02 -0.32577994633E+03  0.35215528325E+03  0.77388749305E+02 0.  0.
          5    1    5    5  501    0 -0.40107336698E+02 -0.17375533041E+02 -0.45126789615E+02  0.63000196400E+02  0.47000000000E+01 0. -1.
        -13    1    6    6    0    0  0.50111137110E+02  0.81623058086E+02 -0.18738947423E+03  0.21044777196E+03  0.00000000000E+00 0.  1.
         14    1    6    6    0    0  0.29613504259E+02 -0.72205505534E+01 -0.13839047210E+03  0.14170751128E+03  0.00000000000E+00 0. -1.
         -5    1    3    3    0  503  0.10798684607E+02  0.27805419642E+02 -0.72652038070E+03  0.72714765112E+03  0.47000000000E+01 0.  1.
         13    1    4    4    0    0  0.20118986431E+02 -0.18310691193E+02 -0.68973718207E+02  0.74144648021E+02  0.00000000000E+00 0. -1.
        -14    1    4    4    0    0 -0.70534975709E+02 -0.66521702940E+02 -0.70408227388E+03  0.71072650728E+03  0.00000000000E+00 0.  1.
</event>
<event>
12    1  0.8462562E-002  0.2282190E+03  0.7818608E-02  0.1128277E+00
         21   -1    0    0  501  502  0.00000000000E+00  0.00000000000E+00  0.89398572510E+02  0.89398572510E+02  0.00000000000E+00 0. -1.
         21   -1    0    0  502  503 -0.00000000000E+00 -0.00000000000E+00 -0.65754073521E+03  0.65754073521E+03  0.00000000000E+00 0. -1.
         -6    2    1    2    0  503  0.33468575004E+02 -0.14213573127E+03 -0.41574980573E+03  0.47426975972E+03  0.17538868949E+03 0.  0.
        -24    2    3    3    0    0  0.45410498299E+01 -0.16115110408E+03 -0.27137451768E+03  0.32572784673E+03  0.80400260006E+02 0.  0.
          6    2    1    2  501    0 -0.33468575004E+02  0.14213573127E+03 -0.15239235697E+03  0.27266954800E+03  0.17263412272E+03 0.  0.
         24    2    5    5    0    0 -0.98455431473E+01  0.17439710570E+02 -0.11247718236E+03  0.13954383156E+03  0.80126688138E+02 0.  0.
          5    1    5    5  501    0 -0.23623031857E+02  0.12469602070E+03 -0.39915174613E+02  0.13312571644E+03  0.47000000000E+01 0. -1.
        -11    1    6    6    0    0  0.28390766620E+02 -0.14200896684E+02 -0.55890378467E+02  0.64276243676E+02  0.00000000000E+00 0.  1.
         12    1    6    6    0    0 -0.38236309767E+02  0.31640607254E+02 -0.56586803889E+02  0.75267587887E+02  0.00000000000E+00 0. -1.
         -5    1    3    3    0  503  0.28927525175E+02  0.19015372804E+02 -0.14437528805E+03  0.14854191299E+03  0.47000000000E+01 0.  1.
         13    1    4    4    0    0 -0.30957186801E+02 -0.27400100031E+02 -0.72228695268E+02  0.83223177760E+02  0.00000000000E+00 0. -1.
        -14    1    4    4    0    0  0.35498236631E+02 -0.13375100404E+03 -0.19914582241E+03  0.24250466897E+03  0.00000000000E+00 0.  1.
</event>
<event>
12    1  0.8462562E-002  0.5635343E+03  0.7818608E-02  0.9984376E-01
         21   -1    0    0  501  502  0.00000000000E+00  0.00000000000E+00  0.19480541902E+04  0.19480541902E+04  0.00000000000E+00 0. -1.
         21   -1    0    0  502  503 -0.00000000000E+00 -0.00000000000E+00 -0.16457122747E+03  0.16457122747E+03  0.00000000000E+00 0.  1.
         -6    2    1    2    0  503  0.46664832624E+03 -0.26397191547E+03  0.78480024504E+03  0.96616891995E+03  0.17357743153E+03 0.  0.
        -24    2    3    3    0    0  0.18298530676E+03 -0.18218479097E+03  0.39160343828E+03  0.47445796705E+03  0.71289473842E+02 0.  0.
          6    2    1    2  501    0 -0.46664832624E+03  0.26397191547E+03  0.99868271774E+03  0.11464564978E+04  0.17191130860E+03 0.  0.
         24    2    5    5    0    0 -0.20414560035E+03  0.51347079474E+02  0.40743584100E+03  0.46549250369E+03  0.79795725099E+02 0.  0.
          5    1    5    5  501    0 -0.26250272589E+03  0.21262483599E+03  0.59124687673E+03  0.68096399407E+03  0.47000000000E+01 0. -1.
        -11    1    6    6    0    0 -0.12076053579E+03 -0.63194867394E+00  0.27707028576E+03  0.30224402329E+03  0.00000000000E+00 0.  1.
         12    1    6    6    0    0 -0.83385064560E+02  0.51979028148E+02  0.13036555525E+03  0.16324848040E+03  0.00000000000E+00 0. -1.
         -5    1    3    3    0  503  0.28366301948E+03 -0.81787124498E+02  0.39319680676E+03  0.49171095290E+03  0.47000000000E+01 0.  1.
         11    1    4    4    0    0  0.14288729851E+03 -0.16576727799E+03  0.28461132991E+03  0.35902531894E+03  0.00000000000E+00 0. -1.
        -12    1    4    4    0    0  0.40098008253E+02 -0.16417512981E+02  0.10699210836E+03  0.11543264811E+03  0.00000000000E+00 0.  1.
</event>
<event>
12    1  0.8462562E-002  0.2717470E+03  0.7818608E-02  0.1100304E+00
         21   -1    0    0  501  502  0.00000000000E+00  0.00000000000E+00  0.30736461908E+03  0.30736461908E+03  0.00000000000E+00 0. -1.
         21   -1    0    0  502  503 -0.00000000000E+00 -0.00000000000E+00 -0.53924222049E+03  0.53924222049E+03  0.00000000000E+00 0. -1.
         -6    2    1    2    0  503  0.20686784811E+03  0.38001386436E+02 -0.43121694355E+03  0.50970037088E+03  0.17206976410E+03 0.  0.
        -24    2    3    3    0    0  0.22344510258E+03  0.51780577633E+02 -0.35308466885E+03  0.42851284828E+03  0.79658870672E+02 0.  0.
          6    2    1    2  501    0 -0.20686784811E+03 -0.38001386436E+02  0.19933934214E+03  0.33690646870E+03  0.17184697662E+03 0.  0.
         24    2    5    5    0    0 -0.86046291555E+02 -0.29240313020E+02  0.17566316463E+03  0.21338620187E+03  0.80107200346E+02 0.  0.
          5    1    5    5  501    0 -0.12082155655E+03 -0.87610734165E+01  0.23676177514E+02  0.12352026682E+03  0.47000000000E+01 0. -1.
        -11    1    6    6    0    0 -0.84369361626E+02 -0.46725684744E+02  0.16903197831E+03  0.19461060733E+03  0.00000000000E+00 0.  1.
         12    1    6    6    0    0 -0.16769299291E+01  0.17485371725E+02  0.66311863199E+01  0.18775594541E+02  0.00000000000E+00 0. -1.
         -5    1    3    3    0  503 -0.16577254476E+02 -0.13779191197E+02 -0.78132274694E+02  0.81187522593E+02  0.47000000000E+01 0.  1.
         13    1    4    4    0    0  0.98474307305E+02  0.49450667115E+02 -0.21927463627E+03  0.24540563112E+03  0.00000000000E+00 0. -1.
        -14    1    4    4    0    0  0.12497079528E+03  0.23299105187E+01 -0.13381003259E+03  0.18310721716E+03  0.00000000000E+00 0.  1.
</event>
<event>
12    1  0.8462562E-002  0.2214034E+03  0.7818608E-02  0.1133050E+00
         21   -1    0    0  503  502  0.00000000000E+00  0.00000000000E+00  0.59612247552E+03  0.59612247552E+03  0.00000000000E+00 0.  1.
         21   -1    0    0  501  503 -0.00000000000E+00 -0.00000000000E+00 -0.17771868866E+03  0.17771868866E+03  0.00000000000E+00 0. -1.
          6    2    1    2  501    0 -0.74651922950E+02  0.11466346863E+03 -0.74787485476E+02  0.23369348443E+03  0.17406566590E+03 0.  0.
         24    2    3    3    0    0 -0.20184490656E+02  0.91494122120E+01  0.12758122901E+02  0.86091855617E+02  0.82206523444E+02 0.  0.
         -6    2    1    2    0  502  0.74651922950E+02 -0.11466346863E+03  0.49319127233E+03  0.54014767975E+03  0.17263042663E+03 0.  0.
        -24    2    5    5    0    0  0.84949594498E+02 -0.24114365825E+02  0.19975515300E+03  0.23284973282E+03  0.80739957150E+02 0.  0.
          5    1    3    3  501    0 -0.54467432294E+02  0.10551405642E+03 -0.87545608378E+02  0.14760162882E+03  0.47000000000E+01 0. -1.
        -13    1    4    4    0    0 -0.93951142151E+01 -0.35604727197E+02  0.15547476810E+02  0.39971099623E+02  0.00000000000E+00 0.  1.
         14    1    4    4    0    0 -0.10789376441E+02  0.44754139409E+02 -0.27893539085E+01  0.46120755994E+02  0.00000000000E+00 0. -1.
         -5    1    5    5    0  502 -0.10297671548E+02 -0.90549102807E+02  0.29343611933E+03  0.30729794692E+03  0.47000000000E+01 0.  1.
         13    1    6    6    0    0  0.29814510160E+02  0.15499159767E+02  0.16523906514E+02  0.37445539869E+02  0.00000000000E+00 0. -1.
        -14    1    6    6    0    0  0.55135084338E+02 -0.39613525591E+02  0.18323124649E+03  0.19540419296E+03  0.00000000000E+00 0.  1.
</event>
<event>
12    1  0.8462562E-002  0.1878623E+03  0.7818608E-02  0.1160467E+00
         21   -1    0    0  503  502  0.00000000000E+00  0.00000000000E+00  0.23219888658E+03  0.23219888658E+03  0.00000000000E+00 0.  1.
         21   -1    0    0  501  503 -0.00000000000E+00 -0.00000000000E+00 -0.16546221874E+03  0.16546221874E+03  0.00000000000E+00 0.  1.
          6    2    1    2  501    0  0.69097661960E+02 -0.30662611414E+02 -0.23809449782E+02  0.18936505099E+03  0.17198124901E+03 0.  0.
         24    2    3    3    0    0 -0.66936337877E+01  0.17471215998E+02  0.27950449810E+02  0.85623241395E+02  0.78740483239E+02 0.  0.
         -6    2    1    2    0  502 -0.69097661960E+02  0.30662611414E+02  0.90546117626E+02  0.20829605433E+03  0.17167983051E+03 0.  0.
        -24    2    5    5    0    0  0.20207400060E+01  0.18182862796E+02 -0.11779485840E+02  0.82971713724E+02  0.80067778176E+02 0.  0.
          5    1    3    3  501    0  0.75791295747E+02 -0.48133827413E+02 -0.51759899592E+02  0.10374180960E+03  0.47000000000E+01 0. -1.
        -11    1    4    4    0    0  0.12008675884E+02 -0.28652300826E+02  0.87352236475E+01  0.32271764304E+02  0.00000000000E+00 0.  1.
         12    1    4    4    0    0 -0.18702309672E+02  0.46123516824E+02  0.19215226163E+02  0.53351477091E+02  0.00000000000E+00 0. -1.
         -5    1    5    5    0  502 -0.71118401966E+02  0.12479748619E+02  0.10232560347E+03  0.12532434061E+03  0.47000000000E+01 0.  1.
         11    1    6    6    0    0 -0.16821379944E+02 -0.27576389949E+02 -0.83642066605E+01  0.33367290254E+02  0.00000000000E+00 0. -1.
        -12    1    6    6    0    0  0.18842119950E+02  0.45759252745E+02 -0.34152791797E+01  0.49604423470E+02  0.00000000000E+00 0.  1.
</event>
<event>
12    1  0.8462562E-002  0.1727386E+03  0.7818608E-02  0.1175822E+00
         21   -1    0    0  501  502  0.00000000000E+00  0.00000000000E+00  0.44382837076E+03  0.44382837076E+03  0.00000000000E+00 0.  1.
         21   -1    0    0  502  503 -0.00000000000E+00 -0.00000000000E+00 -0.19684392529E+03  0.19684392529E+03  0.00000000000E+00 0.  1.
         -6    2    1    2    0  503 -0.75968015201E+01  0.57884566701E+01 -0.13727038939E+03  0.22063946772E+03  0.17247433805E+03 0.  0.
        -24    2    3    3    0    0 -0.53680288679E+02 -0.12442461989E+02 -0.13960571353E+03  0.17080375840E+03  0.81533921664E+02 0.  0.
          6    2    1    2  501    0  0.75968015201E+01 -0.57884566701E+01  0.38425483485E+03  0.42003282833E+03  0.16936523004E+03 0.  0.
         24    2    5    5    0    0  0.47293869450E+02 -0.51294183669E+02  0.23495983500E+03  0.25891884578E+03  0.83456822804E+02 0.  0.
          5    1    5    5  501    0 -0.39697067930E+02  0.45505726999E+02  0.14929499986E+03  0.16111398255E+03  0.47000000000E+01 0. -1.
        -11    1    6    6    0    0  0.40774725796E+01 -0.20473176078E+02  0.18451233638E+03  0.18568946927E+03  0.00000000000E+00 0.  1.
         12    1    6    6    0    0  0.43216396871E+02 -0.30821007591E+02  0.50447498617E+02  0.73229376511E+02  0.00000000000E+00 0. -1.
         -5    1    3    3    0  503  0.46083487159E+02  0.18230918659E+02  0.23353241394E+01  0.49835709313E+02  0.47000000000E+01 0.  1.
         11    1    4    4    0    0  0.20548929599E+02  0.67973438973E+01 -0.27905122208E+02  0.35315127596E+02  0.00000000000E+00 0. -1.
        -12    1    4    4    0    0 -0.74229218278E+02 -0.19239805886E+02 -0.11170059132E+03  0.13548863081E+03  0.00000000000E+00 0.  1.
</event>
<event>
12    1  0.8462562E-002  0.2954177E+03  0.7818608E-02  0.1087866E+00
         21   -1    0    0  503  502  0.00000000000E+00  0.00000000000E+00  0.11398289496E+04  0.11398289496E+04  0.00000000000E+00 0.  1.
         21   -1    0    0  501  503 -0.00000000000E+00 -0.00000000000E+00 -0.80724402286E+02  0.80724402286E+02  0.00000000000E+00 0.  1.
          6    2    1    2  501    0  0.88061364515E+01  0.23982715963E+03  0.37883060328E+03  0.47890365074E+03  0.16805197463E+03 0.  0.
         24    2    3    3    0    0  0.69854182626E+02  0.15720225728E+03  0.23025660111E+03  0.29821036766E+03  0.79493172669E+02 0.  0.
         -6    2    1    2    0  502 -0.88061364515E+01 -0.23982715963E+03  0.68027394407E+03  0.74164970118E+03  0.17227021142E+03 0.  0.
        -24    2    5    5    0    0  0.25507204132E+02 -0.12210635362E+03  0.22067278365E+03  0.26594925955E+03  0.80448444067E+02 0.  0.
          5    1    3    3  501    0 -0.61048046175E+02  0.82624902349E+02  0.14857400217E+03  0.18069328308E+03  0.47000000000E+01 0. -1.
        -13    1    4    4    0    0  0.30895380887E+02  0.13595000778E+03  0.20254971430E+03  0.24589289526E+03  0.00000000000E+00 0.  1.
         14    1    4    4    0    0  0.38958801740E+02  0.21252249502E+02  0.27706886807E+02  0.52317472401E+02  0.00000000000E+00 0. -1.
         -5    1    5    5    0  502 -0.34313340584E+02 -0.11772080601E+03  0.45960116042E+03  0.47570044163E+03  0.47000000000E+01 0.  1.
         13    1    6    6    0    0  0.77610572731E+01 -0.19851122044E+01 -0.51694672924E+01  0.95340480672E+01  0.00000000000E+00 0. -1.
        -14    1    6    6    0    0  0.17746146859E+02 -0.12012124142E+03  0.22584225094E+03  0.25641521148E+03  0.00000000000E+00 0.  1.
</event>
<event>
12    1  0.8462562E-002  0.1867747E+03  0.7818608E-02  0.1161531E+00
         21   -1    0    0  503  502  0.00000000000E+00  0.00000000000E+00  0.47554960750E+02  0.47554960750E+02  0.00000000000E+00 0. -1.
         21   -1    0    0  501  503 -0.00000000000E+00 -0.00000000000E+00 -0.89445577853E+03  0.89445577853E+03  0.00000000000E+00 0. -1.
          6    2    1    2  501    0  0.33267198388E+02  0.64153184198E+02 -0.62404383356E+03  0.65123589638E+03  0.17162502439E+03 0.  0.
         24    2    3    3    0    0  0.53721382652E+02  0.80288211406E+02 -0.60639173550E+03  0.61941767325E+03  0.81456327023E+02 0.  0.
         -6    2    1    2    0  502 -0.33267198388E+02 -0.64153184198E+02 -0.22285698422E+03  0.29077484290E+03  0.17222786162E+03 0.  0.
        -24    2    5    5    0    0 -0.32297057964E+02 -0.38687019457E+01 -0.21799602693E+03  0.23010459584E+03  0.66089261315E+02 0.  0.
          5    1    3    3  501    0 -0.20454184264E+02 -0.16135027208E+02 -0.17652098061E+02  0.31818223125E+02  0.47000000000E+01 0. -1.
        -11    1    4    4    0    0  0.33634072183E+02  0.19088155995E+02 -0.77450964749E+02  0.86569396737E+02  0.00000000000E+00 0.  1.
         12    1    4    4    0    0  0.20087310468E+02  0.61200055411E+02 -0.52894077075E+03  0.53284827651E+03  0.00000000000E+00 0. -1.
         -5    1    5    5    0  502 -0.97014042403E+00 -0.60284482252E+02 -0.48609572904E+01  0.60670247062E+02  0.47000000000E+01 0.  1.
         13    1    6    6    0    0  0.19911955794E+02 -0.75415971072E+01 -0.66058585104E+02  0.69405319223E+02  0.00000000000E+00 0. -1.
        -14    1    6    6    0    0 -0.52209013758E+02  0.36728951615E+01 -0.15193744183E+03  0.16069927662E+03  0.00000000000E+00 0.  1.
</event>
<event>
12    1  0.8462562E-002  0.1781650E+03  0.7818608E-02  0.1170960E+00
         21   -1    0    0  503  502  0.00000000000E+00  0.00000000000E+00  0.23679693318E+03  0.23679693318E+03  0.00000000000E+00 0. -1.
         21   -1    0    0  501  503 -0.00000000000E+00 -0.00000000000E+00 -0.44810375860E+03  0.44810375860E+03  0.00000000000E+00 0. -1.
          6    2    1    2  501    0 -0.38445324532E+02  0.50478940149E+01 -0.39467655773E+03  0.43302695422E+03  0.17389431745E+03 0.  0.
         24    2    3    3    0    0 -0.40294104126E+02  0.59044913079E+02 -0.16516908905E+03  0.19719891467E+03  0.80601906819E+02 0.  0.
         -6    2    1    2    0  502  0.38445324532E+02 -0.50478940149E+01  0.18336973231E+03  0.25187373757E+03  0.16826287986E+03 0.  0.
        -24    2    5    5    0    0  0.33027431449E+01  0.59269902286E+02  0.10237293289E+03  0.14253778071E+03  0.79454213930E+02 0.  0.
          5    1    3    3  501    0  0.18487795941E+01 -0.53997019064E+02 -0.22950746869E+03  0.23582803955E+03  0.47000000000E+01 0. -1.
        -13    1    4    4    0    0 -0.36917556928E+02  0.14282209400E+02 -0.18275038088E+02  0.43598905170E+02  0.00000000000E+00 0.  1.
         14    1    4    4    0    0 -0.33765471981E+01  0.44762703679E+02 -0.14689405096E+03  0.15360000950E+03  0.00000000000E+00 0. -1.
         -5    1    5    5    0  502  0.35142581387E+02 -0.64317796301E+02  0.80996799418E+02  0.10933595686E+03  0.47000000000E+01 0.  1.
         13    1    6    6    0    0 -0.25947778959E+02  0.63228975403E+01  0.67787887456E+02  0.72859206364E+02  0.00000000000E+00 0. -1.
        -14    1    6    6    0    0  0.29250522104E+02  0.52947004745E+02  0.34585045435E+02  0.69678574344E+02  0.00000000000E+00 0.  1.
</event>
<event>
12    1  0.8462562E-002  0.2159813E+03  0.7818608E-02  0.1136987E+00
         21   -1    0    0  503  502  0.00000000000E+00  0.00000000000E+00  0.16364352037E+04  0.16364352037E+04  0.00000000000E+00 0.  1.
         21   -1    0    0  501  503 -0.00000000000E+00 -0.00000000000E+00 -0.72538957469E+02  0.72538957469E+02  0.00000000000E+00 0. -1.
          6    2    1    2  501    0  0.73782088626E+02 -0.10740676403E+03  0.11609224165E+03  0.24520463772E+03  0.17224371172E+03 0.  0.
         24    2    3    3    0    0  0.11712658857E+03 -0.67519920389E+02  0.68307606565E+02  0.16921011607E+03  0.75422522266E+02 0.  0.
         -6    2    1    2    0  502 -0.73782088626E+02  0.10740676403E+03  0.14478040045E+04  0.14637695234E+04  0.17176953318E+03 0.  0.
        -24    2    5    5    0    0  0.43633840777E+01  0.11115807281E+03  0.96326386513E+03  0.97293144020E+03  0.79643940146E+02 0.  0.
          5    1    3    3  501    0 -0.43344499948E+02 -0.39886843638E+02  0.47784635087E+02  0.75994521655E+02  0.47000000000E+01 0. -1.
        -11    1    4    4    0    0  0.44242685580E+02  0.97691371093E+01  0.36891997639E+02  0.58428338646E+02  0.00000000000E+00 0.  1.
         12    1    4    4    0    0  0.72883902994E+02 -0.77289057498E+02  0.31415608926E+02  0.11078177742E+03  0.00000000000E+00 0. -1.
         -5    1    5    5    0  502 -0.78145472704E+02 -0.37513087827E+01  0.48454013941E+03  0.49083808321E+03  0.47000000000E+01 0.  1.
         11    1    6    6    0    0 -0.88086446249E+01  0.42376316567E+01  0.11512467095E+02  0.15102537561E+02  0.00000000000E+00 0. -1.
        -12    1    6    6    0    0  0.13172028703E+02  0.10692044115E+03  0.95175139803E+03  0.95782890264E+03  0.00000000000E+00 0.  1.
</event>
<event>
12    1  0.8462562E-002  0.1988146E+03  0.7818608E-02  0.1150853E+00
         21   -1    0    0  503  502  0.00000000000E+00  0.00000000000E+00  0.58653910779E+03  0.58653910779E+03  0.00000000000E+00 0.  1.
         21   -1    0    0  501  503 -0.00000000000E+00 -0.00000000000E+00 -0.15287856674E+03  0.15287856674E+03  0.00000000000E+00 0.  1.
          6    2    1    2  501    0 -0.80473402933E+02  0.59335170739E+02 -0.59793094638E+02  0.20761135964E+03  0.17184478874E+03 0.  0.
         24    2    3    3    0    0  0.27296848921E+01 -0.90149451851E+01 -0.56439092327E+02  0.99778936397E+02  0.81741938988E+02 0.  0.
         -6    2    1    2    0  502  0.80473402933E+02 -0.59335170739E+02  0.49345363569E+03  0.53180631489E+03  0.17124495587E+03 0.  0.
        -24    2    5    5    0    0 -0.15062383602E+02 -0.19583081172E+02  0.12558969045E+03  0.14963712809E+03  0.77512110578E+02 0.  0.
          5    1    3    3  501    0 -0.83203087825E+02  0.68350115924E+02 -0.33540023105E+01  0.10783242324E+03  0.47000000000E+01 0. -1.
        -11    1    4    4    0    0  0.10268261156E+02  0.21914741539E+02 -0.62811280020E+02  0.67312331571E+02  0.00000000000E+00 0.  1.
         12    1    4    4    0    0 -0.75385762641E+01 -0.30929686724E+02  0.63721876923E+01  0.32466604826E+02  0.00000000000E+00 0. -1.
         -5    1    5    5    0  502  0.95535786534E+02 -0.39752089567E+02  0.36786394524E+03  0.38216918680E+03  0.47000000000E+01 0.  1.
         11    1    6    6    0    0  0.25494814262E+02 -0.24088882587E+02  0.31758373457E+02  0.47316530972E+02  0.00000000000E+00 0. -1.
        -12    1    6    6    0    0 -0.40557197864E+02  0.45058014158E+01  0.93831316994E+02  0.10232059711E+03  0.00000000000E+00 0.  1.
</event>
<event>
12    1  0.8462562E-002  0.1790210E+03  0.7818608E-02  0.1169109E+00
         21   -1    0    0  503  502  0.00000000000E+00  0.00000000000E+00  0.62718120034E+02  0.62718120034E+02  0.00000000000E+00 0. -1.
         21   -1    0    0  501  503 -0.00000000000E+00 -0.00000000000E+00 -0.55293234038E+03  0.55293234038E+03  0.00000000000E+00 0. -1.
          6    2    1    2  501    0  0.42307653355E+02  0.15181588155E+02 -0.33304640564E+03  0.37742736351E+03  0.17178791651E+03 0.  0.
         24    2    3    3    0    0 -0.34458600163E+02  0.27459992441E+02 -0.14220805504E+03  0.17130802198E+03  0.84745862235E+02 0.  0.
         -6    2    1    2    0  502 -0.42307653355E+02 -0.15181588155E+02 -0.15716781470E+03  0.23822309691E+03  0.17328619036E+03 0.  0.
        -24    2    5    5    0    0 -0.86748242380E+02  0.22923442775E+02 -0.11257362359E+03  0.16448239433E+03  0.79566924869E+02 0.  0.
          5    1    3    3  501    0  0.76766253518E+02 -0.12278404286E+02 -0.19083835060E+03  0.20611934153E+03  0.47000000000E+01 0. -1.
        -13    1    4    4    0    0 -0.38377213806E+02  0.51056345629E+02 -0.67788244782E+02  0.93138644499E+02  0.00000000000E+00 0.  1.
         14    1    4    4    0    0  0.39186136431E+01 -0.23596353188E+02 -0.74419810258E+02  0.78169377480E+02  0.00000000000E+00 0. -1.
         -5    1    5    5    0  502  0.44440589026E+02 -0.38105030930E+02 -0.44594191118E+02  0.73740702577E+02  0.47000000000E+01 0.  1.
         13    1    6    6    0    0 -0.72538608094E+02  0.25199956583E+02 -0.32938372226E+02  0.83557308723E+02  0.00000000000E+00 0. -1.
        -14    1    6    6    0    0 -0.14209634286E+02 -0.22765138083E+01 -0.79635251360E+02  0.80925085609E+02  0.00000000000E+00 0.  1.
</event>
<event>
12    1  0.8462562E-002  0.3045532E+03  0.7818608E-02  0.1083290E+00
         21   -1    0    0  501  502  0.00000000000E+00  0.00000000000E+00  0.10039796799E+04  0.10039796799E+04  0.00000000000E+00 0. -1.
         21   -1    0    0  502  503 -0.00000000000E+00 -0.00000000000E+00 -0.95738516088E+02  0.95738516088E+02  0.00000000000E+00 0.  1.
         -6    2    1    2    0  503 -0.23027404034E+03  0.10012234117E+03  0.34208897462E+03  0.45801475341E+03  0.17234277161E+03 0.  0.
        -24    2    3    3    0    0 -0.19802854622E+03  0.10203149291E+03  0.35167637282E+03  0.42399380464E+03  0.80428505534E+02 0.  0.
          6    2    1    2  501    0  0.23027404034E+03 -0.10012234117E+03  0.56615218915E+03  0.64170344254E+03  0.16794162685E+03 0.  0.
         24    2    5    5    0    0  0.45030391541E+02 -0.96777896749E+01  0.22733389029E+03  0.24507344372E+03  0.79113206036E+02 0.  0.
          5    1    5    5  501    0  0.18524364880E+03 -0.90444551498E+02  0.33881829886E+03  0.39662999881E+03  0.47000000000E+01 0. -1.
        -11    1    6    6    0    0  0.28845589809E+02  0.29010037513E+02  0.60387598297E+02  0.72940471317E+02  0.00000000000E+00 0.  1.
         12    1    6    6    0    0  0.16184801732E+02 -0.38687827188E+02  0.16694629199E+03  0.17213297241E+03  0.00000000000E+00 0. -1.
         -5    1    3    3    0  503 -0.32245494113E+02 -0.19091517395E+01 -0.95873982040E+01  0.34020948771E+02  0.47000000000E+01 0.  1.
         13    1    4    4    0    0 -0.40583330640E+02  0.56687803341E+02  0.13919100085E+03  0.15567481649E+03  0.00000000000E+00 0. -1.
        -14    1    4    4    0    0 -0.15744521558E+03  0.45343689572E+02  0.21248537198E+03  0.26831898814E+03  0.00000000000E+00 0.  1.
</event>
<event>
12    1  0.8462562E-002  0.2216030E+03  0.7818608E-02  0.1133235E+00
         21   -1    0    0  503  502  0.00000000000E+00  0.00000000000E+00  0.90784030429E+03  0.90784030429E+03  0.00000000000E+00 0. -1.
         21   -1    0    0  501  503 -0.00000000000E+00 -0.00000000000E+00 -0.11338257799E+03  0.11338257799E+03  0.00000000000E+00 0.  1.
          6    2    1    2  501    0  0.49228371530E+02  0.12957783666E+03  0.24559091356E+02  0.22006633599E+03  0.16915139654E+03 0.  0.
         24    2    3    3    0    0  0.28651153899E+02  0.11921626564E+03  0.73938868948E+02  0.16537413843E+03  0.82754109899E+02 0.  0.
         -6    2    1    2    0  502 -0.49228371530E+02 -0.12957783666E+03  0.76989863495E+03  0.80115654629E+03  0.17289897411E+03 0.  0.
        -24    2    5    5    0    0 -0.28111686699E+02 -0.44200985998E+02  0.62013246743E+03  0.62741214798E+03  0.79609874947E+02 0.  0.
          5    1    3    3  501    0  0.20577217630E+02  0.10361571022E+02 -0.49379777592E+02  0.54692197565E+02  0.47000000000E+01 0. -1.
        -13    1    4    4    0    0  0.31814987141E+02  0.11377661305E+03  0.31223127941E+02  0.12219736005E+03  0.00000000000E+00 0.  1.
         14    1    4    4    0    0 -0.31638332411E+01  0.54396525881E+01  0.42715741007E+02  0.43176778375E+02  0.00000000000E+00 0. -1.
         -5    1    5    5    0  502 -0.21116684831E+02 -0.85376850667E+02  0.14976616752E+03  0.17374439830E+03  0.47000000000E+01 0.  1.
         11    1    6    6    0    0  0.21334675600E+02  0.53831172671E+01  0.22954879221E+03  0.23060094175E+03  0.00000000000E+00 0. -1.
        -12    1    6    6    0    0 -0.49446362298E+02 -0.49584103265E+02  0.39058367522E+03  0.39681120623E+03  0.00000000000E+00 0.  1.
</event>
<event>
12    1  0.8462562E-002  0.2203703E+03  0.7818608E-02  0.1134177E+00
         21   -1    0    0  501  502  0.00000000000E+00  0.00000000000E+00  0.21556438009E+04  0.21556438009E+04  0.00000000000E+00 0. -1.
         21   -1    0    0  502  503 -0.00000000000E+00 -0.00000000000E+00 -0.55402721323E+02  0.55402721323E+02  0.00000000000E+00 0. -1.
         -6    2    1    2    0  503 -0.10086916302E+03 -0.92041044846E+02  0.19160855931E+03  0.28973416185E+03  0.16907366015E+03 0.  0.
        -24    2    3    3    0    0 -0.65524401440E+02 -0.60384746353E+02  0.20299705176E+03  0.24071211410E+03  0.93780350159E+02 0.  0.
          6    2    1    2  501    0  0.10086916302E+03  0.92041044846E+02  0.19086325203E+04  0.19213123604E+04  0.17296516039E+03 0.  0.
         24    2    5    5    0    0 -0.31314025778E+01  0.21505280488E+02  0.10746614725E+04  0.10779137534E+04  0.80799112356E+02 0.  0.
          5    1    5    5  501    0  0.10400056560E+03  0.70535764359E+02  0.83397104776E+03  0.84339860695E+03  0.47000000000E+01 0. -1.
        -13    1    6    6    0    0 -0.38509478712E+02  0.25020988258E+02  0.48052073027E+03  0.48271026716E+03  0.00000000000E+00 0.  1.
         14    1    6    6    0    0  0.35378076135E+02 -0.35157077705E+01  0.59414074225E+03  0.59520348628E+03  0.00000000000E+00 0. -1.
         -5    1    3    3    0  503 -0.35344761584E+02 -0.31656298494E+02 -0.11388492446E+02  0.49022047753E+02  0.47000000000E+01 0.  1.
         13    1    4    4    0    0 -0.32819874359E+02 -0.55582303456E+02  0.43529584724E+02  0.77854745242E+02  0.00000000000E+00 0. -1.
        -14    1    4    4    0    0 -0.32704527081E+02 -0.48024428967E+01  0.15946746703E+03  0.16285736886E+03  0.00000000000E+00 0.  1.
</event>
<event>
12    1  0.8462562E-002  0.1773316E+03  0.7818608E-02  0.1171711E+00
         21   -1    0    0  501  502  0.00000000000E+00  0.00000000000E+00  0.11115456135E+03  0.11115456135E+03  0.00000000000E+00 0. -1.
         21   -1    0    0  502  503 -0.00000000000E+00 -0.00000000000E+00 -0.31696515682E+03  0.31696515682E+03  0.00000000000E+00 0. -1.
         -6    2    1    2    0  503  0.18678509908E+02  0.71567625002E+00 -0.17974855876E+03  0.24888318630E+03  0.17112538421E+03 0.  0.
        -24    2    3    3    0    0 -0.24393734307E+02  0.44849094707E+02 -0.53291866630E+02  0.10811258628E+03  0.79005143461E+02 0.  0.
          6    2    1    2  501    0 -0.18678509908E+02 -0.71567625002E+00 -0.26062036709E+02  0.17923653186E+03  0.17634371458E+03 0.  0.
         24    2    5    5    0    0 -0.23606320307E+02  0.60342205532E+02  0.11761022674E+02  0.10709069301E+03  0.84449125205E+02 0.  0.
          5    1    5    5  501    0  0.49278103984E+01 -0.61057881782E+02 -0.37823059383E+02  0.72145838855E+02  0.47000000000E+01 0. -1.
        -13    1    6    6    0    0 -0.46204266811E+02  0.39406119949E+02 -0.18927580923E+02  0.63607624390E+02  0.00000000000E+00 0.  1.
         14    1    6    6    0    0  0.22597946504E+02  0.20936085583E+02  0.30688603597E+02  0.43483068619E+02  0.00000000000E+00 0. -1.
         -5    1    3    3    0  503  0.43072244215E+02 -0.44133418457E+02 -0.12645669213E+03  0.14077060003E+03  0.47000000000E+01 0.  1.
         11    1    4    4    0    0 -0.13535321624E+02  0.14506564464E+02 -0.69331673227E+02  0.72114674349E+02  0.00000000000E+00 0. -1.
        -12    1    4    4    0    0 -0.10858412683E+02  0.30342530243E+02  0.16039806597E+02  0.35997911929E+02  0.00000000000E+00 0.  1.
</event>
<event>
12    1  0.8462562E-002  0.2597941E+03  0.7818608E-02  0.1108271E+00
         21   -1    0    0  501  502  0.00000000000E+00  0.00000000000E+00  0.37419598263E+03  0.37419598263E+03  0.00000000000E+00 0. -1.
         21   -1    0    0  502  503 -0.00000000000E+00 -0.00000000000E+00 -0.20163618491E+03  0.20163618491E+03  0.00000000000E+00 0.  1.
         -6    2    1    2    0  503 -0.12185122732E+03  0.14055360044E+03 -0.17692252080E+02  0.25382472564E+03  0.17178748314E+03 0.  0.
        -24    2    3    3    0    0 -0.74240032093E+02  0.15236889578E+03 -0.51092995199E+02  0.19429215676E+03  0.80069252870E+02 0.  0.
          6    2    1    2  501    0  0.12185122732E+03 -0.14055360044E+03  0.19025204980E+03  0.32200744190E+03  0.18135576636E+03 0.  0.
         24    2    5    5    0    0  0.10626905609E+03 -0.54042364800E+02  0.18494530031E+03  0.23381872640E+03  0.79074289339E+02 0.  0.
          5    1    5    5  501    0  0.15582171234E+02 -0.86511235638E+02  0.53067494905E+01  0.88188715504E+02  0.47000000000E+01 0. -1.
        -11    1    6    6    0    0  0.85618299734E+02 -0.76480865886E+01  0.14751306823E+03  0.17073105100E+03  0.00000000000E+00 0.  1.
         12    1    6    6    0    0  0.20650756356E+02 -0.46394278211E+02  0.37432232076E+02  0.63087675396E+02  0.00000000000E+00 0. -1.
         -5    1    3    3    0  503 -0.47611195231E+02 -0.11815295344E+02  0.33400743120E+02  0.59532568871E+02  0.47000000000E+01 0.  1.
         13    1    4    4    0    0  0.95746448063E+01  0.64993384039E+02 -0.10110703835E+02  0.66468339261E+02  0.00000000000E+00 0. -1.
        -14    1    4    4    0    0 -0.83814676899E+02  0.87375511742E+02 -0.40982291365E+02  0.12782381750E+03  0.00000000000E+00 0.  1.
</event>
<event>
12    1  0.8462562E-002  0.2188530E+03  0.7818608E-02  0.1134797E+00
         21   -1    0    0  503  502  0.00000000000E+00  0.00000000000E+00  0.54755500528E+03  0.54755500528E+03  0.00000000000E+00 0. -1.
         21   -1    0    0  501  503 -0.00000000000E+00 -0.00000000000E+00 -0.10509923413E+03  0.10509923413E+03  0.00000000000E+00 0. -1.
          6    2    1    2  501    0  0.11695978543E+03 -0.68249372847E+02  0.87265355511E+02  0.23560962752E+03  0.17192756034E+03 0.  0.
         24    2    3    3    0    0  0.68104415729E+02  0.72176891954E+01  0.99151472162E+02  0.14480492295E+03  0.80294114354E+02 0.  0.
         -6    2    1    2    0  502 -0.11695978543E+03  0.68249372847E+02  0.35519041564E+03  0.41704461190E+03  0.17154710330E+03 0.  0.
        -24    2    5    5    0    0 -0.14449559091E+03  0.60522147381E+02  0.23988654886E+03  0.29815389616E+03  0.82512322416E+02 0.  0.
          5    1    3    3  501    0  0.48855369702E+02 -0.75467062043E+02 -0.11886116650E+02  0.90804704565E+02  0.47000000000E+01 0. -1.
        -13    1    4    4    0    0 -0.42932330209E+00 -0.26629366038E+02  0.13010530295E+02  0.29640873008E+02  0.00000000000E+00 0.  1.
         14    1    4    4    0    0  0.68533739031E+02  0.33847055234E+02  0.86140941866E+02  0.11516404994E+03  0.00000000000E+00 0. -1.
         -5    1    5    5    0  502  0.27535805482E+02  0.77272254659E+01  0.11530386678E+03  0.11889071575E+03  0.47000000000E+01 0.  1.
         11    1    6    6    0    0 -0.50403230317E+02 -0.18975345308E+02  0.70756108215E+02  0.88921179736E+02  0.00000000000E+00 0. -1.
        -12    1    6    6    0    0 -0.94092360596E+02  0.79497492690E+02  0.16913044065E+03  0.20923271642E+03  0.00000000000E+00 0.  1.
</event>
<event>
12    1  0.8462562E-002  0.2030762E+03  0.7818608E-02  0.1147725E+00
         21   -1    0    0  503  502  0.00000000000E+00  0.00000000000E+00  0.67653849153E+02  0.67653849153E+02  0.00000000000E+00 0. -1.
         21   -1    0    0  501  503 -0.00000000000E+00 -0.00000000000E+00 -0.76839106282E+03  0.76839106282E+03  0.00000000000E+00 0. -1.
          6    2    1    2  501    0  0.10216377284E+03 -0.10525106748E+02 -0.54331626152E+03  0.57909879275E+03  0.17208903911E+03 0.  0.
         24    2    3    3    0    0  0.70396816561E+02  0.10656952497E+02 -0.15815590867E+03  0.19202204771E+03  0.82400806674E+02 0.  0.
         -6    2    1    2    0  502 -0.10216377284E+03  0.10525106748E+02 -0.15742095214E+03  0.25694611921E+03  0.17519057525E+03 0.  0.
        -24    2    5    5    0    0 -0.11446555229E+03  0.37632175770E+02 -0.61130527105E+02  0.15604982136E+03  0.78077282786E+02 0.  0.
          5    1    3    3  501    0  0.31766956277E+02 -0.21182059245E+02 -0.38516035285E+03  0.38707674504E+03  0.47000000000E+01 0. -1.
        -11    1    4    4    0    0  0.69167640789E+02 -0.24756494345E+02 -0.10695897186E+03  0.12975849955E+03  0.00000000000E+00 0.  1.
         12    1    4    4    0    0  0.12291757714E+01  0.35413446842E+02 -0.51196936809E+02  0.62263548156E+02  0.00000000000E+00 0. -1.
         -5    1    5    5    0  502  0.12301779450E+02 -0.27107069021E+02 -0.96290425033E+02  0.10089629786E+03  0.47000000000E+01 0.  1.
         13    1    6    6    0    0 -0.71912056529E+02  0.57967165106E+02 -0.22453741988E+02  0.95056334002E+02  0.00000000000E+00 0. -1.
        -14    1    6    6    0    0 -0.42553495759E+02 -0.20334989336E+02 -0.38676785117E+02  0.60993487354E+02  0.00000000000E+00 0.  1.
</event>
<event>
12    1  0.8462562E-002  0.2091398E+03  0.7818608E-02  0.1142391E+00
         21   -1    0    0  501  502  0.00000000000E+00  0.00000000000E+00  0.13206467733E+04  0.13206467733E+04  0.00000000000E+00 0. -1.
         21   -1    0    0  502  503 -0.00000000000E+00 -0.00000000000E+00 -0.33322504443E+02  0.33322504443E+02  0.00000000000E+00 0. -1.
         -6    2    1    2    0  503 -0.88048795095E+01  0.11865425914E+03  0.57884413493E+03  0.61546729942E+03  0.17199739823E+03 0.  0.
        -24    2    3    3    0    0  0.11044234069E+02  0.15098464537E+03  0.46708403115E+03  0.49735018812E+03  0.79192040211E+02 0.  0.
          6    2    1    2  501    0  0.88048795095E+01 -0.11865425914E+03  0.70848013394E+03  0.73850197833E+03  0.17112776719E+03 0.  0.
         24    2    5    5    0    0 -0.37573927467E+01 -0.15023926401E+03  0.56363201906E+03  0.58964469904E+03  0.86103796317E+02 0.  0.
          5    1    5    5  501    0  0.12562272256E+02  0.31585004866E+02  0.14484811487E+03  0.14885727929E+03  0.47000000000E+01 0. -1.
        -13    1    6    6    0    0 -0.16828895143E+01  0.48654329037E+01  0.95612160019E-01  0.51491451856E+01  0.00000000000E+00 0.  1.
         14    1    6    6    0    0 -0.20745032324E+01 -0.15510469691E+03  0.56353640690E+03  0.58449555385E+03  0.00000000000E+00 0. -1.
         -5    1    3    3    0  503 -0.19849113579E+02 -0.32330386224E+02  0.11176010378E+03  0.11811711130E+03  0.47000000000E+01 0.  1.
         11    1    4    4    0    0 -0.57859919557E+00  0.15278034834E+03  0.45698649224E+03  0.48184937866E+03  0.00000000000E+00 0. -1.
        -12    1    4    4    0    0  0.11622833265E+02 -0.17957029795E+01  0.10097538903E+02  0.15500809469E+02  0.00000000000E+00 0.  1.
</event>
<event>
12    1  0.8462562E-002  0.2339533E+03  0.7818608E-02  0.1124251E+00
         21   -1    0    0  503  502  0.00000000000E+00  0.00000000000E+00  0.15406024533E+04  0.15406024533E+04  0.00000000000E+00 0. -1.
         21   -1    0    0  501  503 -0.00000000000E+00 -0.00000000000E+00 -0.38074188944E+02  0.38074188944E+02  0.00000000000E+00 0. -1.
          6    2    1    2  501    0  0.10231675328E+03 -0.11809439545E+03  0.53162491497E+03  0.57998376166E+03  0.17129246725E+03 0.  0.
         24    2    3    3    0    0  0.24632206141E+02 -0.12845987949E+03  0.35398703336E+03  0.38576831659E+03  0.80010549776E+02 0.  0.
         -6    2    1    2    0  502 -0.10231675328E+03  0.11809439545E+03  0.97090334934E+03  0.99869288053E+03  0.17412395481E+03 0.  0.
        -24    2    5    5    0    0 -0.16021635643E+02  0.89069854736E+02  0.75562452086E+03  0.76490593633E+03  0.76958060477E+02 0.  0.
          5    1    3    3  501    0  0.77684547136E+02  0.10365484048E+02  0.17763788161E+03  0.19421544508E+03  0.47000000000E+01 0. -1.
        -13    1    4    4    0    0 -0.76284394079E+01 -0.13321082337E+02  0.13833974817E+03  0.13918882946E+03  0.00000000000E+00 0.  1.
         14    1    4    4    0    0  0.32260645549E+02 -0.11513879716E+03  0.21564728520E+03  0.24657948713E+03  0.00000000000E+00 0. -1.
         -5    1    5    5    0  502 -0.86295117634E+02  0.29024540711E+02  0.21527882848E+03  0.23378694421E+03  0.47000000000E+01 0.  1.
         13    1    6    6    0    0 -0.25671624504E+02  0.13820142773E+02  0.41084709540E+03  0.41188027927E+03  0.00000000000E+00 0. -1.
        -14    1    6    6    0    0  0.96499888614E+01  0.75249711963E+02  0.34477742546E+03  0.35302565706E+03  0.00000000000E+00 0.  1.
</event>
<event>
12    1  0.8462562E-002  0.1740673E+03  0.7818608E-02  0.1177120E+00
         21   -1    0    0  501  502  0.00000000000E+00  0.00000000000E+00  0.58433276234E+03  0.58433276234E+03  0.00000000000E+00 0. -1.
         21   -1    0    0  502  503 -0.00000000000E+00 -0.00000000000E+00 -0.74950652114E+02  0.74950652114E+02  0.00000000000E+00 0. -1.
         -6    2    1    2    0  503  0.22585546593E+02 -0.38352595134E+01  0.63597579676E+02  0.18532155400E+03  0.17255320949E+03 0.  0.
        -24    2    3    3    0    0 -0.30675700665E+02 -0.49578342516E+02  0.57523770969E+02  0.11469456727E+03  0.80292271585E+02 0.  0.
          6    2    1    2  501    0 -0.22585546593E+02  0.38352595134E+01  0.44578453055E+03  0.47396186046E+03  0.15934610557E+03 0.  0.
         24    2    5    5    0    0  0.46644425394E+02 -0.56595451383E+00  0.26772509560E+03  0.28280901041E+03  0.78282736481E+02 0.  0.
          5    1    5    5  501    0 -0.69229971987E+02  0.44012140272E+01  0.17805943495E+03  0.19115285004E+03  0.47000000000E+01 0. -1.
        -11    1    6    6    0    0  0.33632352461E+02 -0.38175033957E+02  0.13606550749E+03  0.14526627509E+03  0.00000000000E+00 0.  1.
         12    1    6    6    0    0  0.13012072932E+02  0.37609079444E+02  0.13165958812E+03  0.13754273533E+03  0.00000000000E+00 0. -1.
         -5    1    3    3    0  503  0.53261247258E+02  0.45743083003E+02  0.60738087067E+01  0.70626986728E+02  0.47000000000E+01 0.  1.
         11    1    4    4    0    0 -0.75083556681E+00 -0.33573257391E+02 -0.13331945418E+02  0.36131262565E+02  0.00000000000E+00 0. -1.
        -12    1    4    4    0    0 -0.29924865098E+02 -0.16005085125E+02  0.70855716387E+02  0.78563304703E+02  0.00000000000E+00 0.  1.
</event>
<event>
12    1  0.8462562E-002  0.2323112E+03  0.7818608E-02  0.1126207E+00
         21   -1    0    0  501  502  0.00000000000E+00  0.00000000000E+00  0.70839591627E+02  0.70839591627E+02  0.00000000000E+00 0. -1.
         21   -1    0    0  502  503 -0.00000000000E+00 -0.00000000000E+00 -0.16740164887E+04  0.16740164887E+04  0.00000000000E+00 0.  1.
         -6    2    1    2    0  503  0.69505061263E+02 -0.13689655747E+03 -0.14480353850E+04  0.14655043649E+04  0.16530259028E+03 0.  0.
        -24    2    3    3    0    0 -0.76108245802E+01 -0.11608701741E+03 -0.77485740813E+03  0.78758801656E+03  0.79729295979E+02 0.  0.
          6    2    1    2  501    0 -0.69505061263E+02  0.13689655747E+03 -0.15514151214E+03  0.27935171549E+03  0.17434698498E+03 0.  0.
         24    2    5    5    0    0  0.36515872203E+01  0.17035981014E+02 -0.17172794401E+02  0.82435717969E+02  0.78722195036E+02 0.  0.
          5    1    5    5  501    0 -0.73156648483E+02  0.11986057645E+03 -0.13796871774E+03  0.19691599752E+03  0.47000000000E+01 0. -1.
        -13    1    6    6    0    0 -0.75753707198E+00  0.21313904294E+02  0.28920965948E+02  0.35934365863E+02  0.00000000000E+00 0.  1.
         14    1    6    6    0    0  0.44091242923E+01 -0.42779232791E+01 -0.46093760348E+02  0.46501352106E+02  0.00000000000E+00 0. -1.
         -5    1    3    3    0  503  0.77115885843E+02 -0.20809540057E+02 -0.67317797684E+03  0.67791634832E+03  0.47000000000E+01 0.  1.
         11    1    4    4    0    0 -0.12003499721E+02  0.38050365165E+01 -0.19731052987E+03  0.19771193061E+03  0.00000000000E+00 0. -1.
        -12    1    4    4    0    0  0.43926751409E+01 -0.11989205392E+03 -0.57754687825E+03  0.58987608595E+03  0.00000000000E+00 0.  1.
</event>
<event>
12    1  0.8462562E-002  0.1902849E+03  0.7818608E-02  0.1158345E+00
         21   -1    0    0  503  502  0.00000000000E+00  0.00000000000E+00  0.21737432922E+02  0.21737432922E+02  0.00000000000E+00 0. -1.
         21   -1    0    0  501  503 -0.00000000000E+00 -0.00000000000E+00 -0.17409040665E+04  0.17409040665E+04  0.00000000000E+00 0. -1.
          6    2    1    2  501    0  0.51056851334E+02 -0.60771798128E+02 -0.10479277867E+04  0.10649524998E+04  0.17225320701E+03 0.  0.
         24    2    3    3    0    0 -0.23769204808E+02  0.11856151955E+01 -0.32999751033E+03  0.34046396892E+03  0.80317971407E+02 0.  0.
         -6    2    1    2    0  502 -0.51056851334E+02  0.60771798128E+02 -0.67123884689E+03  0.69768899956E+03  0.17294027010E+03 0.  0.
        -24    2    5    5    0    0  0.90760227850E+01  0.51032803043E+02 -0.19432290586E+03  0.21687540223E+03  0.81159270412E+02 0.  0.
          5    1    3    3  501    0  0.74826056142E+02 -0.61957413324E+02 -0.71793027634E+03  0.72448853092E+03  0.47000000000E+01 0. -1.
        -11    1    4    4    0    0 -0.40680744492E+02 -0.11775941985E+02 -0.89391096933E+02  0.98915944078E+02  0.00000000000E+00 0.  1.
         12    1    4    4    0    0  0.16911539684E+02  0.12961557180E+02 -0.24060641339E+03  0.24154802484E+03  0.00000000000E+00 0. -1.
         -5    1    5    5    0  502 -0.60132874119E+02  0.97389950849E+01 -0.47691594102E+03  0.48081359733E+03  0.47000000000E+01 0.  1.
         11    1    6    6    0    0 -0.18700268232E+02  0.30767463705E+02 -0.24364006483E+02  0.43473459336E+02  0.00000000000E+00 0. -1.
        -12    1    6    6    0    0  0.27776291017E+02  0.20265339338E+02 -0.16995889938E+03  0.17340194290E+03  0.00000000000E+00 0.  1.
</event>
<event>
12    1  0.8462562E-002  0.2428934E+03  0.7818608E-02  0.1117893E+00
         21   -1    0    0  501  502  0.00000000000E+00  0.00000000000E+00  0.55742918157E+03  0.55742918157E+03  0.00000000000E+00 0.  1.
         21   -1    0    0  502  503 -0.00000000000E+00 -0.00000000000E+00 -0.11142190346E+03  0.11142190346E+03  0.00000000000E+00 0.  1.
         -6    2    1    2    0  503 -0.13455884467E+03 -0.10681817815E+03  0.29813528153E+03  0.38455409765E+03  0.17170032635E+03 0.  0.
        -24    2    3    3    0    0 -0.11353654782E+03 -0.30618447239E+02  0.26063462643E+03  0.29693717527E+03  0.80082710729E+02 0.  0.
          6    2    1    2  501    0  0.13455884467E+03  0.10681817815E+03  0.14787199658E+03  0.28429698739E+03  0.17158800599E+03 0.  0.
         24    2    5    5    0    0  0.64155274965E+02 -0.16455773513E+02  0.65034924393E+02  0.11986706215E+03  0.75841145882E+02 0.  0.
          5    1    5    5  501    0  0.70403569709E+02  0.12327395166E+03  0.82837072189E+02  0.16442992524E+03  0.47000000000E+01 0. -1.
        -11    1    6    6    0    0  0.58859401799E+00  0.23537733184E+02  0.26526223659E+02  0.35468463006E+02  0.00000000000E+00 0.  1.
         12    1    6    6    0    0  0.63566680947E+02 -0.39993506697E+02  0.38508700734E+02  0.84398599140E+02  0.00000000000E+00 0. -1.
         -5    1    3    3    0  503 -0.21022296851E+02 -0.76199730909E+02  0.37500655091E+02  0.87616922382E+02  0.47000000000E+01 0.  1.
         11    1    4    4    0    0 -0.10940616504E+03 -0.13402919561E+02  0.15716598207E+03  0.19196482262E+03  0.00000000000E+00 0. -1.
        -12    1    4    4    0    0 -0.41303827809E+01 -0.17215527677E+02  0.10346864436E+03  0.10497235265E+03  0.00000000000E+00 0.  1.
</event>
<event>
12    1  0.8462562E-002  0.2331911E+03  0.7818608E-02  0.1124731E+00
         21   -1    0    0  501  502  0.00000000000E+00  0.00000000000E+00  0.24222079191E+02  0.24222079191E+02  0.00000000000E+00 0.  1.
         21   -1    0    0  502  503 -0.00000000000E+00 -0.00000000000E+00 -0.22778774855E+04  0.22778774855E+04  0.00000000000E+00 0. -1.
         -6    2    1    2    0  503  0.14396756295E+03 -0.59749950629E+02 -0.12937799640E+04  0.13143045697E+04  0.17097716522E+03 0.  0.
        -24    2    3    3    0    0  0.28435618601E+02  0.11662811235E+02 -0.29271312949E+03  0.30405494224E+03  0.76313997099E+02 0.  0.
          6    2    1    2  501    0 -0.14396756295E+03  0.59749950629E+02 -0.95987544232E+03  0.98779499495E+03  0.17343982100E+03 0.  0.
         24    2    5    5    0    0 -0.37617511660E+02 -0.18704816836E+01 -0.21230573091E+03  0.23017373436E+03  0.80545941717E+02 0.  0.
          5    1    5    5  501    0 -0.10635005129E+03  0.61620432313E+02 -0.74756971141E+03  0.75762126059E+03  0.47000000000E+01 0. -1.
        -11    1    6    6    0    0 -0.37469899081E+02  0.33746907240E+01 -0.30879416243E+02  0.48671554548E+02  0.00000000000E+00 0.  1.
         12    1    6    6    0    0 -0.14761257937E+00 -0.52451724076E+01 -0.18142631467E+03  0.18150217981E+03  0.00000000000E+00 0. -1.
         -5    1    3    3    0  503  0.11553194435E+03 -0.71412761864E+02 -0.10010668345E+04  0.10102496275E+04  0.47000000000E+01 0.  1.
         13    1    4    4    0    0  0.27853160439E+02 -0.20552961689E+02 -0.23842702802E+03  0.24092669107E+03  0.00000000000E+00 0. -1.
        -14    1    4    4    0    0  0.58245816274E+00  0.32215772924E+02 -0.54286101469E+02  0.63128251166E+02  0.00000000000E+00 0.  1.
</event>
<event>
12    1  0.8462562E-002  0.1830779E+03  0.7818608E-02  0.1165155E+00
         21   -1    0    0  503  502  0.00000000000E+00  0.00000000000E+00  0.33281818667E+03  0.33281818667E+03  0.00000000000E+00 0.  1.
         21   -1    0    0  501  503 -0.00000000000E+00 -0.00000000000E+00 -0.10333493948E+03  0.10333493948E+03  0.00000000000E+00 0.  1.
          6    2    1    2  501    0  0.58252847992E+02 -0.15478267828E+02  0.15418487716E+03  0.23935432872E+03  0.17287147613E+03 0.  0.
         24    2    3    3    0    0 -0.10924880848E+01 -0.14007184425E+02  0.74250865002E+01  0.80973271914E+02  0.79398640475E+02 0.  0.
         -6    2    1    2    0  502 -0.58252847992E+02  0.15478267828E+02  0.75298370031E+02  0.19679879743E+03  0.17154285490E+03 0.  0.
        -24    2    5    5    0    0  0.28867174219E+02  0.35232322346E+02  0.41743586206E+02  0.10125752647E+03  0.80224244415E+02 0.  0.
          5    1    3    3  501    0  0.59345336077E+02 -0.14710834028E+01  0.14675979066E+03  0.15838105681E+03  0.47000000000E+01 0. -1.
        -11    1    4    4    0    0  0.16278224583E+02  0.16129858207E+02  0.31293433267E+02  0.38787006678E+02  0.00000000000E+00 0.  1.
         12    1    4    4    0    0 -0.17370712668E+02 -0.30137042633E+02 -0.23868346767E+02  0.42186265237E+02  0.00000000000E+00 0. -1.
         -5    1    5    5    0  502 -0.87120022210E+02 -0.19754054518E+02  0.33554783825E+02  0.95541270964E+02  0.47000000000E+01 0.  1.
         13    1    6    6    0    0  0.17621821394E+00 -0.22068637955E+02 -0.41240551027E+01  0.22451362198E+02  0.00000000000E+00 0. -1.
        -14    1    6    6    0    0  0.28690956005E+02  0.57300960300E+02  0.45867641309E+02  0.78806164271E+02  0.00000000000E+00 0.  1.
</event>
<event>
12    1  0.8462562E-002  0.2072557E+03  0.7818608E-02  0.1144707E+00
         21   -1    0    0  501  502  0.00000000000E+00  0.00000000000E+00  0.78406368521E+03  0.78406368521E+03  0.00000000000E+00 0.  1.
         21   -1    0    0  502  503 -0.00000000000E+00 -0.00000000000E+00 -0.10982474712E+03  0.10982474712E+03  0.00000000000E+00 0. -1.
         -6    2    1    2    0  503 -0.90148522637E+02 -0.71781855944E+02  0.19095120665E+02  0.20813345992E+03  0.17226584841E+03 0.  0.
        -24    2    3    3    0    0 -0.37146519202E+02 -0.61566358416E+02  0.73623286277E+02  0.13126357243E+03  0.81482861920E+02 0.  0.
          6    2    1    2  501    0  0.90148522637E+02  0.71781855944E+02  0.65514381743E+03  0.68575497241E+03  0.16663453930E+03 0.  0.
         24    2    5    5    0    0  0.91613215985E+02  0.87898504727E+01  0.28530829409E+03  0.31056096606E+03  0.81099002124E+02 0.  0.
          5    1    5    5  501    0 -0.14646933479E+01  0.62992005471E+02  0.36983552334E+03  0.37519400635E+03  0.47000000000E+01 0. -1.
        -13    1    6    6    0    0  0.92569381118E+02 -0.81351931312E+01  0.27599513692E+03  0.29121913964E+03  0.00000000000E+00 0.  1.
         14    1    6    6    0    0 -0.95616513256E+00  0.16925043604E+02  0.93131571760E+01  0.19341826422E+02  0.00000000000E+00 0. -1.
         -5    1    3    3    0  503 -0.53002003435E+02 -0.10215497528E+02 -0.54528165612E+02  0.76869887490E+02  0.47000000000E+01 0.  1.
         13    1    4    4    0    0 -0.48451805630E+02 -0.75116214021E+02  0.69275822961E+02  0.11308918040E+03  0.00000000000E+00 0. -1.
        -14    1    4    4    0    0  0.11305286428E+02  0.13549855605E+02  0.43474633158E+01  0.18174392023E+02  0.00000000000E+00 0.  1.
</event>
<event>
12    1  0.8462562E-002  0.2226343E+03  0.7818608E-02  0.1131987E+00
         21   -1    0    0  503  502  0.00000000000E+00  0.00000000000E+00  0.59933976727E+03  0.59933976727E+03  0.00000000000E+00 0.  1.
         21   -1    0    0  501  503 -0.00000000000E+00 -0.00000000000E+00 -0.96969506849E+02  0.96969506849E+02  0.00000000000E+00 0. -1.
          6    2    1    2  501    0 -0.12078912294E+03  0.72716260930E+02  0.11700254132E+03  0.25125388506E+03  0.17193386304E+03 0.  0.
         24    2    3    3    0    0 -0.75826261622E+02 -0.24563427880E+02  0.77445852419E+02  0.13692183186E+03  0.79979647671E+02 0.  0.
         -6    2    1    2    0  502  0.12078912294E+03 -0.72716260930E+02  0.38536771910E+03  0.44505538906E+03  0.17230308638E+03 0.  0.
        -24    2    5    5    0    0  0.36065017954E+02 -0.47988823166E+02  0.87006542105E+02  0.13387842641E+03  0.82156448434E+02 0.  0.
          5    1    3    3  501    0 -0.44962861322E+02  0.97279688811E+02  0.39556688901E+02  0.11433205321E+03  0.47000000000E+01 0. -1.
        -11    1    4    4    0    0 -0.91396418553E+02 -0.23130437155E+02  0.76226107899E+02  0.12123836840E+03  0.00000000000E+00 0.  1.
         12    1    4    4    0    0  0.15570156931E+02 -0.14329907249E+01  0.12197445198E+01  0.15683463456E+02  0.00000000000E+00 0. -1.
         -5    1    5    5    0  502  0.84724104990E+02 -0.24727437764E+02  0.29836117700E+03  0.31117696265E+03  0.47000000000E+01 0.  1.
         13    1    6    6    0    0  0.56702401024E+02 -0.92269707242E+01  0.43468038755E+02  0.72040055968E+02  0.00000000000E+00 0. -1.
        -14    1    6    6    0    0 -0.20637383069E+02 -0.38761852442E+02  0.43538503350E+02  0.61838370440E+02  0.00000000000E+00 0.  1.
</event>
<event>
12    1  0.8462562E-002  0.2053661E+03  0.7818608E-02  0.1145391E+00
         21   -1    0    0  501  502  0.00000000000E+00  0.00000000000E+00  0.50715174522E+03  0.50715174522E+03  0.00000000000E+00 0. -1.
         21   -1    0    0  502  503 -0.00000000000E+00 -0.00000000000E+00 -0.87990683043E+02  0.87990683043E+02  0.00000000000E+00 0.  1.
         -6    2    1    2    0  503  0.88782208624E+01  0.10877784095E+03  0.28097638203E+03  0.34802723525E+03  0.17396490374E+03 0.  0.
        -24    2    3    3    0    0  0.26419469206E+02 -0.20156527784E+02  0.11918285285E+03  0.14034718585E+03  0.66245801364E+02 0.  0.
          6    2    1    2  501    0 -0.88782208624E+01 -0.10877784095E+03  0.13818468015E+03  0.24711519301E+03  0.17337667462E+03 0.  0.
         24    2    5    5    0    0 -0.68639614620E+02 -0.41021703998E+02  0.73841296780E+02  0.13609952177E+03  0.81709031457E+02 0.  0.
          5    1    5    5  501    0  0.59761393757E+02 -0.67756136950E+02  0.64343383371E+02  0.11101567124E+03  0.47000000000E+01 0. -1.
        -11    1    6    6    0    0 -0.11413397130E+02 -0.54377152570E+02  0.35699765388E+02  0.66042513614E+02  0.00000000000E+00 0.  1.
         12    1    6    6    0    0 -0.57226217490E+02  0.13355448572E+02  0.38141531392E+02  0.70057008155E+02  0.00000000000E+00 0. -1.
         -5    1    3    3    0  503 -0.17541248344E+02  0.12893436873E+03  0.16179352918E+03  0.20768004940E+03  0.47000000000E+01 0.  1.
         11    1    4    4    0    0 -0.78579311258E+01  0.80866874275E+01  0.80985915735E+02  0.81767109174E+02  0.00000000000E+00 0. -1.
        -12    1    4    4    0    0  0.34277400332E+02 -0.28243215211E+02  0.38196937115E+02  0.58580076681E+02  0.00000000000E+00 0.  1.
</event>
<event>
12    1  0.8462562E-002  0.3672092E+03  0.7818608E-02  0.1055796E+00
         21   -1    0    0  503  502  0.00000000000E+00  0.00000000000E+00  0.14066079575E+04  0.14066079575E+04  0.00000000000E+00 0.  1.
         21   -1    0    0  501  503 -0.00000000000E+00 -0.00000000000E+00 -0.97948875333E+02  0.97948875333E+02  0.00000000000E+00 0.  1.
          6    2    1    2  501    0  0.28105353076E+03  0.16213945616E+03  0.54267308477E+03  0.65523784765E+03  0.17193681879E+03 0.  0.
         24    2    3    3    0    0  0.17505306624E+03  0.17526523023E+03  0.39189523224E+03  0.47040160867E+03  0.79588463114E+02 0.  0.
         -6    2    1    2    0  502 -0.28105353076E+03 -0.16213945616E+03  0.76598599736E+03  0.84931898515E+03  0.17125390505E+03 0.  0.
        -24    2    5    5    0    0 -0.91370601807E+02 -0.61963237503E+02  0.18242617841E+03  0.22756417768E+03  0.79486569425E+02 0.  0.
          5    1    3    3  501    0  0.10600046451E+03 -0.13125774077E+02  0.15077785253E+03  0.18483623897E+03  0.47000000000E+01 0. -1.
        -13    1    4    4    0    0  0.11460099623E+03  0.69711464274E+02  0.16214584831E+03  0.21043847727E+03  0.00000000000E+00 0.  1.
         14    1    4    4    0    0  0.60452070010E+02  0.10555376596E+03  0.22974938392E+03  0.25996313141E+03  0.00000000000E+00 0. -1.
         -5    1    5    5    0  502 -0.18968292895E+03 -0.10017621865E+03  0.58355981895E+03  0.62175480747E+03  0.47000000000E+01 0.  1.
         11    1    6    6    0    0 -0.81905212928E+02 -0.11889242064E+02  0.13248769914E+03  0.15621398275E+03  0.00000000000E+00 0. -1.
        -12    1    6    6    0    0 -0.94653888795E+01 -0.50073995439E+02  0.49938479264E+02  0.71350194934E+02  0.00000000000E+00 0.  1.
</event>
<event>
12    1  0.8462562E-002  0.1903661E+03  0.7818608E-02  0.1158653E+00
         21   -1    0    0  503  502  0.00000000000E+00  0.00000000000E+00  0.56676277970E+02  0.56676277970E+02  0.00000000000E+00 0. -1.
         21   -1    0    0  501  503 -0.00000000000E+00 -0.00000000000E+00 -0.63558352711E+03  0.63558352711E+03  0.00000000000E+00 0.  1.
          6    2    1    2  501    0 -0.51508484071E+02 -0.54698792230E+02 -0.26412483523E+03  0.32557821252E+03  0.17491186945E+03 0.  0.
         24    2    3    3    0    0  0.37237603116E+02 -0.14596619545E+02 -0.16885904979E+03  0.18926345865E+03  0.75548512207E+02 0.  0.
         -6    2    1    2    0  502  0.51508484071E+02  0.54698792230E+02 -0.31478241391E+03  0.36668159256E+03  0.17240168334E+03 0.  0.
        -24    2    5    5    0    0  0.61943376614E+02  0.18860528037E+01 -0.89209897605E+02  0.13472659146E+03  0.79701377110E+02 0.  0.
          5    1    3    3  501    0 -0.88746087187E+02 -0.40102172685E+02 -0.95265785445E+02  0.13631475387E+03  0.47000000000E+01 0. -1.
        -13    1    4    4    0    0  0.28438394322E+02  0.26875200100E+02 -0.10979835698E+03  0.11656199143E+03  0.00000000000E+00 0.  1.
         14    1    4    4    0    0  0.87992087940E+01 -0.41471819645E+02 -0.59060692811E+02  0.72701467217E+02  0.00000000000E+00 0. -1.
         -5    1    5    5    0  502 -0.10434892543E+02  0.52812739427E+02 -0.22557251630E+03  0.23195500111E+03  0.47000000000E+01 0.  1.
         11    1    6    6    0    0  0.20205454755E+02  0.38571509287E+02 -0.26652065311E+02  0.51052466306E+02  0.00000000000E+00 0. -1.
        -12    1    6    6    0    0  0.41737921859E+02 -0.36685456483E+02 -0.62557832294E+02  0.83674125151E+02  0.00000000000E+00 0.  1.
</event>
<event>
12    1  0.8462562E-002  0.2547695E+03  0.7818608E-02  0.1110468E+00
         21   -1    0    0  501  502  0.00000000000E+00  0.00000000000E+00  0.36858273877E+03  0.36858273877E+03  0.00000000000E+00 0. -1.
         21   -1    0    0  502  503 -0.00000000000E+00 -0.00000000000E+00 -0.36973297541E+03  0.36973297541E+03  0.00000000000E+00 0. -1.
         -6    2    1    2    0  503 -0.17709924040E+03  0.63925201867E+02 -0.26815915643E+03  0.36926113223E+03  0.17027588853E+03 0.  0.
        -24    2    3    3    0    0 -0.16585093258E+03  0.52692245731E+02 -0.13221755526E+03  0.23231255553E+03  0.78769517832E+02 0.  0.
          6    2    1    2  501    0  0.17709924040E+03 -0.63925201867E+02  0.26700891979E+03  0.36905458195E+03  0.17163026781E+03 0.  0.
         24    2    5    5    0    0  0.28651972112E+02  0.10234578470E+02  0.94734506346E+02  0.12981238666E+03  0.83372339149E+02 0.  0.
          5    1    5    5  501    0  0.14844726829E+03 -0.74159780338E+02  0.17227441344E+03  0.23924219529E+03  0.47000000000E+01 0. -1.
        -11    1    6    6    0    0 -0.19305841385E+01  0.17020532118E+02 -0.10447645689E+02  0.20064370639E+02  0.00000000000E+00 0.  1.
         12    1    6    6    0    0  0.30582556251E+02 -0.67859536473E+01  0.10518215203E+03  0.10974801602E+03  0.00000000000E+00 0. -1.
         -5    1    3    3    0  503 -0.11248307823E+02  0.11232956136E+02 -0.13594160117E+03  0.13694857670E+03  0.47000000000E+01 0.  1.
         11    1    4    4    0    0 -0.11883087521E+03  0.37973295743E+02 -0.13390751084E+03  0.18301357751E+03  0.00000000000E+00 0. -1.
        -12    1    4    4    0    0 -0.47020057372E+02  0.14718949988E+02  0.16899555826E+01  0.49298978021E+02  0.00000000000E+00 0.  1.
</event>
<event>
12    1  0.8462562E-002  0.1768292E+03  0.7818608E-02  0.1171754E+00
         21   -1    0    0  503  502  0.00000000000E+00  0.00000000000E+00  0.13967951791E+04  0.13967951791E+04  0.00000000000E+00 0.  1.
         21   -1    0    0  501  503 -0.00000000000E+00 -0.00000000000E+00 -0.23029060164E+02  0.23029060164E+02  0.00000000000E+00 0.  1.
          6    2    1    2  501    0 -0.15501587876E+02 -0.12946151529E+02  0.54024205935E+03  0.56844530079E+03  0.17567206732E+03 0.  0.
         24    2    3    3    0    0  0.56506760831E+02  0.14836948644E+02  0.30150695494E+03  0.31749980269E+03  0.80539007737E+02 0.  0.
         -6    2    1    2    0  502  0.15501587876E+02  0.12946151529E+02  0.83352405956E+03  0.85137893844E+03  0.17226676086E+03 0.  0.
        -24    2    5    5    0    0 -0.51298187438E+02  0.34733939263E+02  0.52616420075E+03  0.53605515171E+03  0.81660326653E+02 0.  0.
          5    1    3    3  501    0 -0.72008348707E+02 -0.27783100174E+02  0.23873510441E+03  0.25094549810E+03  0.47000000000E+01 0. -1.
        -13    1    4    4    0    0  0.21324476488E+01 -0.24455340171E+02  0.35478976758E+02  0.43143583389E+02  0.00000000000E+00 0.  1.
         14    1    4    4    0    0  0.54374313183E+02  0.39292288815E+02  0.26602797818E+03  0.27435621930E+03  0.00000000000E+00 0. -1.
         -5    1    5    5    0  502  0.66799775314E+02 -0.21787787733E+02  0.30735985880E+03  0.31532378673E+03  0.47000000000E+01 0.  1.
         13    1    6    6    0    0 -0.28618068959E+02 -0.20062460169E+02  0.10329074792E+03  0.10904345366E+03  0.00000000000E+00 0. -1.
        -14    1    6    6    0    0 -0.22680118479E+02  0.54796399432E+02  0.42287345283E+03  0.42701169806E+03  0.00000000000E+00 0.  1.
</event>
<event>
12    1  0.8462562E-002  0.1871499E+03  0.7818608E-02  0.1161831E+00
         21   -1    0    0  503  502  0.00000000000E+00  0.00000000000E+00  0.73200519520E+03  0.73200519520E+03  0.00000000000E+00 0.  1.
         21   -1    0    0  501  503 -0.00000000000E+00 -0.00000000000E+00 -0.72553052812E+02  0.72553052812E+02  0.00000000000E+00 0. -1.
          6    2    1    2  501    0  0.28075795136E+02 -0.60104740184E+02  0.89073323997E+02  0.20426074563E+03  0.17142801723E+03 0.  0.
         24    2    3    3    0    0  0.36940646953E+02  0.28300079266E+02  0.19904014128E+02  0.91564334297E+02  0.76304335743E+02 0.  0.
         -6    2    1    2    0  502 -0.28075795136E+02  0.60104740184E+02  0.57037881839E+03  0.60029750238E+03  0.17499789950E+03 0.  0.
        -24    2    5    5    0    0 -0.47240714018E+02 -0.26957872075E+02  0.33777212979E+03  0.35114864296E+03  0.79100858789E+02 0.  0.
          5    1    3    3  501    0 -0.88648518165E+01 -0.88404819451E+02  0.69169309868E+02  0.11269641133E+03  0.47000000000E+01 0. -1.
        -13    1    4    4    0    0  0.22185019319E+02  0.17554457945E+02  0.49370849204E+02  0.56901799857E+02  0.00000000000E+00 0.  1.
         14    1    4    4    0    0  0.14755627634E+02  0.10745621322E+02 -0.29466835075E+02  0.34662534440E+02  0.00000000000E+00 0. -1.
         -5    1    5    5    0  502  0.19164918881E+02  0.87062612260E+02  0.23260668861E+03  0.24914885943E+03  0.47000000000E+01 0.  1.
         11    1    6    6    0    0 -0.15092564441E+02  0.33624092956E+01  0.62235894522E+01  0.16668064175E+02  0.00000000000E+00 0. -1.
        -12    1    6    6    0    0 -0.32148149577E+02 -0.30320281371E+02  0.33154854034E+03  0.33448057878E+03  0.00000000000E+00 0.  1.
</event>
<event>
12    1  0.8462562E-002  0.1866172E+03  0.7818608E-02  0.1163400E+00
         21   -1    0    0  501  502  0.00000000000E+00  0.00000000000E+00  0.86000973603E+03  0.86000973603E+03  0.00000000000E+00 0.  1.
         21   -1    0    0  502  503 -0.00000000000E+00 -0.00000000000E+00 -0.39826013976E+02  0.39826013976E+02  0.00000000000E+00 0.  1.
         -6    2    1    2    0  503 -0.59784373118E+02 -0.27195844398E+02  0.49046019760E+03  0.52476391689E+03  0.17467735347E+03 0.  0.
        -24    2    3    3    0    0  0.25525656790E+02  0.21652468457E+02  0.20396157526E+03  0.22183239084E+03  0.80553689533E+02 0.  0.
          6    2    1    2  501    0  0.59784373118E+02  0.27195844398E+02  0.32972352445E+03  0.37507183312E+03  0.16627535055E+03 0.  0.
         24    2    5    5    0    0  0.67111394370E+02 -0.26683690908E+02  0.28544032839E+03  0.30478825738E+03  0.78763837830E+02 0.  0.
          5    1    5    5  501    0 -0.73270212526E+01  0.53879535305E+02  0.44283196063E+02  0.70283575739E+02  0.47000000000E+01 0. -1.
        -13    1    6    6    0    0  0.58041207707E+02 -0.19244277707E+02  0.88908586003E+02  0.10790672213E+03  0.00000000000E+00 0.  1.
         14    1    6    6    0    0  0.90701866638E+01 -0.74394132011E+01  0.19653174239E+03  0.19688153524E+03  0.00000000000E+00 0. -1.
         -5    1    3    3    0  503 -0.85310029908E+02 -0.48848312854E+02  0.28649862234E+03  0.30293152605E+03  0.47000000000E+01 0.  1.
         11    1    4    4    0    0 -0.11316397834E+02  0.42621192086E+02  0.11839204813E+03  0.12633805418E+03  0.00000000000E+00 0. -1.
        -12    1    4    4    0    0  0.36842054624E+02 -0.20968723629E+02  0.85569527133E+02  0.95494336656E+02  0.00000000000E+00 0.  1.
</event>
<event>
12    1  0.8462562E-002  0.2132403E+03  0.7818608E-02  0.1139131E+00
         21   -1    0    0  501  502  0.00000000000E+00  0.00000000000E+00  0.45647060625E+02  0.45647060625E+02  0.00000000000E+00 0.  1.
         21   -1    0    0  502  503 -0.00000000000E+00 -0.00000000000E+00 -0.15907354463E+04  0.15907354463E+04  0.00000000000E+00 0. -1.
         -6    2    1    2    0  503  0.28598275560E+02  0.12290118044E+03 -0.12744505681E+04  0.12921670465E+04  0.17189782994E+03 0.  0.
        -24    2    3    3    0    0  0.38934776690E+02  0.14662577129E+03 -0.12171890358E+04  0.12291537737E+04  0.79087399996E+02 0.  0.
          6    2    1    2  501    0 -0.28598275560E+02 -0.12290118044E+03 -0.27063781760E+03  0.34421546048E+03  0.17122176672E+03 0.  0.
         24    2    5    5    0    0  0.19635194819E+02 -0.54528353793E+02 -0.54420644963E+02  0.11232482498E+03  0.79349716227E+02 0.  0.
          5    1    5    5  501    0 -0.48233470379E+02 -0.68372826648E+02 -0.21621717264E+03  0.23189063550E+03  0.47000000000E+01 0. -1.
        -11    1    6    6    0    0 -0.23348890538E+02 -0.24661957451E+02 -0.49117635852E+02  0.59715366418E+02  0.00000000000E+00 0.  1.
         12    1    6    6    0    0  0.42984085357E+02 -0.29866396342E+02 -0.53030091107E+01  0.52609458561E+02  0.00000000000E+00 0. -1.
         -5    1    3    3    0  503 -0.10336501130E+02 -0.23724590848E+02 -0.57261532286E+02  0.63013272778E+02  0.47000000000E+01 0.  1.
         11    1    4    4    0    0 -0.66658104484E+01  0.67467616985E+02 -0.75401352195E+03  0.75705528441E+03  0.00000000000E+00 0. -1.
        -12    1    4    4    0    0  0.45600587139E+02  0.79158154303E+02 -0.46317551384E+03  0.47209848926E+03  0.00000000000E+00 0.  1.
</event>
<event>
12    1  0.8462562E-002  0.2618401E+03  0.7818608E-02  0.1106115E+00
         21   -1    0    0  501  502  0.00000000000E+00  0.00000000000E+00  0.20432163683E+03  0.20432163683E+03  0.00000000000E+00 0. -1.
         21   -1    0    0  502  503 -0.00000000000E+00 -0.00000000000E+00 -0.49606777146E+03  0.49606777146E+03  0.00000000000E+00 0.  1.
         -6    2    1    2    0  503 -0.17622239957E+03  0.88454996884E+02 -0.34555624550E+03  0.43355433804E+03  0.17228355884E+03 0.  0.
        -24    2    3    3    0    0 -0.32490637527E+02  0.54134221848E+01 -0.17234497984E+03  0.19359818559E+03  0.81807815763E+02 0.  0.
          6    2    1    2  501    0  0.17622239957E+03 -0.88454996884E+02  0.53810110870E+02  0.26683507024E+03  0.17154243235E+03 0.  0.
         24    2    5    5    0    0  0.19685147426E+03 -0.10168576682E+03  0.42886434066E+02  0.23959486631E+03  0.80473322548E+02 0.  0.
          5    1    5    5  501    0 -0.20629074690E+02  0.13230769933E+02  0.10923676805E+02  0.27240203937E+02  0.47000000000E+01 0. -1.
        -13    1    6    6    0    0  0.15646623694E+03 -0.10687945874E+03  0.54654452506E+02  0.19721057573E+03  0.00000000000E+00 0.  1.
         14    1    6    6    0    0  0.40385237322E+02  0.51936919244E+01 -0.11768018440E+02  0.42384290573E+02  0.00000000000E+00 0. -1.
         -5    1    3    3    0  503 -0.14373176204E+03  0.83041574699E+02 -0.17321126566E+03  0.23995615245E+03  0.47000000000E+01 0.  1.
         13    1    4    4    0    0 -0.11265287864E+02  0.23072926067E+02 -0.79184197878E+01  0.26869462218E+02  0.00000000000E+00 0. -1.
        -14    1    4    4    0    0 -0.21225349663E+02 -0.17659503882E+02 -0.16442656005E+03  0.16672872337E+03  0.00000000000E+00 0.  1.
</event>
<event>
12    1  0.8462562E-002  0.1925797E+03  0.7818608E-02  0.1156521E+00
         21   -1    0    0  503  502  0.00000000000E+00  0.00000000000E+00  0.82700804174E+02  0.82700804174E+02  0.00000000000E+00 0.  1.
         21   -1    0    0  501  503 -0.00000000000E+00 -0.00000000000E+00 -0.14567774121E+04  0.14567774121E+04  0.00000000000E+00 0.  1.
          6    2    1    2  501    0 -0.83900201048E+02 -0.10638848985E+02 -0.13295430461E+04  0.13434178939E+04  0.17301588774E+03 0.  0.
         24    2    3    3    0    0 -0.81727798463E+02  0.47677713535E+02 -0.10774975078E+04  0.10846620550E+04  0.80859735477E+02 0.  0.
         -6    2    1    2    0  502  0.83900201048E+02  0.10638848985E+02 -0.44533561789E+02  0.19606032232E+03  0.17118406182E+03 0.  0.
        -24    2    5    5    0    0  0.18404336394E+02 -0.42889679045E+02  0.10564787586E+02  0.95001281641E+02  0.82069388995E+02 0.  0.
          5    1    3    3  501    0 -0.21724025855E+01 -0.58316562520E+02 -0.25204553826E+03  0.25875583888E+03  0.47000000000E+01 0. -1.
        -13    1    4    4    0    0 -0.11043679287E+02  0.30323976125E+02 -0.66571163908E+03  0.66649343042E+03  0.00000000000E+00 0.  1.
         14    1    4    4    0    0 -0.70684119175E+02  0.17353737410E+02 -0.41178586876E+03  0.41816862462E+03  0.00000000000E+00 0. -1.
         -5    1    5    5    0  502  0.65495864654E+02  0.53528528029E+02 -0.55098349375E+02  0.10105904068E+03  0.47000000000E+01 0.  1.
         11    1    6    6    0    0 -0.81537571358E+01 -0.24074038244E+02 -0.32349481767E+02  0.41140394303E+02  0.00000000000E+00 0. -1.
        -12    1    6    6    0    0  0.26558093529E+02 -0.18815640800E+02  0.42914269354E+02  0.53860887338E+02  0.00000000000E+00 0.  1.
</event>
<event>
12    1  0.8462562E-002  0.3133420E+03  0.7818608E-02  0.1078843E+00
         21   -1    0    0  503  502  0.00000000000E+00  0.00000000000E+00  0.23061529828E+04  0.23061529828E+04  0.00000000000E+00 0.  1.
         21   -1    0    0  501  503 -0.00000000000E+00 -0.00000000000E+00 -0.44497427460E+02  0.44497427460E+02  0.00000000000E+00 0.  1.
          6    2    1    2  501    0  0.26073370422E+03  0.21810313847E+01  0.87888957799E+03  0.93282639758E+03  0.17242788729E+03 0.  0.
         24    2    3    3    0    0  0.98818424002E+02  0.59691024935E+02  0.34913463818E+03  0.37588264496E+03  0.77875977231E+02 0.  0.
         -6    2    1    2    0  502 -0.26073370422E+03 -0.21810313847E+01  0.13827659773E+04  0.14178240127E+04  0.17377100274E+03 0.  0.
        -24    2    5    5    0    0 -0.15076398281E+03 -0.13460812344E+01  0.49898949719E+03  0.52721916559E+03  0.78980629357E+02 0.  0.
          5    1    3    3  501    0  0.16191528021E+03 -0.57509993551E+02  0.52975493981E+03  0.55694375262E+03  0.47000000000E+01 0. -1.
        -13    1    4    4    0    0  0.76612947524E+02  0.25678041766E+02  0.30659777097E+03  0.31706639482E+03  0.00000000000E+00 0.  1.
         14    1    4    4    0    0  0.22205476478E+02  0.34012983169E+02  0.42536867205E+02  0.58816250147E+02  0.00000000000E+00 0. -1.
         -5    1    5    5    0  502 -0.10996972140E+03 -0.83495015025E+00  0.88377648014E+03  0.89060484707E+03  0.47000000000E+01 0.  1.
         11    1    6    6    0    0 -0.80749608861E+02 -0.12743369355E+02  0.37996524999E+03  0.38865985642E+03  0.00000000000E+00 0. -1.
        -12    1    6    6    0    0 -0.70014373952E+02  0.11397288121E+02  0.11902424720E+03  0.13855930917E+03  0.00000000000E+00 0.  1.
</event>
<event>
12    1  0.8462562E-002  0.2024039E+03  0.7818608E-02  0.1147744E+00
         21   -1    0    0  503  502  0.00000000000E+00  0.00000000000E+00  0.47486978568E+03  0.47486978568E+03  0.00000000000E+00 0. -1.
         21   -1    0    0  501  503 -0.00000000000E+00 -0.00000000000E+00 -0.10197913628E+03  0.10197913628E+03  0.00000000000E+00 0.  1.
          6    2    1    2  501    0 -0.76958917540E+01  0.10396614419E+03  0.29974117992E+03  0.36163232354E+03  0.17339255060E+03 0.  0.
         24    2    3    3    0    0 -0.55079959280E+02  0.42048882610E+02  0.89631482987E+02  0.13747351403E+03  0.77866898454E+02 0.  0.
         -6    2    1    2    0  502  0.76958917540E+01 -0.10396614419E+03  0.73149469474E+02  0.21521659842E+03  0.17349107603E+03 0.  0.
        -24    2    5    5    0    0  0.35335382681E+02 -0.97085632644E+01 -0.80748124514E+01  0.87670892905E+02  0.79234698187E+02 0.  0.
          5    1    3    3  501    0  0.47384067526E+02  0.61917261575E+02  0.21010969693E+03  0.22415880951E+03  0.47000000000E+01 0. -1.
        -13    1    4    4    0    0  0.48683607799E+01  0.41617306104E+02  0.51632680413E+02  0.66495374205E+02  0.00000000000E+00 0.  1.
         14    1    4    4    0    0 -0.59948320060E+02  0.43157650671E+00  0.37998802574E+02  0.70978139828E+02  0.00000000000E+00 0. -1.
         -5    1    5    5    0  502 -0.27639490927E+02 -0.94257580921E+02  0.81224281925E+02  0.12754570551E+03  0.47000000000E+01 0.  1.
         11    1    6    6    0    0 -0.23003920935E+02 -0.11945308038E+02  0.79807310620E+01  0.27121261601E+02  0.00000000000E+00 0. -1.
        -12    1    6    6    0    0  0.58339303616E+02  0.22367447740E+01 -0.16055543513E+02  0.60549631305E+02  0.00000000000E+00 0.  1.
</event>
<event>
12    1  0.8462562E-002  0.1792980E+03  0.7818608E-02  0.1168774E+00
         21   -1    0    0  501  502  0.00000000000E+00  0.00000000000E+00  0.17005651381E+03  0.17005651381E+03  0.00000000000E+00 0. -1.
         21   -1    0    0  502  503 -0.00000000000E+00 -0.00000000000E+00 -0.40556032491E+03  0.40556032491E+03  0.00000000000E+00 0. -1.
         -6    2    1    2    0  503  0.40381847463E+02  0.26536154140E+02 -0.32883141555E+03  0.37453688985E+03  0.17266418542E+03 0.  0.
        -24    2    3    3    0    0  0.49769072202E+02 -0.45243277735E+02 -0.23031419938E+03  0.25219254503E+03  0.77669392971E+02 0.  0.
          6    2    1    2  501    0 -0.40381847463E+02 -0.26536154140E+02  0.93327604439E+02  0.20107994887E+03  0.17142999447E+03 0.  0.
         24    2    5    5    0    0 -0.86392751085E+02 -0.21896614052E+02  0.98131984173E+02  0.15434986596E+03  0.79062163238E+02 0.  0.
          5    1    5    5  501    0  0.46010903622E+02 -0.46395400873E+01 -0.48043797337E+01  0.46730082912E+02  0.47000000000E+01 0. -1.
        -13    1    6    6    0    0 -0.47140525067E+02  0.24518045909E+02  0.23513455631E+02  0.58105475426E+02  0.00000000000E+00 0.  1.
         14    1    6    6    0    0 -0.39252226018E+02 -0.46414659961E+02  0.74618528542E+02  0.96244390530E+02  0.00000000000E+00 0. -1.
         -5    1    3    3    0  503 -0.93872247398E+01  0.71779431875E+02 -0.98517216170E+02  0.12234434482E+03  0.47000000000E+01 0.  1.
         13    1    4    4    0    0 -0.13483669314E+02  0.11182174400E+02 -0.31072201548E+02  0.35669764108E+02  0.00000000000E+00 0. -1.
        -14    1    4    4    0    0  0.63252741517E+02 -0.56425452135E+02 -0.19924199783E+03  0.21652278092E+03  0.00000000000E+00 0.  1.
</event>
<event>
12    1  0.8462562E-002  0.1739981E+03  0.7818608E-02  0.1174354E+00
         21   -1    0    0  503  502  0.00000000000E+00  0.00000000000E+00  0.43374389735E+02  0.43374389735E+02  0.00000000000E+00 0.  1.
         21   -1    0    0  501  503 -0.00000000000E+00 -0.00000000000E+00 -0.69651593678E+03  0.69651593678E+03  0.00000000000E+00 0.  1.
          6    2    1    2  501    0  0.13721350852E+02  0.61740765470E+01 -0.36428081994E+03  0.40267251191E+03  0.17093344137E+03 0.  0.
         24    2    3    3    0    0  0.49140299573E+02  0.54606618812E+02 -0.18017765866E+03  0.20898132194E+03  0.76240096918E+02 0.  0.
         -6    2    1    2    0  502 -0.13721350852E+02 -0.61740765470E+01 -0.28886072710E+03  0.33721781461E+03  0.17334630119E+03 0.  0.
        -24    2    5    5    0    0  0.38466851859E+02 -0.53041352929E+02 -0.18450876322E+03  0.21139423786E+03  0.79692887294E+02 0.  0.
          5    1    3    3  501    0 -0.35418948721E+02 -0.48432542265E+02 -0.18410316128E+03  0.19369118997E+03  0.47000000000E+01 0. -1.
        -11    1    4    4    0    0  0.49541818800E+02  0.58102905854E+01 -0.53089791241E+02  0.72846943798E+02  0.00000000000E+00 0.  1.
         12    1    4    4    0    0 -0.40151922694E+00  0.48796328227E+02 -0.12708786742E+03  0.13613437814E+03  0.00000000000E+00 0. -1.
         -5    1    5    5    0  502 -0.52188202711E+02  0.46867276382E+02 -0.10435196389E+03  0.12582357674E+03  0.47000000000E+01 0.  1.
         11    1    6    6    0    0  0.36691601585E+02 -0.42735593934E+02 -0.46639622021E+02  0.73129056865E+02  0.00000000000E+00 0. -1.
        -12    1    6    6    0    0  0.17752502741E+01 -0.10305758994E+02 -0.13786914120E+03  0.13826518100E+03  0.00000000000E+00 0.  1.
</event>
<event>
12    1  0.8462562E-002  0.2326245E+03  0.7818608E-02  0.1125236E+00
         21   -1    0    0  503  502  0.00000000000E+00  0.00000000000E+00  0.35577497764E+03  0.35577497764E+03  0.00000000000E+00 0. -1.
         21   -1    0    0  501  503 -0.00000000000E+00 -0.00000000000E+00 -0.59021637928E+03  0.59021637928E+03  0.00000000000E+00 0. -1.
          6    2    1    2  501    0  0.64072267992E+02 -0.14033094507E+03 -0.52564112722E+03  0.57481541705E+03  0.17411530485E+03 0.  0.
         24    2    3    3    0    0  0.74264126514E+02 -0.95105746242E+02 -0.50167740705E+03  0.52241749272E+03  0.81728529313E+02 0.  0.
         -6    2    1    2    0  502 -0.64072267992E+02  0.14033094507E+03  0.29119972558E+03  0.37117593987E+03  0.17081062171E+03 0.  0.
        -24    2    5    5    0    0  0.48925212672E+01  0.48089475198E+02  0.54863073668E+02  0.10822778156E+03  0.79791988691E+02 0.  0.
          5    1    3    3  501    0 -0.10191858522E+02 -0.45225198829E+02 -0.23963720167E+02  0.52397924324E+02  0.47000000000E+01 0. -1.
        -11    1    4    4    0    0 -0.98216525558E+01 -0.22804549132E+02 -0.36096552688E+02  0.43811795626E+02  0.00000000000E+00 0.  1.
         12    1    4    4    0    0  0.84085779069E+02 -0.72301197111E+02 -0.46558085436E+03  0.47860569710E+03  0.00000000000E+00 0. -1.
         -5    1    5    5    0  502 -0.68964789259E+02  0.92241469873E+02  0.23633665191E+03  0.26294815831E+03  0.47000000000E+01 0.  1.
         11    1    6    6    0    0  0.28711438407E+02  0.13661757005E+02  0.58107591801E+02  0.66238074585E+02  0.00000000000E+00 0. -1.
        -12    1    6    6    0    0 -0.23818917139E+02  0.34427718193E+02 -0.32445181328E+01  0.41989706972E+02  0.00000000000E+00 0.  1.
</event>
<event>
12    1  0.8462562E-002  0.2749868E+03  0.7818608E-02  0.1098520E+00
         21   -1    0    0  503  502  0.00000000000E+00  0.00000000000E+00  0.10207683820E+03  0.10207683820E+03  0.00000000000E+00 0. -1.
         21   -1    0    0  501  503 -0.00000000000E+00 -0.00000000000E+00 -0.96787309709E+03  0.96787309709E+03  0.00000000000E+00 0. -1.
          6    2    1    2  501    0  0.19590471060E+03  0.86588775190E+02 -0.17336038243E+03  0.32507159202E+03  0.17245708486E+03 0.  0.
         24    2    3    3    0    0  0.10684793357E+03  0.11965312522E+03 -0.12556723743E+03  0.21862613422E+03  0.79353035009E+02 0.  0.
         -6    2    1    2    0  502 -0.19590471060E+03 -0.86588775190E+02 -0.69243587646E+03  0.74487834327E+03  0.17175573250E+03 0.  0.
        -24    2    5    5    0    0 -0.11342050576E+03  0.16504542862E+02 -0.30105242619E+03  0.33179848245E+03  0.79505085232E+02 0.  0.
          5    1    3    3  501    0  0.89056777035E+02 -0.33064350025E+02 -0.47793145000E+02  0.10644545781E+03  0.47000000000E+01 0. -1.
        -13    1    4    4    0    0  0.36801455723E+02  0.71772981971E+02 -0.10301137034E+03  0.13083214629E+03  0.00000000000E+00 0.  1.
         14    1    4    4    0    0  0.70046477843E+02  0.47880143245E+02 -0.22555867092E+02  0.87793987924E+02  0.00000000000E+00 0. -1.
         -5    1    5    5    0  502 -0.82484204841E+02 -0.10309331805E+03 -0.39138345027E+03  0.41307986082E+03  0.47000000000E+01 0.  1.
         11    1    6    6    0    0 -0.95741861506E+02  0.30739103606E+02 -0.28922086785E+03  0.30620272196E+03  0.00000000000E+00 0. -1.
        -12    1    6    6    0    0 -0.17678644253E+02 -0.14234560744E+02 -0.11831558339E+02  0.25595760487E+02  0.00000000000E+00 0.  1.
</event>
<event>
12    1  0.8462562E-002  0.1900208E+03  0.7818608E-02  0.1158687E+00
         21   -1    0    0  501  502  0.00000000000E+00  0.00000000000E+00  0.41970123126E+02  0.41970123126E+02  0.00000000000E+00 0.  1.
         21   -1    0    0  502  503 -0.00000000000E+00 -0.00000000000E+00 -0.85935929445E+03  0.85935929445E+03  0.00000000000E+00 0.  1.
         -6    2    1    2    0  503 -0.78804025838E+02  0.63397035859E+00 -0.44030223273E+03  0.47955600022E+03  0.17290871811E+03 0.  0.
        -24    2    3    3    0    0 -0.10521321417E+03 -0.39573215311E+02 -0.27873094532E+03  0.31091011702E+03  0.79613448465E+02 0.  0.
          6    2    1    2  501    0  0.78804025838E+02 -0.63397035859E+00 -0.37708693860E+03  0.42177341736E+03  0.17172006266E+03 0.  0.
         24    2    5    5    0    0  0.71485907809E+02 -0.59827432640E+02 -0.19708595406E+03  0.23208982486E+03  0.79581761750E+02 0.  0.
          5    1    5    5  501    0  0.73181180285E+01  0.59193462281E+02 -0.18000098455E+03  0.18968359251E+03  0.47000000000E+01 0. -1.
        -11    1    6    6    0    0  0.54608883385E+02 -0.17973112677E+02 -0.16999660121E+03  0.17945475014E+03  0.00000000000E+00 0.  1.
         12    1    6    6    0    0  0.16877024424E+02 -0.41854319963E+02 -0.27089352849E+02  0.52635074719E+02  0.00000000000E+00 0. -1.
         -5    1    3    3    0  503  0.26409188336E+02  0.40207185670E+02 -0.16157128740E+03  0.16864588320E+03  0.47000000000E+01 0.  1.
         13    1    4    4    0    0 -0.39765275927E+02 -0.34176649526E+02 -0.48248606259E+02  0.71254814211E+02  0.00000000000E+00 0. -1.
        -14    1    4    4    0    0 -0.65447938248E+02 -0.53965657854E+01 -0.23048233906E+03  0.23965530280E+03  0.00000000000E+00 0.  1.
</event>
<event>
12    1  0.8462562E-002  0.4912900E+03  0.7818608E-02  0.1016216E+00
         21   -1    0    0  501  502  0.00000000000E+00  0.00000000000E+00  0.18436382089E+03  0.18436382089E+03  0.00000000000E+00 0. -1.
         21   -1    0    0  502  503 -0.00000000000E+00 -0.00000000000E+00 -0.21000481999E+04  0.21000481999E+04  0.00000000000E+00 0.  1.
         -6    2    1    2    0  503 -0.62951100748E+02  0.45363086477E+03 -0.16624752795E+04  0.17335483563E+04  0.17782588751E+03 0.  0.
        -24    2    3    3    0    0  0.23837171461E+02  0.18230754489E+03 -0.82565376985E+03  0.84955691004E+03  0.78984454662E+02 0.  0.
          6    2    1    2  501    0  0.62951100748E+02 -0.45363086477E+03 -0.25320909954E+03  0.55086366448E+03  0.17202362104E+03 0.  0.
         24    2    5    5    0    0  0.26633231671E+02 -0.16739298813E+03 -0.37623020991E+02  0.19065461836E+03  0.78765159120E+02 0.  0.
          5    1    5    5  501    0  0.36317869077E+02 -0.28623787665E+03 -0.21558607855E+03  0.36020904612E+03  0.47000000000E+01 0. -1.
        -13    1    6    6    0    0  0.32658021910E+02 -0.32633241491E+02  0.10654626089E+02  0.47381387721E+02  0.00000000000E+00 0.  1.
         14    1    6    6    0    0 -0.60247902394E+01 -0.13475974664E+03 -0.48277647080E+02  0.14327323064E+03  0.00000000000E+00 0. -1.
         -5    1    3    3    0  503 -0.86788272209E+02  0.27132331989E+03 -0.83682150961E+03  0.88399144625E+03  0.47000000000E+01 0.  1.
         13    1    4    4    0    0  0.10528822267E+02  0.17479856668E+03 -0.64791854082E+03  0.67116602309E+03  0.00000000000E+00 0. -1.
        -14    1    4    4    0    0  0.13308349195E+02  0.75089782091E+01 -0.17773522902E+03  0.17839088695E+03  0.00000000000E+00 0.  1.
</event>
<event>
12    1  0.8462562E-002  0.1835075E+03  0.7818608E-02  0.1164492E+00
         21   -1    0    0  501  502  0.00000000000E+00  0.00000000000E+00  0.21013119614E+03  0.21013119614E+03  0.00000000000E+00 0.  1.
         21   -1    0    0  502  503 -0.00000000000E+00 -0.00000000000E+00 -0.32403825940E+03  0.32403825940E+03  0.00000000000E+00 0.  1.
         -6    2    1    2    0  503  0.58895255784E+02 -0.13110939292E-01 -0.24693678002E+03  0.30765693108E+03  0.17379977731E+03 0.  0.
        -24    2    3    3    0    0  0.72168010125E+02 -0.21794439669E+02 -0.73975191870E+02  0.13276155303E+03  0.80436817846E+02 0.  0.
          6    2    1    2  501    0 -0.58895255784E+02  0.13110939292E-01  0.13302971675E+03  0.22651252446E+03  0.17361557209E+03 0.  0.
         24    2    5    5    0    0 -0.89391610425E+02 -0.63912157254E+01  0.14899381494E+03  0.19118568654E+03  0.79505359529E+02 0.  0.
          5    1    5    5  501    0  0.30496354641E+02  0.64043266647E+01 -0.15964098191E+02  0.35326837920E+02  0.47000000000E+01 0. -1.
        -13    1    6    6    0    0 -0.94834046775E+01  0.61614857137E+01  0.90892193803E+02  0.91593066139E+02  0.00000000000E+00 0.  1.
         14    1    6    6    0    0 -0.79908205747E+02 -0.12552701439E+02  0.58101621139E+02  0.99592620400E+02  0.00000000000E+00 0. -1.
         -5    1    3    3    0  503 -0.13272754341E+02  0.21781328730E+02 -0.17296158815E+03  0.17489537805E+03  0.47000000000E+01 0.  1.
         13    1    4    4    0    0  0.81788450274E+02 -0.31187774900E+02 -0.79479392392E+02  0.11823282842E+03  0.00000000000E+00 0. -1.
        -14    1    4    4    0    0 -0.96204401491E+01  0.93933352312E+01  0.55042005213E+01  0.14528724610E+02  0.00000000000E+00 0.  1.
</event>
<event>
12    1  0.8462562E-002  0.1792794E+03  0.7818608E-02  0.1169402E+00
         21   -1    0    0  501  502  0.00000000000E+00  0.00000000000E+00  0.91962071267E+03  0.91962071267E+03  0.00000000000E+00 0. -1.
         21   -1    0    0  502  503 -0.00000000000E+00 -0.00000000000E+00 -0.41332483972E+02  0.41332483972E+02  0.00000000000E+00 0. -1.
         -6    2    1    2    0  503  0.15386723343E+02  0.32904142636E+02  0.23637558657E+03  0.29447518417E+03  0.17182194945E+03 0.  0.
        -24    2    3    3    0    0  0.32799623442E+02 -0.34485361203E+02  0.75866808749E+02  0.11946172162E+03  0.79058679652E+02 0.  0.
          6    2    1    2  501    0 -0.15386723343E+02 -0.32904142636E+02  0.64191264214E+03  0.66647801247E+03  0.17556100682E+03 0.  0.
         24    2    5    5    0    0 -0.63944591257E+02 -0.25571817223E+02  0.25380916531E+03  0.27525169912E+03  0.81250088540E+02 0.  0.
          5    1    5    5  501    0  0.48557867914E+02 -0.73323254132E+01  0.38810347683E+03  0.39122631335E+03  0.47000000000E+01 0. -1.
        -13    1    6    6    0    0 -0.14445987247E+02 -0.18003923239E+02  0.80551896755E+01  0.24448187668E+02  0.00000000000E+00 0.  1.
         14    1    6    6    0    0 -0.49498604010E+02 -0.75678939843E+01  0.24575397563E+03  0.25080351145E+03  0.00000000000E+00 0. -1.
         -5    1    3    3    0  503 -0.17412900099E+02  0.67389503839E+02  0.16050877782E+03  0.17501346255E+03  0.47000000000E+01 0.  1.
         11    1    4    4    0    0 -0.17501825521E+02 -0.36145529949E+02  0.22198259665E+02  0.45886555373E+02  0.00000000000E+00 0. -1.
        -12    1    4    4    0    0  0.50301448963E+02  0.16601687457E+01  0.53668549085E+02  0.73575166251E+02  0.00000000000E+00 0.  1.
</event>
<event>
12    1  0.8462562E-002  0.2843095E+03  0.7818608E-02  0.1093476E+00
         21   -1    0    0  501  502  0.00000000000E+00  0.00000000000E+00  0.97548871830E+03  0.97548871830E+03  0.00000000000E+00 0.  1.
         21   -1    0    0  502  503 -0.00000000000E+00 -0.00000000000E+00 -0.10163542358E+03  0.10163542358E+03  0.00000000000E+00 0.  1.
         -6    2    1    2    0  503  0.18214135098E+03  0.13486269912E+03  0.20334802687E+03  0.34883214712E+03  0.17020583857E+03 0.  0.
        -24    2    3    3    0    0  0.47475007793E+02  0.62884564364E+00  0.68002582233E+02  0.11539215314E+03  0.80229209168E+02 0.  0.
          6    2    1    2  501    0 -0.18214135098E+03 -0.13486269912E+03  0.67050526785E+03  0.72829199476E+03  0.17166390434E+03 0.  0.
         24    2    5    5    0    0 -0.75982882990E+02 -0.11460613846E+03  0.50859144613E+03  0.53356622799E+03  0.84378285699E+02 0.  0.
          5    1    5    5  501    0 -0.10615846799E+03 -0.20256560662E+02  0.16191382172E+03  0.19472576677E+03  0.47000000000E+01 0. -1.
        -11    1    6    6    0    0 -0.73435660920E+02 -0.42665525182E+02  0.21235574540E+03  0.22870965423E+03  0.00000000000E+00 0.  1.
         12    1    6    6    0    0 -0.25472220696E+01 -0.71940613274E+02  0.29623570073E+03  0.30485657376E+03  0.00000000000E+00 0. -1.
         -5    1    3    3    0  503  0.13466634319E+03  0.13423385347E+03  0.13534544464E+03  0.23343999399E+03  0.47000000000E+01 0.  1.
         13    1    4    4    0    0  0.42477861404E+02  0.16280799694E+02  0.82022665916E+02  0.93793128065E+02  0.00000000000E+00 0. -1.
        -14    1    4    4    0    0  0.49971463890E+01 -0.15651954050E+02 -0.14020083684E+02  0.21599025073E+02  0.00000000000E+00 0.  1.
</event>
<event>
12    1  0.8462562E-002  0.1945631E+03  0.7818608E-02  0.1156094E+00
         21   -1    0    0  501  502  0.00000000000E+00  0.00000000000E+00  0.11789137528E+03  0.11789137528E+03  0.00000000000E+00 0. -1.
         21   -1    0    0  502  503 -0.00000000000E+00 -0.00000000000E+00 -0.39162764277E+03  0.39162764277E+03  0.00000000000E+00 0.  1.
         -6    2    1    2    0  503  0.61776035860E+02  0.51223502721E+02 -0.17566261592E+02  0.18783927913E+03  0.16892274981E+03 0.  0.
        -24    2    3    3    0    0 -0.12519221705E+02 -0.11253775657E+02  0.28804371070E+01  0.88524863776E+02  0.86861822512E+02 0.  0.
          6    2    1    2  501    0 -0.61776035860E+02 -0.51223502721E+02 -0.25617000590E+03  0.32167973891E+03  0.17724180282E+03 0.  0.
         24    2    5    5    0    0 -0.96560688502E+02  0.82028838689E+01 -0.16474120482E+03  0.20712502207E+03  0.79811379745E+02 0.  0.
          5    1    5    5  501    0  0.34784652642E+02 -0.59426386590E+02 -0.91428801083E+02  0.11455471684E+03  0.47000000000E+01 0. -1.
        -11    1    6    6    0    0 -0.10442026860E+02 -0.28959597726E+02 -0.52423864019E+02  0.60794372635E+02  0.00000000000E+00 0.  1.
         12    1    6    6    0    0 -0.86118661642E+02  0.37162481595E+02 -0.11231734080E+03  0.14633064944E+03  0.00000000000E+00 0. -1.
         -5    1    3    3    0  503  0.74295257565E+02  0.62477278378E+02 -0.20446698699E+02  0.99314415358E+02  0.47000000000E+01 0.  1.
         13    1    4    4    0    0 -0.26692914173E+01  0.11829134522E+02  0.41072361532E+02  0.42825137735E+02  0.00000000000E+00 0. -1.
        -14    1    4    4    0    0 -0.98499302878E+01 -0.23082910179E+02 -0.38191924425E+02  0.45699726042E+02  0.00000000000E+00 0.  1.
</event>
<event>
12    1  0.8462562E-002  0.1822926E+03  0.7818608E-02  0.1165641E+00
         21   -1    0    0  501  502  0.00000000000E+00  0.00000000000E+00  0.23982789521E+03  0.23982789521E+03  0.00000000000E+00 0. -1.
         21   -1    0    0  502  503 -0.00000000000E+00 -0.00000000000E+00 -0.33051320408E+03  0.33051320408E+03  0.00000000000E+00 0. -1.
         -6    2    1    2    0  503 -0.14816807855E+02 -0.58274159710E+02 -0.26274376412E+03  0.31978877622E+03  0.17209055852E+03 0.  0.
        -24    2    3    3    0    0  0.46863892123E+02 -0.63242852914E+02 -0.20917491320E+03  0.23780762930E+03  0.81255408514E+02 0.  0.
          6    2    1    2  501    0  0.14816807855E+02  0.58274159710E+02  0.17205845524E+03  0.25055232306E+03  0.17192131655E+03 0.  0.
         24    2    5    5    0    0 -0.51704066855E+02  0.34828617854E+02  0.13737653991E+03  0.17181449571E+03  0.82228730180E+02 0.  0.
          5    1    5    5  501    0  0.66520874709E+02  0.23445541856E+02  0.34681915332E+02  0.78737827352E+02  0.47000000000E+01 0. -1.
        -11    1    6    6    0    0 -0.29347479441E+02  0.18252041632E+02  0.31169435855E+01  0.34700531848E+02  0.00000000000E+00 0.  1.
         12    1    6    6    0    0 -0.22356587414E+02  0.16576576222E+02  0.13425959633E+03  0.13711396386E+03  0.00000000000E+00 0. -1.
         -5    1    3    3    0  503 -0.61680699978E+02  0.49686932040E+01 -0.53568850915E+02  0.81981146920E+02  0.47000000000E+01 0.  1.
         11    1    4    4    0    0 -0.20615505575E+02 -0.10202892465E+02 -0.75707612616E+02  0.79124842450E+02  0.00000000000E+00 0. -1.
        -12    1    4    4    0    0  0.67479397698E+02 -0.53039960449E+02 -0.13346730059E+03  0.15868278685E+03  0.00000000000E+00 0.  1.
</event>
<event>
12    1  0.8462562E-002  0.1789663E+03  0.7818608E-02  0.1168840E+00
         21   -1    0    0  503  502  0.00000000000E+00  0.00000000000E+00  0.57467106520E+02  0.57467106520E+02  0.00000000000E+00 0.  1.
         21   -1    0    0  501  503 -0.00000000000E+00 -0.00000000000E+00 -0.70930171602E+03  0.70930171602E+03  0.00000000000E+00 0. -1.
          6    2    1    2  501    0 -0.68904463046E+01 -0.45281035440E+02 -0.14831813972E+03  0.23243750789E+03  0.17300599436E+03 0.  0.
         24    2    3    3    0    0 -0.47282779809E+02  0.25211744233E+02 -0.54152053533E+02  0.10797821985E+03  0.76521616210E+02 0.  0.
         -6    2    1    2    0  502  0.68904463046E+01  0.45281035440E+02 -0.50351646978E+03  0.53433131464E+03  0.17286777620E+03 0.  0.
        -24    2    5    5    0    0 -0.58280749396E+02  0.26361427436E+02 -0.37142439163E+03  0.38575256978E+03  0.82203380618E+02 0.  0.
          5    1    3    3  501    0  0.40392333504E+02 -0.70492779672E+02 -0.94166086183E+02  0.12445928804E+03  0.47000000000E+01 0. -1.
        -13    1    4    4    0    0 -0.39873993740E+02 -0.92881947676E+01  0.27384540607E+01  0.41032975391E+02  0.00000000000E+00 0.  1.
         14    1    4    4    0    0 -0.74087860691E+01  0.34499939000E+02 -0.56890507594E+02  0.66945244464E+02  0.00000000000E+00 0. -1.
         -5    1    5    5    0  502  0.65171195701E+02  0.18919608003E+02 -0.13209207815E+03  0.14857874486E+03  0.47000000000E+01 0.  1.
         11    1    6    6    0    0  0.26074796453E+01  0.31552874217E+02 -0.22306433725E+03  0.22529998085E+03  0.00000000000E+00 0. -1.
        -12    1    6    6    0    0 -0.60888229042E+02 -0.51914467809E+01 -0.14836005439E+03  0.16045258893E+03  0.00000000000E+00 0.  1.
</event>
<event>
12    1  0.8462562E-002  0.1895770E+03  0.7818608E-02  0.1159077E+00
         21   -1    0    0  501  502  0.00000000000E+00  0.00000000000E+00  0.10487280481E+03  0.10487280481E+03  0.00000000000E+00 0. -1.
         21   -1    0    0  502  503 -0.00000000000E+00 -0.00000000000E+00 -0.82405572448E+03  0.82405572448E+03  0.00000000000E+00 0. -1.
         -6    2    1    2    0  503 -0.67855539786E+02 -0.38846247441E+02 -0.71566550796E+03  0.74034893593E+03  0.17270212053E+03 0.  0.
        -24    2    3    3    0    0  0.15607614536E+02 -0.43810237988E+02 -0.51153244807E+03  0.51970638457E+03  0.79160256146E+02 0.  0.
          6    2    1    2  501    0  0.67855539786E+02  0.38846247441E+02 -0.35174117166E+01  0.18857959336E+03  0.17157064326E+03 0.  0.
         24    2    5    5    0    0  0.73642995658E+02  0.74559417033E+02 -0.42872460687E+02  0.13491549916E+03  0.73360388148E+02 0.  0.
          5    1    5    5  501    0 -0.57874558717E+01 -0.35713169592E+02  0.39355048971E+02  0.53664094209E+02  0.47000000000E+01 0. -1.
        -11    1    6    6    0    0  0.80948436474E+01  0.21619034852E+01 -0.36054600578E+02  0.37015328490E+02  0.00000000000E+00 0.  1.
         12    1    6    6    0    0  0.65548152010E+02  0.72397513548E+02 -0.68178601091E+01  0.97900170666E+02  0.00000000000E+00 0. -1.
         -5    1    3    3    0  503 -0.83463154322E+02  0.49639905464E+01 -0.20413305988E+03  0.22064255136E+03  0.47000000000E+01 0.  1.
         11    1    4    4    0    0 -0.72591605155E+01 -0.41837769963E+02 -0.11632355423E+03  0.12383159401E+03  0.00000000000E+00 0. -1.
        -12    1    4    4    0    0  0.22866775052E+02 -0.19724680247E+01 -0.39520889384E+03  0.39587479056E+03  0.00000000000E+00 0.  1.
</event>
<event>
12    1  0.8462562E-002  0.1789810E+03  0.7818608E-02  0.1168862E+00
         21   -1    0    0  503  502  0.00000000000E+00  0.00000000000E+00  0.43026185641E+02  0.43026185641E+02  0.00000000000E+00 0.  1.
         21   -1    0    0  501  503 -0.00000000000E+00 -0.00000000000E+00 -0.84290541602E+03  0.84290541602E+03  0.00000000000E+00 0.  1.
          6    2    1    2  501    0 -0.24508158047E+02 -0.43631882524E+02 -0.24741930956E+03  0.30520260478E+03  0.17154569141E+03 0.  0.
         24    2    3    3    0    0  0.45674400856E+02 -0.26122726368E+02 -0.18959997241E+03  0.21248082810E+03  0.80196041322E+02 0.  0.
         -6    2    1    2    0  502  0.24508158047E+02  0.43631882524E+02 -0.55245992082E+03  0.58072899688E+03  0.17184240664E+03 0.  0.
        -24    2    5    5    0    0 -0.19836934912E+02  0.14573322005E+02 -0.49588498365E+03  0.50305209732E+03  0.80954369291E+02 0.  0.
          5    1    3    3  501    0 -0.70182558903E+02 -0.17509156156E+02 -0.57819337144E+02  0.92721776683E+02  0.47000000000E+01 0. -1.
        -13    1    4    4    0    0  0.12456860562E+02 -0.28238512584E+02 -0.14241288799E+02  0.33991194076E+02  0.00000000000E+00 0.  1.
         14    1    4    4    0    0  0.33217540293E+02  0.21157862164E+01 -0.17535868362E+03  0.17848963402E+03  0.00000000000E+00 0. -1.
         -5    1    5    5    0  502  0.44345092960E+02  0.29058560519E+02 -0.56574937169E+02  0.77676899557E+02  0.47000000000E+01 0.  1.
         11    1    6    6    0    0  0.44347920421E+01 -0.31406961524E+02 -0.15360379669E+03  0.15684448020E+03  0.00000000000E+00 0. -1.
        -12    1    6    6    0    0 -0.24271726954E+02  0.45980283529E+02 -0.34228118697E+03  0.34620761712E+03  0.00000000000E+00 0.  1.
</event>
<event>
12    1  0.8462562E-002  0.1783293E+03  0.7818608E-02  0.1170314E+00
         21   -1    0    0  501  502  0.00000000000E+00  0.00000000000E+00  0.15421521551E+03  0.15421521551E+03  0.00000000000E+00 0. -1.
         21   -1    0    0  502  503 -0.00000000000E+00 -0.00000000000E+00 -0.22740998309E+03  0.22740998309E+03  0.00000000000E+00 0. -1.
         -6    2    1    2    0  503  0.48365318861E+02 -0.28497364065E+02 -0.10057363875E+03  0.20473493205E+03  0.16926320262E+03 0.  0.
        -24    2    3    3    0    0  0.73562089999E+02 -0.60395887430E+02 -0.42738013000E+02  0.13388690685E+03  0.83905433476E+02 0.  0.
          6    2    1    2  501    0 -0.48365318861E+02  0.28497364065E+02  0.27378871172E+02  0.17689026655E+03  0.16549700899E+03 0.  0.
         24    2    5    5    0    0 -0.30625886495E+02 -0.14720475815E+02 -0.39929931752E+02  0.94823013053E+02  0.79008651570E+02 0.  0.
          5    1    5    5  501    0 -0.17739432366E+02  0.43217839881E+02  0.67308802924E+02  0.82067253492E+02  0.47000000000E+01 0. -1.
        -13    1    6    6    0    0  0.15051620027E+02  0.58973928700E+01  0.13868080073E+02  0.21299158505E+02  0.00000000000E+00 0.  1.
         14    1    6    6    0    0 -0.45677506522E+02 -0.20617868685E+02 -0.53798011825E+02  0.73523854548E+02  0.00000000000E+00 0. -1.
         -5    1    3    3    0  503 -0.25196771138E+02  0.31898523365E+02 -0.57835625753E+02  0.70848025201E+02  0.47000000000E+01 0.  1.
         13    1    4    4    0    0  0.53759302398E+02 -0.50978291480E+02 -0.67910976595E+02  0.10050248524E+03  0.00000000000E+00 0. -1.
        -14    1    4    4    0    0  0.19802787601E+02 -0.94175959501E+01  0.25172963595E+02  0.33384421613E+02  0.00000000000E+00 0.  1.
</event>
<event>
12    1  0.8462562E-002  0.1935825E+03  0.7818608E-02  0.1159894E+00
         21   -1    0    0  501  502  0.00000000000E+00  0.00000000000E+00  0.73813266123E+02  0.73813266123E+02  0.00000000000E+00 0.  1.
         21   -1    0    0  502  503 -0.00000000000E+00 -0.00000000000E+00 -0.14113344650E+04  0.14113344650E+04  0.00000000000E+00 0.  1.
         -6    2    1    2    0  503 -0.41895574136E+02 -0.77649456041E+01 -0.12907950018E+04  0.13052302194E+04  0.18883499541E+03 0.  0.
        -24    2    3    3    0    0 -0.41326787343E+02 -0.59163158641E+02 -0.42236710454E+03  0.43526975907E+03  0.76535021219E+02 0.  0.
          6    2    1    2  501    0  0.41895574136E+02  0.77649456041E+01 -0.46726197102E+02  0.17991751173E+03  0.16843823800E+03 0.  0.
         24    2    5    5    0    0  0.63478628058E+02  0.57476521915E+02 -0.45106683229E+02  0.12549525653E+03  0.79883413477E+02 0.  0.
          5    1    5    5  501    0 -0.21583053921E+02 -0.49711576311E+02 -0.16195138729E+01  0.54422255200E+02  0.47000000000E+01 0. -1.
        -13    1    6    6    0    0  0.29451039718E+02  0.72669423067E+02 -0.39542194728E+02  0.87816820446E+02  0.00000000000E+00 0.  1.
         14    1    6    6    0    0  0.34027588340E+02 -0.15192901152E+02 -0.55644885005E+01  0.37678436086E+02  0.00000000000E+00 0. -1.
         -5    1    3    3    0  503 -0.56878679363E+00  0.51398213037E+02 -0.86842789727E+03  0.86996046035E+03  0.47000000000E+01 0.  1.
         13    1    4    4    0    0 -0.44288196105E+02 -0.18171983805E+00 -0.22229037057E+03  0.22665940569E+03  0.00000000000E+00 0. -1.
        -14    1    4    4    0    0  0.29614087627E+01 -0.58981438803E+02 -0.20007673396E+03  0.20861035338E+03  0.00000000000E+00 0.  1.
</event>
<event>
12    1  0.8462562E-002  0.2712170E+03  0.7818608E-02  0.1100695E+00
         21   -1    0    0  503  502  0.00000000000E+00  0.00000000000E+00  0.37734808612E+03  0.37734808612E+03  0.00000000000E+00 0.  1.
         21   -1    0    0  501  503 -0.00000000000E+00 -0.00000000000E+00 -0.29045796721E+03  0.29045796721E+03  0.00000000000E+00 0.  1.
          6    2    1    2  501    0 -0.17721792989E+03 -0.11016246470E+03 -0.14863162412E+03  0.30859980941E+03  0.17204801473E+03 0.  0.
         24    2    3    3    0    0 -0.10729222790E+03 -0.13990403903E+03 -0.11551956891E+03  0.22557774461E+03  0.80347904508E+02 0.  0.
         -6    2    1    2    0  502  0.17721792989E+03  0.11016246470E+03  0.23552174303E+03  0.35920624392E+03  0.17325319890E+03 0.  0.
        -24    2    5    5    0    0  0.16187486011E+02  0.32589859468E+02  0.10636353263E+03  0.13863370199E+03  0.81129332616E+02 0.  0.
          5    1    3    3  501    0 -0.69925701990E+02  0.29741574328E+02 -0.33112055213E+02  0.83022064794E+02  0.47000000000E+01 0. -1.
        -11    1    4    4    0    0 -0.76847328967E+02 -0.35060809786E+02 -0.54203699846E+02  0.10036340682E+03  0.00000000000E+00 0.  1.
         12    1    4    4    0    0 -0.30444898937E+02 -0.10484322924E+03 -0.61315869061E+02  0.12521433779E+03  0.00000000000E+00 0. -1.
         -5    1    5    5    0  502  0.16103044388E+03  0.77572605232E+02  0.12915821040E+03  0.22057254193E+03  0.47000000000E+01 0.  1.
         11    1    6    6    0    0 -0.70105799700E+01  0.19014126729E+02 -0.75242636649E+01  0.21617117997E+02  0.00000000000E+00 0. -1.
        -12    1    6    6    0    0  0.23198065981E+02  0.13575732739E+02  0.11388779630E+03  0.11701658400E+03  0.00000000000E+00 0.  1.
</event>
<event>
12    1  0.8462562E-002  0.2814635E+03  0.7818608E-02  0.1095242E+00
         21   -1    0    0  503  502  0.00000000000E+00  0.00000000000E+00  0.15955246082E+03  0.15955246082E+03  0.00000000000E+00 0.  1.
         21   -1    0    0  501  503 -0.00000000000E+00 -0.00000000000E+00 -0.58156162553E+03  0.58156162553E+03  0.00000000000E+00 0.  1.
          6    2    1    2  501    0 -0.96479327923E+02  0.20105438307E+03 -0.66412547669E+02  0.28919258281E+03  0.17172826731E+03 0.  0.
         24    2    3    3    0    0 -0.10730504428E+03  0.14114416254E+03  0.60286276299E+01  0.19444953801E+03  0.79613009825E+02 0.  0.
         -6    2    1    2    0  502  0.96479327923E+02 -0.20105438307E+03 -0.35559661704E+03  0.45192150354E+03  0.16749019567E+03 0.  0.
        -24    2    5    5    0    0 -0.88322681332E+00 -0.11608984955E+03 -0.13085908671E+03  0.19263886517E+03  0.80672167080E+02 0.  0.
          5    1    3    3  501    0  0.10825716362E+02  0.59910220538E+02 -0.72441175299E+02  0.94743044802E+02  0.47000000000E+01 0. -1.
        -11    1    4    4    0    0 -0.68696960239E+01  0.71347232215E+02 -0.35774855897E+01  0.71766417434E+02  0.00000000000E+00 0.  1.
         12    1    4    4    0    0 -0.10043534826E+03  0.69796930321E+02  0.96061132196E+01  0.12268312057E+03  0.00000000000E+00 0. -1.
         -5    1    5    5    0  502  0.97362554736E+02 -0.84964533519E+02 -0.22473753033E+03  0.25928263837E+03  0.47000000000E+01 0.  1.
         13    1    6    6    0    0 -0.39920469883E+02 -0.44196094121E+02 -0.54259021757E+02  0.80566618977E+02  0.00000000000E+00 0. -1.
        -14    1    6    6    0    0  0.39037243070E+02 -0.71893755433E+02 -0.76600064949E+02  0.11207224619E+03  0.00000000000E+00 0.  1.
</event>
<event>
12    1  0.8462562E-002  0.2311210E+03  0.7818608E-02  0.1127063E+00
         21   -1    0    0  503  502  0.00000000000E+00  0.00000000000E+00  0.22783834133E+03  0.22783834133E+03  0.00000000000E+00 0.  1.
         21   -1    0    0  501  503 -0.00000000000E+00 -0.00000000000E+00 -0.27036333023E+03  0.27036333023E+03  0.00000000000E+00 0. -1.
          6    2    1    2  501    0 -0.57940849227E+02 -0.12638515674E+03  0.78069639083E+02  0.23751034235E+03  0.17602824866E+03 0.  0.
         24    2    3    3    0    0  0.15335917425E+01 -0.47372894265E+01  0.64256697602E+02  0.10131819830E+03  0.78177108572E+02 0.  0.
         -6    2    1    2    0  502  0.57940849227E+02  0.12638515674E+03 -0.12059462798E+03  0.26069132921E+03  0.18462544509E+03 0.  0.
        -24    2    5    5    0    0  0.67945676330E+02  0.15542488616E+03 -0.12958755071E+03  0.22834376193E+03  0.81082859738E+02 0.  0.
          5    1    3    3  501    0 -0.59474440970E+02 -0.12164786731E+03  0.13812941481E+02  0.13619214406E+03  0.47000000000E+01 0. -1.
        -11    1    4    4    0    0 -0.24261839681E+01  0.28976610725E+02  0.60550753128E+02  0.67170857090E+02  0.00000000000E+00 0.  1.
         12    1    4    4    0    0  0.39597757107E+01 -0.33713900152E+02  0.37059444738E+01  0.34147341208E+02  0.00000000000E+00 0. -1.
         -5    1    5    5    0  502 -0.10004827102E+02 -0.29039729419E+02  0.89929227251E+01  0.32347567285E+02  0.47000000000E+01 0.  1.
         11    1    6    6    0    0  0.23368183262E+02  0.72390298204E+02 -0.10987150054E+02  0.76857951634E+02  0.00000000000E+00 0. -1.
        -12    1    6    6    0    0  0.44577493068E+02  0.83034587953E+02 -0.11860040065E+03  0.15148581029E+03  0.00000000000E+00 0.  1.
</event>
<event>
12    1  0.8462562E-002  0.2071863E+03  0.7818608E-02  0.1143940E+00
         21   -1    0    0  503  502  0.00000000000E+00  0.00000000000E+00  0.20678133836E+03  0.20678133836E+03  0.00000000000E+00 0.  1.
         21   -1    0    0  501  503 -0.00000000000E+00 -0.00000000000E+00 -0.21226753522E+03  0.21226753522E+03  0.00000000000E+00 0.  1.
          6    2    1    2  501    0  0.10372698321E+02 -0.11417799216E+03 -0.35853963420E+02  0.20964889947E+03  0.17182243041E+03 0.  0.
         24    2    3    3    0    0  0.71527670912E+02 -0.86993727504E+02 -0.22439062846E+02  0.14123132516E+03  0.82211065755E+02 0.  0.
         -6    2    1    2    0  502 -0.10372698321E+02  0.11417799216E+03  0.30367766569E+02  0.20939997411E+03  0.17257445103E+03 0.  0.
        -24    2    5    5    0    0  0.50508780186E+02  0.56421854999E+02  0.53427419456E+02  0.12224400245E+03  0.79715396182E+02 0.  0.
          5    1    3    3  501    0 -0.61154972591E+02 -0.27184264654E+02 -0.13414900574E+02  0.68417574312E+02  0.47000000000E+01 0. -1.
        -11    1    4    4    0    0 -0.12106776100E+02 -0.95712383226E+01 -0.22473192559E+02  0.27262190198E+02  0.00000000000E+00 0.  1.
         12    1    4    4    0    0  0.83634447012E+02 -0.77422489182E+02  0.34129713575E-01  0.11396913496E+03  0.00000000000E+00 0. -1.
         -5    1    5    5    0  502 -0.60881478507E+02  0.57756137159E+02 -0.23059652887E+02  0.87155971660E+02  0.47000000000E+01 0.  1.
         13    1    6    6    0    0  0.44804734992E+02  0.87963083147E+01 -0.58030825504E+01  0.46027329759E+02  0.00000000000E+00 0. -1.
        -14    1    6    6    0    0  0.57040451945E+01  0.47625546684E+02  0.59230502007E+02  0.76216672694E+02  0.00000000000E+00 0.  1.
</event>
<event>
12    1  0.8462562E-002  0.2250645E+03  0.7818608E-02  0.1130211E+00
         21   -1    0    0  503  502  0.00000000000E+00  0.00000000000E+00  0.25237653192E+04  0.25237653192E+04  0.00000000000E+00 0.  1.
         21   -1    0    0  501  503 -0.00000000000E+00 -0.00000000000E+00 -0.39857158201E+02  0.39857158201E+02  0.00000000000E+00 0.  1.
          6    2    1    2  501    0  0.29262059005E+01 -0.14479405317E+03  0.33864422848E+03  0.40661275981E+03  0.17227925715E+03 0.  0.
         24    2    3    3    0    0  0.14284708471E+02 -0.84290217319E+02  0.84022072837E+02  0.14461226005E+03  0.80895632761E+02 0.  0.
         -6    2    1    2    0  502 -0.29262059005E+01  0.14479405317E+03  0.21452639325E+04  0.21570097176E+04  0.17192934916E+03 0.  0.
        -24    2    5    5    0    0 -0.64623644835E+02  0.12103335394E+03  0.15246773419E+04  0.15328935816E+04  0.79350155923E+02 0.  0.
          5    1    3    3  501    0 -0.11358502571E+02 -0.60503835847E+02  0.25462215564E+03  0.26200049976E+03  0.47000000000E+01 0. -1.
        -11    1    4    4    0    0  0.14074940064E+02 -0.54395516449E+02  0.96939288610E+02  0.11204553460E+03  0.00000000000E+00 0.  1.
         12    1    4    4    0    0  0.20976840729E+00 -0.29894700870E+02 -0.12917215773E+02  0.32566725445E+02  0.00000000000E+00 0. -1.
         -5    1    5    5    0  502  0.61697438934E+02  0.23760699227E+02  0.62058659059E+03  0.62411613601E+03  0.47000000000E+01 0.  1.
         11    1    6    6    0    0 -0.66376689729E+01 -0.11587736963E+02  0.10152812505E+03  0.10240260970E+03  0.00000000000E+00 0. -1.
        -12    1    6    6    0    0 -0.57985975862E+02  0.13262109090E+03  0.14231492169E+04  0.14304909719E+04  0.00000000000E+00 0.  1.
</event>
<event>
12    1  0.8462562E-002  0.2328960E+03  0.7818608E-02  0.1126013E+00
         21   -1    0    0  501  502  0.00000000000E+00  0.00000000000E+00  0.27979017815E+03  0.27979017815E+03  0.00000000000E+00 0.  1.
         21   -1    0    0  502  503 -0.00000000000E+00 -0.00000000000E+00 -0.75106312201E+03  0.75106312201E+03  0.00000000000E+00 0. -1.
         -6    2    1    2    0  503 -0.13403003835E+03 -0.81981062887E+02 -0.68114847911E+03  0.71734369670E+03  0.16103969308E+03 0.  0.
        -24    2    3    3    0    0 -0.95624759108E+02 -0.37448468014E+02 -0.24179766791E+03  0.27404995347E+03  0.78043465333E+02 0.  0.
          6    2    1    2  501    0  0.13403003835E+03  0.81981062887E+02  0.20987553526E+03  0.31350960346E+03  0.17191737932E+03 0.  0.
         24    2    5    5    0    0  0.29773697149E+02 -0.18846967014E+02  0.89752798977E+02  0.12512903635E+03  0.79749793767E+02 0.  0.
          5    1    5    5  501    0  0.10425634120E+03  0.10082802990E+03  0.12012273628E+03  0.18838056711E+03  0.47000000000E+01 0. -1.
        -11    1    6    6    0    0  0.50675746471E+02 -0.27427935504E+01  0.83972532827E+02  0.98116973385E+02  0.00000000000E+00 0.  1.
         12    1    6    6    0    0 -0.20902049322E+02 -0.16104173464E+02  0.57802661499E+01  0.27012062964E+02  0.00000000000E+00 0. -1.
         -5    1    3    3    0  503 -0.38405279237E+02 -0.44532594873E+02 -0.43935081120E+03  0.44329374323E+03  0.47000000000E+01 0.  1.
         11    1    4    4    0    0 -0.22734033318E+02 -0.49967177718E+02 -0.96926848039E+02  0.11139285880E+03  0.00000000000E+00 0. -1.
        -12    1    4    4    0    0 -0.72890725790E+02  0.12518709705E+02 -0.14487081987E+03  0.16265709467E+03  0.00000000000E+00 0.  1.
</event>
<event>
12    1  0.8462562E-002  0.1817328E+03  0.7818608E-02  0.1167319E+00
         21   -1    0    0  501  502  0.00000000000E+00  0.00000000000E+00  0.29643096076E+03  0.29643096076E+03  0.00000000000E+00 0. -1.
         21   -1    0    0  502  503 -0.00000000000E+00 -0.00000000000E+00 -0.12345405964E+03  0.12345405964E+03  0.00000000000E+00 0. -1.
         -6    2    1    2    0  503  0.12674689253E+02 -0.41802059903E+02  0.12261786425E+02  0.17728216695E+03  0.17137839815E+03 0.  0.
        -24    2    3    3    0    0  0.40872968998E+02 -0.28060883662E+02 -0.50818359031E+02  0.10667651805E+03  0.79620104889E+02 0.  0.
          6    2    1    2  501    0 -0.12674689253E+02  0.41802059903E+02  0.16071511469E+03  0.24260285345E+03  0.17640503523E+03 0.  0.
         24    2    5    5    0    0  0.15632636140E+02  0.82045321766E+02  0.15506399876E+03  0.19285499010E+03  0.78564555362E+02 0.  0.
          5    1    5    5  501    0 -0.28307325392E+02 -0.40243261864E+02  0.56511159252E+01  0.49747863346E+02  0.47000000000E+01 0. -1.
        -11    1    6    6    0    0 -0.28908956023E+02  0.12957174606E+02  0.33499753853E+02  0.46106936792E+02  0.00000000000E+00 0.  1.
         12    1    6    6    0    0  0.44541592162E+02  0.69088147160E+02  0.12156424491E+03  0.14674805331E+03  0.00000000000E+00 0. -1.
         -5    1    3    3    0  503 -0.28198279745E+02 -0.13741176240E+02  0.63080145457E+02  0.70605648895E+02  0.47000000000E+01 0.  1.
         11    1    4    4    0    0  0.51486125099E+02 -0.24999188359E+02 -0.26908280054E+01  0.57297653108E+02  0.00000000000E+00 0. -1.
        -12    1    4    4    0    0 -0.10613156101E+02 -0.30616953030E+01 -0.48127531026E+02  0.49378864945E+02  0.00000000000E+00 0.  1.
</event>
<event>
12    1  0.8462562E-002  0.1911449E+03  0.7818608E-02  0.1159510E+00
         21   -1    0    0  503  502  0.00000000000E+00  0.00000000000E+00  0.24118594168E+03  0.24118594168E+03  0.00000000000E+00 0.  1.
         21   -1    0    0  501  503 -0.00000000000E+00 -0.00000000000E+00 -0.14839529462E+03  0.14839529462E+03  0.00000000000E+00 0.  1.
          6    2    1    2  501    0 -0.35874179439E+02 -0.45949716802E+02  0.15542650875E+02  0.19177580730E+03  0.18203860317E+03 0.  0.
         24    2    3    3    0    0 -0.91327507741E+02 -0.58483982003E+01  0.27095975316E+01  0.12199067542E+03  0.80619262827E+02 0.  0.
         -6    2    1    2    0  502  0.35874179439E+02  0.45949716802E+02  0.77247996182E+02  0.19780542900E+03  0.17251493154E+03 0.  0.
        -24    2    5    5    0    0 -0.18303913794E+02  0.56065636890E+02  0.97624315660E+02  0.13885729908E+03  0.79198823227E+02 0.  0.
          5    1    3    3  501    0  0.55453328302E+02 -0.40101318601E+02  0.12833053344E+02  0.69785131880E+02  0.47000000000E+01 0. -1.
        -13    1    4    4    0    0 -0.55549916799E+02 -0.38681673264E+02  0.19773562074E+02  0.70519918179E+02  0.00000000000E+00 0.  1.
         14    1    4    4    0    0 -0.35777590943E+02  0.32833275064E+02 -0.17063964542E+02  0.51470757241E+02  0.00000000000E+00 0. -1.
         -5    1    5    5    0  502  0.54178093233E+02 -0.10115920089E+02 -0.20376319478E+02  0.58948129920E+02  0.47000000000E+01 0.  1.
         11    1    6    6    0    0 -0.36470017465E+02  0.36863874444E+02  0.17888779293E+02  0.54854496967E+02  0.00000000000E+00 0. -1.
        -12    1    6    6    0    0  0.18166103671E+02  0.19201762446E+02  0.79735536367E+02  0.84002802116E+02  0.00000000000E+00 0.  1.
</event>
<event>
12    1  0.8462562E-002  0.2185574E+03  0.7818608E-02  0.1135077E+00
         21   -1    0    0  503  502  0.00000000000E+00  0.00000000000E+00  0.39457517544E+03  0.39457517544E+03  0.00000000000E+00 0. -1.
         21   -1    0    0  501  503 -0.00000000000E+00 -0.00000000000E+00 -0.12122452428E+03  0.12122452428E+03  0.00000000000E+00 0. -1.
          6    2    1    2  501    0 -0.10136071018E+03  0.87126523235E+02  0.15302168928E+03  0.26630744944E+03  0.17215979674E+03 0.  0.
         24    2    3    3    0    0 -0.99865556622E+00  0.11412802111E+02  0.20658860374E+02  0.83695516502E+02  0.80292599943E+02 0.  0.
         -6    2    1    2    0  502  0.10136071018E+03 -0.87126523235E+02  0.12032896187E+03  0.24949225028E+03  0.17292281303E+03 0.  0.
        -24    2    5    5    0    0  0.13353506496E+03 -0.77385307101E+02  0.12709256923E+03  0.21488131586E+03  0.78748710606E+02 0.  0.
          5    1    3    3  501    0 -0.10036205462E+03  0.75713721125E+02  0.13236282891E+03  0.18261193294E+03  0.47000000000E+01 0. -1.
        -11    1    4    4    0    0  0.11804127335E+02 -0.23114524920E+02  0.35514399544E+02  0.43987398870E+02  0.00000000000E+00 0.  1.
         12    1    4    4    0    0 -0.12802782901E+02  0.34527327030E+02 -0.14855539169E+02  0.39708117632E+02  0.00000000000E+00 0. -1.
         -5    1    5    5    0  502 -0.32174354778E+02 -0.97412161346E+01 -0.67636073574E+01  0.34610934424E+02  0.47000000000E+01 0.  1.
         11    1    6    6    0    0  0.12755138213E+03 -0.77200861362E+02  0.83510133595E+02  0.17088964419E+03  0.00000000000E+00 0. -1.
        -12    1    6    6    0    0  0.59836828352E+01 -0.18444573849E+00  0.43582435635E+02  0.43991671671E+02  0.00000000000E+00 0.  1.
</event>
<event>
12    1  0.8462562E-002  0.1968931E+03  0.7818608E-02  0.1153424E+00
         21   -1    0    0  501  502  0.00000000000E+00  0.00000000000E+00  0.21680449631E+02  0.21680449631E+02  0.00000000000E+00 0. -1.
         21   -1    0    0  502  503 -0.00000000000E+00 -0.00000000000E+00 -0.18630551933E+04  0.18630551933E+04  0.00000000000E+00 0. -1.
         -6    2    1    2    0  503  0.91805605093E+02  0.28063893124E+02 -0.11682353201E+04  0.11847112175E+04  0.17190420184E+03 0.  0.
        -24    2    3    3    0    0  0.30271205001E+02  0.70563414955E+02 -0.48832904557E+03  0.50068832034E+03  0.79548702018E+02 0.  0.
          6    2    1    2  501    0 -0.91805605093E+02 -0.28063893124E+02 -0.67313942356E+03  0.70002442539E+03  0.16643816077E+03 0.  0.
         24    2    5    5    0    0 -0.18030813965E+02 -0.27621202164E+02 -0.54685261367E+03  0.55369136646E+03  0.80239062527E+02 0.  0.
          5    1    5    5  501    0 -0.73774791128E+02 -0.44269095982E+00 -0.12628680989E+03  0.14633305892E+03  0.47000000000E+01 0. -1.
        -13    1    6    6    0    0 -0.19211218982E+02 -0.39505343761E+00 -0.49264045807E+03  0.49301505852E+03  0.00000000000E+00 0.  1.
         14    1    6    6    0    0  0.11804050169E+01 -0.27226148726E+02 -0.54212155606E+02  0.60676307946E+02  0.00000000000E+00 0. -1.
         -5    1    3    3    0  503  0.61534400092E+02 -0.42499521831E+02 -0.67990627449E+03  0.68402289716E+03  0.47000000000E+01 0.  1.
         13    1    4    4    0    0  0.50651327306E+02  0.20939977470E+02 -0.19806349258E+03  0.20550714515E+03  0.00000000000E+00 0. -1.
        -14    1    4    4    0    0 -0.20380122305E+02  0.49623437484E+02 -0.29026555299E+03  0.29518117519E+03  0.00000000000E+00 0.  1.
</event>
<event>
12    1  0.8462562E-002  0.2027529E+03  0.7818608E-02  0.1148040E+00
         21   -1    0    0  503  502  0.00000000000E+00  0.00000000000E+00  0.12865878272E+04  0.12865878272E+04  0.00000000000E+00 0.  1.
         21   -1    0    0  501  503 -0.00000000000E+00 -0.00000000000E+00 -0.19003024164E+03  0.19003024164E+03  0.00000000000E+00 0.  1.
          6    2    1    2  501    0  0.10307024581E+03  0.17321154974E+02 -0.12541614465E+03  0.23840713744E+03  0.17373904531E+03 0.  0.
         24    2    3    3    0    0  0.12262596624E+03  0.36209064099E+02 -0.14768005402E+03  0.20295363305E+03  0.55068638028E+02 0.  0.
         -6    2    1    2    0  502 -0.10307024581E+03 -0.17321154974E+02  0.12219737302E+04  0.12382109314E+04  0.17036142563E+03 0.  0.
        -24    2    5    5    0    0 -0.83117585092E+02  0.95982444633E+01  0.42166089601E+03  0.43718316327E+03  0.79564739519E+02 0.  0.
          5    1    3    3  501    0 -0.19555720435E+02 -0.18887909125E+02  0.22263909372E+02  0.35453504388E+02  0.47000000000E+01 0. -1.
        -13    1    4    4    0    0  0.28034037711E+02  0.30432645413E+02 -0.26573536112E+02  0.49175257993E+02  0.00000000000E+00 0.  1.
         14    1    4    4    0    0  0.94591928533E+02  0.57764186856E+01 -0.12110651791E+03  0.15377837506E+03  0.00000000000E+00 0. -1.
         -5    1    5    5    0  502 -0.19952660716E+02 -0.26919399437E+02  0.80031283420E+03  0.80102776813E+03  0.47000000000E+01 0.  1.
         13    1    6    6    0    0 -0.56859252040E+02  0.16565534353E+02  0.39395022322E+03  0.39837691932E+03  0.00000000000E+00 0. -1.
        -14    1    6    6    0    0 -0.26258333052E+02 -0.69672898900E+01  0.27710672786E+02  0.38806243948E+02  0.00000000000E+00 0.  1.
</event>
<event>
12    1  0.8462562E-002  0.1899556E+03  0.7818608E-02  0.1159421E+00
         21   -1    0    0  503  502  0.00000000000E+00  0.00000000000E+00  0.51882735742E+02  0.51882735742E+02  0.00000000000E+00 0.  1.
         21   -1    0    0  501  503 -0.00000000000E+00 -0.00000000000E+00 -0.95238289048E+03  0.95238289048E+03  0.00000000000E+00 0.  1.
          6    2    1    2  501    0 -0.44227563500E+02 -0.65391982708E+02 -0.72183458843E+03  0.74641026592E+03  0.17277419727E+03 0.  0.
         24    2    3    3    0    0  0.41760395237E+02 -0.23042374744E+02 -0.41851006268E+03  0.42826678215E+03  0.77374947418E+02 0.  0.
         -6    2    1    2    0  502  0.44227563500E+02  0.65391982708E+02 -0.17866556631E+03  0.25785536030E+03  0.16833244927E+03 0.  0.
        -24    2    5    5    0    0  0.15212487688E+02  0.10327560514E+03 -0.84537013821E+02  0.15221768773E+03  0.71599213348E+02 0.  0.
          5    1    3    3  501    0 -0.85987958736E+02 -0.42349607963E+02 -0.30332452575E+03  0.31814348377E+03  0.47000000000E+01 0. -1.
        -13    1    4    4    0    0  0.65753385132E+00  0.13750774297E+02 -0.26123663801E+03  0.26159911541E+03  0.00000000000E+00 0.  1.
         14    1    4    4    0    0  0.41102861385E+02 -0.36793149042E+02 -0.15727342467E+03  0.16666766674E+03  0.00000000000E+00 0. -1.
         -5    1    5    5    0  502  0.29015075811E+02 -0.37883622437E+02 -0.94128552485E+02  0.10563767257E+03  0.47000000000E+01 0.  1.
         13    1    6    6    0    0  0.44131328125E+02  0.64727096122E+02 -0.54502786223E+02  0.95434400509E+02  0.00000000000E+00 0. -1.
        -14    1    6    6    0    0 -0.28918840436E+02  0.38548509023E+02 -0.30034227598E+02  0.56783287220E+02  0.00000000000E+00 0.  1.
</event>
<event>
12    1  0.8462562E-002  0.1986800E+03  0.7818608E-02  0.1151059E+00
         21   -1    0    0  501  502  0.00000000000E+00  0.00000000000E+00  0.58285324228E+03  0.58285324228E+03  0.00000000000E+00 0.  1.
         21   -1    0    0  502  503 -0.00000000000E+00 -0.00000000000E+00 -0.67491265274E+02  0.67491265274E+02  0.00000000000E+00 0.  1.
         -6    2    1    2    0  503  0.61886696532E+02  0.78662154753E+02  0.27008212067E+03  0.33528807977E+03  0.17162763975E+03 0.  0.
        -24    2    3    3    0    0  0.70239522861E+02  0.97925823810E+02  0.27734988228E+03  0.31257753129E+03  0.79111935432E+02 0.  0.
          6    2    1    2  501    0 -0.61886696532E+02 -0.78662154753E+02  0.24527985633E+03  0.31505642779E+03  0.17053048692E+03 0.  0.
         24    2    5    5    0    0  0.10805990801E+01 -0.71333171466E+02  0.66252812354E+02  0.12507914812E+03  0.78522411481E+02 0.  0.
          5    1    5    5  501    0 -0.62967295612E+02 -0.73289832868E+01  0.17902704398E+03  0.18997727966E+03  0.47000000000E+01 0. -1.
        -11    1    6    6    0    0 -0.24337001689E+02 -0.56276240067E+02  0.10813118076E+02  0.62259363712E+02  0.00000000000E+00 0.  1.
         12    1    6    6    0    0  0.25417600769E+02 -0.15056931400E+02  0.55439694278E+02  0.62819784413E+02  0.00000000000E+00 0. -1.
         -5    1    3    3    0  503 -0.83528263291E+01 -0.19263669057E+02 -0.72677616061E+01  0.22710548474E+02  0.47000000000E+01 0.  1.
         11    1    4    4    0    0  0.44987202354E+02  0.21474118444E+02  0.46809624748E+02  0.68382213387E+02  0.00000000000E+00 0. -1.
        -12    1    4    4    0    0  0.25252320506E+02  0.76451705366E+02  0.23054025753E+03  0.24419531791E+03  0.00000000000E+00 0.  1.
</event>
<event>
12    1  0.8462562E-002  0.2670523E+03  0.7818608E-02  0.1103068E+00
         21   -1    0    0  501  502  0.00000000000E+00  0.00000000000E+00  0.74544501684E+03  0.74544501684E+03  0.00000000000E+00 0. -1.
         21   -1    0    0  502  503 -0.00000000000E+00 -0.00000000000E+00 -0.11810187900E+03  0.11810187900E+03  0.00000000000E+00 0.  1.
         -6    2    1    2    0  503 -0.20227725305E+03  0.28368149253E+02  0.12427903197E+03  0.29399407628E+03  0.17107425320E+03 0.  0.
        -24    2    3    3    0    0 -0.20996148798E+03  0.26096264800E+02  0.14717793703E+03  0.26928256523E+03  0.78018672887E+02 0.  0.
          6    2    1    2  501    0  0.20227725305E+03 -0.28368149253E+02  0.50306410586E+03  0.56955281956E+03  0.17203511464E+03 0.  0.
         24    2    5    5    0    0  0.98867253041E+02 -0.56248300135E+02  0.16638004600E+03  0.21621278916E+03  0.78275446339E+02 0.  0.
          5    1    5    5  501    0  0.10341000001E+03  0.27880150882E+02  0.33668405986E+03  0.35334003039E+03  0.47000000000E+01 0. -1.
        -11    1    6    6    0    0  0.83911250415E+02 -0.10296734012E+02  0.75790107248E+02  0.11353968925E+03  0.00000000000E+00 0.  1.
         12    1    6    6    0    0  0.14956002625E+02 -0.45951566123E+02  0.90589938751E+02  0.10267309992E+03  0.00000000000E+00 0. -1.
         -5    1    3    3    0  503  0.76842349302E+01  0.22718844525E+01 -0.22898905060E+02  0.24711511050E+02  0.47000000000E+01 0.  1.
         11    1    4    4    0    0 -0.14008869104E+03 -0.44521855073E+01  0.12988313515E+03  0.19108713225E+03  0.00000000000E+00 0. -1.
        -12    1    4    4    0    0 -0.69872796937E+02  0.30548450307E+02  0.17294801882E+02  0.78195432988E+02  0.00000000000E+00 0.  1.
</event>
<event>
12    1  0.8462562E-002  0.1932463E+03  0.7818608E-02  0.1155696E+00
         21   -1    0    0  501  502  0.00000000000E+00  0.00000000000E+00  0.24158636230E+03  0.24158636230E+03  0.00000000000E+00 0.  1.
         21   -1    0    0  502  503 -0.00000000000E+00 -0.00000000000E+00 -0.17804329770E+03  0.17804329770E+03  0.00000000000E+00 0.  1.
         -6    2    1    2    0  503 -0.84281328322E+02 -0.24189158264E+02  0.10874600970E+03  0.22174273523E+03  0.17220827019E+03 0.  0.
        -24    2    3    3    0    0 -0.58281444611E+02  0.42797080906E+02 -0.12954329318E-01  0.91305959562E+02  0.55753575343E+02 0.  0.
          6    2    1    2  501    0  0.84281328322E+02  0.24189158264E+02 -0.45202945095E+02  0.19788692477E+03  0.17154437055E+03 0.  0.
         24    2    5    5    0    0  0.92845732688E+02  0.72661033687E+02 -0.41935786823E+02  0.14833255006E+03  0.79649101039E+02 0.  0.
          5    1    5    5  501    0 -0.85644043668E+01 -0.48471875422E+02 -0.32671582725E+01  0.49554374704E+02  0.47000000000E+01 0. -1.
        -11    1    6    6    0    0  0.44271163857E+02  0.54350556242E+02  0.14574157381E+02  0.71598358755E+02  0.00000000000E+00 0.  1.
         12    1    6    6    0    0  0.48574568831E+02  0.18310477445E+02 -0.56509944204E+02  0.76734191306E+02  0.00000000000E+00 0. -1.
         -5    1    3    3    0  503 -0.25999883710E+02 -0.66986239170E+02  0.10875896403E+03  0.13043677567E+03  0.47000000000E+01 0.  1.
         11    1    4    4    0    0 -0.56446752713E+02  0.55070344251E+02 -0.88810647631E+00  0.78865502223E+02  0.00000000000E+00 0. -1.
        -12    1    4    4    0    0 -0.18346918983E+01 -0.12273263345E+02  0.87515214700E+00  0.12440457338E+02  0.00000000000E+00 0.  1.
</event>
<event>
12    1  0.8462562E-002  0.1721773E+03  0.7818608E-02  0.1175858E+00
         21   -1    0    0  503  502  0.00000000000E+00  0.00000000000E+00  0.15536819990E+03  0.15536819990E+03  0.00000000000E+00 0.  1.
         21   -1    0    0  501  503 -0.00000000000E+00 -0.00000000000E+00 -0.39352997054E+03  0.39352997054E+03  0.00000000000E+00 0.  1.
          6    2    1    2  501    0 -0.24966416054E+00  0.81881548813E+01 -0.31643927247E+03  0.35976229440E+03  0.17096194634E+03 0.  0.
         24    2    3    3    0    0  0.48262246026E+02 -0.30544394342E+02 -0.13147059958E+03  0.16459796428E+03  0.80905913717E+02 0.  0.
         -6    2    1    2    0  502  0.24966416054E+00 -0.81881548813E+01  0.78277501836E+02  0.18913587604E+03  0.17198227845E+03 0.  0.
        -24    2    5    5    0    0  0.27026104717E+02  0.36936978792E+01 -0.19430793621E+02  0.87022423473E+02  0.80319939656E+02 0.  0.
          5    1    3    3  501    0 -0.48511910186E+02  0.38732549223E+02 -0.18496867289E+03  0.19516433011E+03  0.47000000000E+01 0. -1.
        -11    1    4    4    0    0  0.43682928792E+02 -0.34605453410E+02 -0.14193015383E+03  0.15247919281E+03  0.00000000000E+00 0.  1.
         12    1    4    4    0    0  0.45793172336E+01  0.40610590683E+01  0.10459554245E+02  0.12118771476E+02  0.00000000000E+00 0. -1.
         -5    1    5    5    0  502 -0.26776440556E+02 -0.11881852761E+02  0.97708295457E+02  0.10211345257E+03  0.47000000000E+01 0.  1.
         13    1    6    6    0    0 -0.17849121480E+02  0.18701938440E+02  0.13700167072E+02  0.29258301673E+02  0.00000000000E+00 0. -1.
        -14    1    6    6    0    0  0.44875226196E+02 -0.15008240561E+02 -0.33130960693E+02  0.57764121800E+02  0.00000000000E+00 0.  1.
</event>
<event>
12    1  0.8462562E-002  0.1768252E+03  0.7818608E-02  0.1170987E+00
         21   -1    0    0  503  502  0.00000000000E+00  0.00000000000E+00  0.27949144889E+02  0.27949144889E+02  0.00000000000E+00 0.  1.
         21   -1    0    0  501  503 -0.00000000000E+00 -0.00000000000E+00 -0.11329073826E+04  0.11329073826E+04  0.00000000000E+00 0.  1.
          6    2    1    2  501    0  0.33665178034E+02  0.12443965178E+02 -0.62218513375E+03  0.64682416686E+03  0.17314434928E+03 0.  0.
         24    2    3    3    0    0  0.23367880159E+02 -0.21175845662E+02 -0.59746320848E+03  0.60358541557E+03  0.79740793393E+02 0.  0.
         -6    2    1    2    0  502 -0.33665178034E+02 -0.12443965178E+02 -0.48277310399E+03  0.51403236066E+03  0.17283287126E+03 0.  0.
        -24    2    5    5    0    0 -0.34818996246E+02  0.50666155010E+02 -0.33971738402E+03  0.35759947543E+03  0.93220502340E+02 0.  0.
          5    1    3    3  501    0  0.10297297875E+02  0.33619810840E+02 -0.24721925272E+02  0.43238751295E+02  0.47000000000E+01 0. -1.
        -11    1    4    4    0    0 -0.23590895432E+02 -0.17517951430E+02 -0.11017256123E+03  0.11402369148E+03  0.00000000000E+00 0.  1.
         12    1    4    4    0    0  0.46958775591E+02 -0.36578942315E+01 -0.48729064725E+03  0.48956172409E+03  0.00000000000E+00 0. -1.
         -5    1    5    5    0  502  0.11538182113E+01 -0.63110120188E+02 -0.14305571997E+03  0.15643288523E+03  0.47000000000E+01 0.  1.
         11    1    6    6    0    0 -0.16646363853E+02 -0.94481625993E+01 -0.93249978592E+01  0.21291425295E+02  0.00000000000E+00 0. -1.
        -12    1    6    6    0    0 -0.18172632393E+02  0.60114317609E+02 -0.33039238616E+03  0.33630805013E+03  0.00000000000E+00 0.  1.
</event>
<event>
12    1  0.8462562E-002  0.1835668E+03  0.7818608E-02  0.1164802E+00
         21   -1    0    0  503  502  0.00000000000E+00  0.00000000000E+00  0.22628614839E+03  0.22628614839E+03  0.00000000000E+00 0. -1.
         21   -1    0    0  501  503 -0.00000000000E+00 -0.00000000000E+00 -0.16482472124E+03  0.16482472124E+03  0.00000000000E+00 0. -1.
          6    2    1    2  501    0  0.18246232577E+02 -0.60859616874E+02 -0.32496202678E+02  0.18642094324E+03  0.17222063442E+03 0.  0.
         24    2    3    3    0    0  0.73269011054E+02 -0.14214922091E+02 -0.51730521486E+01  0.10914301459E+03  0.79467132661E+02 0.  0.
         -6    2    1    2    0  502 -0.18246232577E+02  0.60859616874E+02  0.93957629823E+02  0.20468992639E+03  0.17039105549E+03 0.  0.
        -24    2    5    5    0    0 -0.69797599824E+01  0.10517870662E+03  0.87686991578E+02  0.15829460308E+03  0.79100540431E+02 0.  0.
          5    1    3    3  501    0 -0.55022778477E+02 -0.46644694783E+02 -0.27323150530E+02  0.77277928657E+02  0.47000000000E+01 0. -1.
        -13    1    4    4    0    0 -0.11345528001E+02 -0.12156421303E+02  0.14708214526E+02  0.22199800879E+02  0.00000000000E+00 0.  1.
         14    1    4    4    0    0  0.84614539055E+02 -0.20585007876E+01 -0.19881266675E+02  0.86943213706E+02  0.00000000000E+00 0. -1.
         -5    1    5    5    0  502 -0.11266472595E+02 -0.44319089746E+02  0.62706382454E+01  0.46395323306E+02  0.47000000000E+01 0.  1.
         13    1    6    6    0    0 -0.22235878981E+02  0.10661040629E+03  0.91794488214E+02  0.14243047816E+03  0.00000000000E+00 0. -1.
        -14    1    6    6    0    0  0.15256118998E+02 -0.14316996662E+01 -0.41074966363E+01  0.15864124919E+02  0.00000000000E+00 0.  1.
</event>
<event>
12    1  0.8462562E-002  0.2267446E+03  0.7818608E-02  0.1128984E+00
         21   -1    0    0  503  502  0.00000000000E+00  0.00000000000E+00  0.62908051798E+02  0.62908051798E+02  0.00000000000E+00 0. -1.
         21   -1    0    0  501  503 -0.00000000000E+00 -0.00000000000E+00 -0.81977629840E+03  0.81977629840E+03  0.00000000000E+00 0.  1.
          6    2    1    2  501    0 -0.13997089243E+03 -0.47681572445E+02 -0.35123050453E+03  0.41806214842E+03  0.17189447215E+03 0.  0.
         24    2    3    3    0    0 -0.11944661338E+03 -0.69920621077E+02 -0.35229680227E+03  0.38741825334E+03  0.82604354803E+02 0.  0.
         -6    2    1    2    0  502  0.13997089243E+03  0.47681572445E+02 -0.40563774207E+03  0.46462220177E+03  0.17165788507E+03 0.  0.
        -24    2    5    5    0    0  0.14824266771E+03  0.85118149867E+02 -0.34559408248E+03  0.39322716937E+03  0.77274503653E+02 0.  0.
          5    1    3    3  501    0 -0.20524279052E+02  0.22239048631E+02  0.10662977478E+01  0.30643895077E+02  0.47000000000E+01 0. -1.
        -11    1    4    4    0    0 -0.54629503248E+02 -0.16068619953E+02 -0.57946110610E+02  0.81242445231E+02  0.00000000000E+00 0.  1.
         12    1    4    4    0    0 -0.64817110134E+02 -0.53852001123E+02 -0.29435069166E+03  0.30617580811E+03  0.00000000000E+00 0. -1.
         -5    1    5    5    0  502 -0.82717752728E+01 -0.37436577422E+02 -0.60043659588E+02  0.71395032404E+02  0.47000000000E+01 0.  1.
         11    1    6    6    0    0  0.41084516226E+02  0.42182116997E+02 -0.55127726237E+02  0.80661853859E+02  0.00000000000E+00 0. -1.
        -12    1    6    6    0    0  0.10715815148E+03  0.42936032870E+02 -0.29046635625E+03  0.31256531551E+03  0.00000000000E+00 0.  1.
</event>
<event>
12    1  0.8462562E-002  0.2250767E+03  0.7818608E-02  0.1130388E+00
         21   -1    0    0  501  502  0.00000000000E+00  0.00000000000E+00  0.36562733538E+03  0.36562733538E+03  0.00000000000E+00 0. -1.
         21   -1    0    0  502  503 -0.00000000000E+00 -0.00000000000E+00 -0.21805439957E+03  0.21805439957E+03  0.00000000000E+00 0. -1.
         -6    2    1    2    0  503  0.23567847090E+02  0.14368999211E+03 -0.10344175464E+03  0.24653505807E+03  0.16993257782E+03 0.  0.
        -24    2    3    3    0    0  0.13579017846E+01  0.47777695992E+02  0.14105134721E+02  0.93134238591E+02  0.78679599903E+02 0.  0.
          6    2    1    2  501    0 -0.23567847090E+02 -0.14368999211E+03  0.25101469045E+03  0.33714667688E+03  0.17163114420E+03 0.  0.
         24    2    5    5    0    0 -0.56869839512E+02 -0.26278678211E+02  0.10735917898E+03  0.14859049080E+03  0.81414943783E+02 0.  0.
          5    1    5    5  501    0  0.33301992422E+02 -0.11741131390E+03  0.14365551148E+03  0.18855618608E+03  0.47000000000E+01 0. -1.
        -11    1    6    6    0    0 -0.14426313161E+01  0.26287619456E+02  0.28496761992E+02  0.38796721071E+02  0.00000000000E+00 0.  1.
         12    1    6    6    0    0 -0.55427208196E+02 -0.52566297668E+02  0.78862416984E+02  0.10979376973E+03  0.00000000000E+00 0. -1.
         -5    1    3    3    0  503  0.22209945305E+02  0.95912296120E+02 -0.11754688936E+03  0.15340081947E+03  0.47000000000E+01 0.  1.
         13    1    4    4    0    0 -0.12488337135E+02  0.39286894514E+02 -0.26767918478E+02  0.49152213629E+02  0.00000000000E+00 0. -1.
        -14    1    4    4    0    0  0.13846238919E+02  0.84908014776E+01  0.40873053199E+02  0.43982024962E+02  0.00000000000E+00 0.  1.
</event>
<event>
12    1  0.8462562E-002  0.1841147E+03  0.7818608E-02  0.1165178E+00
         21   -1    0    0  501  502  0.00000000000E+00  0.00000000000E+00  0.38958648121E+03  0.38958648121E+03  0.00000000000E+00 0.  1.
         21   -1    0    0  502  503 -0.00000000000E+00 -0.00000000000E+00 -0.10502232452E+03  0.10502232452E+03  0.00000000000E+00 0.  1.
         -6    2    1    2    0  503  0.27789477448E+02 -0.51307287654E+02  0.31144361150E+02  0.18136795016E+03  0.16887767553E+03 0.  0.
        -24    2    3    3    0    0  0.56965122577E+02  0.17870748856E+02 -0.94396292059E+00  0.99584274861E+02  0.79697853664E+02 0.  0.
          6    2    1    2  501    0 -0.27789477448E+02  0.51307287654E+02  0.25341979554E+03  0.31324085557E+03  0.17462401896E+03 0.  0.
         24    2    5    5    0    0 -0.37678777441E+02  0.91420575444E+02  0.15223392392E+03  0.20384458174E+03  0.92736368416E+02 0.  0.
          5    1    5    5  501    0  0.98892999933E+01 -0.40113287791E+02  0.10118587162E+03  0.10939627383E+03  0.47000000000E+01 0. -1.
        -13    1    6    6    0    0 -0.17881443661E+02  0.28414766782E+02  0.12983686272E+03  0.13410725529E+03  0.00000000000E+00 0.  1.
         14    1    6    6    0    0 -0.19797333780E+02  0.63005808663E+02  0.22397061197E+02  0.69737326449E+02  0.00000000000E+00 0. -1.
         -5    1    3    3    0  503 -0.29175645129E+02 -0.69178036510E+02  0.32088324070E+02  0.81783675301E+02  0.47000000000E+01 0.  1.
         11    1    4    4    0    0 -0.24459654762E+01 -0.25557343755E+02  0.32201497866E+01  0.25875276454E+02  0.00000000000E+00 0. -1.
        -12    1    4    4    0    0  0.59411088053E+02  0.43428092611E+02 -0.41641127072E+01  0.73708998407E+02  0.00000000000E+00 0.  1.
</event>
<event>
12    1  0.8462562E-002  0.1960451E+03  0.7818608E-02  0.1155193E+00
         21   -1    0    0  503  502  0.00000000000E+00  0.00000000000E+00  0.31436184317E+03  0.31436184317E+03  0.00000000000E+00 0.  1.
         21   -1    0    0  501  503 -0.00000000000E+00 -0.00000000000E+00 -0.42858938436E+03  0.42858938436E+03  0.00000000000E+00 0.  1.
          6    2    1    2  501    0 -0.21640020116E+02 -0.70622313395E+02  0.26022695084E+03  0.32028132694E+03  0.17148253795E+03 0.  0.
         24    2    3    3    0    0 -0.55283767872E+02 -0.10487467498E+03  0.20815111233E+03  0.24929464513E+03  0.69035802915E+02 0.  0.
         -6    2    1    2    0  502  0.21640020116E+02  0.70622313395E+02 -0.37445449202E+03  0.42266990059E+03  0.18159811852E+03 0.  0.
        -24    2    5    5    0    0  0.39572500635E+02  0.47608489911E+02 -0.86546868055E+02  0.13324961818E+03  0.80203174862E+02 0.  0.
          5    1    3    3  501    0  0.33643747757E+02  0.34252361589E+02  0.52075838509E+02  0.70986681807E+02  0.47000000000E+01 0. -1.
        -11    1    4    4    0    0 -0.54556666150E+01 -0.12503399069E+02  0.90956129067E+02  0.91973456505E+02  0.00000000000E+00 0.  1.
         12    1    4    4    0    0 -0.49828101257E+02 -0.92371275916E+02  0.11719498326E+03  0.15732118862E+03  0.00000000000E+00 0. -1.
         -5    1    5    5    0  502 -0.17932480520E+02  0.23013823484E+02 -0.28790762397E+03  0.28942028241E+03  0.47000000000E+01 0.  1.
         11    1    6    6    0    0  0.59395855116E+02  0.50823996448E+02 -0.54016364477E+02  0.95019544575E+02  0.00000000000E+00 0. -1.
        -12    1    6    6    0    0 -0.19823354480E+02 -0.32155065372E+01 -0.32530503578E+02  0.38230073610E+02  0.00000000000E+00 0.  1.
</event>
<event>
12    1  0.8462562E-002  0.1924036E+03  0.7818608E-02  0.1156427E+00
         21   -1    0    0  503  502  0.00000000000E+00  0.00000000000E+00  0.22063905109E+02  0.22063905109E+02  0.00000000000E+00 0.  1.
         21   -1    0    0  501  503 -0.00000000000E+00 -0.00000000000E+00 -0.20155140243E+04  0.20155140243E+04  0.00000000000E+00 0. -1.
          6    2    1    2  501    0  0.11803702229E+02  0.85488831495E+02 -0.57803344337E+03  0.60921410517E+03  0.17196364904E+03 0.  0.
         24    2    3    3    0    0  0.15199536657E+02  0.13068986701E+03 -0.43486593337E+03  0.45896866856E+03  0.65061443729E+02 0.  0.
         -6    2    1    2    0  502 -0.11803702229E+02 -0.85488831495E+02 -0.14154166758E+04  0.14283638242E+04  0.17138022202E+03 0.  0.
        -24    2    5    5    0    0  0.31864006285E+02  0.88853310416E+01 -0.71802049928E+03  0.72324194231E+03  0.80194798602E+02 0.  0.
          5    1    3    3  501    0 -0.33958344283E+01 -0.45201035516E+02 -0.14316751000E+03  0.15024543661E+03  0.47000000000E+01 0. -1.
        -13    1    4    4    0    0 -0.46991615659E+01  0.12218936090E+03 -0.33079828806E+03  0.35267524639E+03  0.00000000000E+00 0.  1.
         14    1    4    4    0    0  0.19898698223E+02  0.85005061115E+01 -0.10406764531E+03  0.10629342217E+03  0.00000000000E+00 0. -1.
         -5    1    5    5    0  502 -0.43667708514E+02 -0.94374162537E+02 -0.69739617649E+03  0.70512188188E+03  0.47000000000E+01 0.  1.
         11    1    6    6    0    0  0.19536230114E+02  0.25657831893E+02 -0.67153308920E+03  0.67230698235E+03  0.00000000000E+00 0. -1.
        -12    1    6    6    0    0  0.12327776171E+02 -0.16772500851E+02 -0.46487410083E+02  0.50934959962E+02  0.00000000000E+00 0.  1.
</event>
<event>
12    1  0.8462562E-002  0.1747600E+03  0.7818608E-02  0.1172989E+00
         21   -1    0    0  503  502  0.00000000000E+00  0.00000000000E+00  0.21010919288E+02  0.21010919288E+02  0.00000000000E+00 0.  1.
         21   -1    0    0  501  503 -0.00000000000E+00 -0.00000000000E+00 -0.15049236547E+04  0.15049236547E+04  0.00000000000E+00 0.  1.
          6    2    1    2  501    0 -0.12169556398E+01  0.26043935736E+02 -0.88347275707E+03  0.90057930245E+03  0.17274026729E+03 0.  0.
         24    2    3    3    0    0  0.10023829221E+00  0.16782062622E+02 -0.88605932360E+03  0.88979516503E+03  0.79703595271E+02 0.  0.
         -6    2    1    2    0  502  0.12169556398E+01 -0.26043935736E+02 -0.60043997830E+03  0.62535527149E+03  0.17280416800E+03 0.  0.
        -24    2    5    5    0    0 -0.14046880019E+02  0.35649451103E+02 -0.49693568506E+03  0.50380574506E+03  0.73532002992E+02 0.  0.
          5    1    3    3  501    0 -0.13171939320E+01  0.92618731140E+01  0.25865665297E+01  0.10784137418E+02  0.47000000000E+01 0. -1.
        -11    1    4    4    0    0  0.15187744155E+02  0.40488065912E+02 -0.72609370138E+03  0.72738024047E+03  0.00000000000E+00 0.  1.
         12    1    4    4    0    0 -0.15087505862E+02 -0.23706003291E+02 -0.15996562222E+03  0.16241492455E+03  0.00000000000E+00 0. -1.
         -5    1    5    5    0  502  0.15263835659E+02 -0.61693386839E+02 -0.10350429324E+03  0.12154952644E+03  0.47000000000E+01 0.  1.
         11    1    6    6    0    0 -0.20066274310E+02 -0.99676167648E+01 -0.32651306178E+03  0.32728090116E+03  0.00000000000E+00 0. -1.
        -12    1    6    6    0    0  0.60193942907E+01  0.45617067868E+02 -0.17042262328E+03  0.17652484390E+03  0.00000000000E+00 0.  1.
</event>
<event>
12    1  0.8462562E-002  0.2563724E+03  0.7818608E-02  0.1109790E+00
         21   -1    0    0  503  502  0.00000000000E+00  0.00000000000E+00  0.15142969901E+03  0.15142969901E+03  0.00000000000E+00 0. -1.
         21   -1    0    0  501  503 -0.00000000000E+00 -0.00000000000E+00 -0.98179484762E+03  0.98179484762E+03  0.00000000000E+00 0.  1.
          6    2    1    2  501    0  0.17863237252E+03 -0.53279495033E+02 -0.84133115323E+03  0.87952539888E+03  0.17600735434E+03 0.  0.
         24    2    3    3    0    0  0.15079817498E+03  0.21249374874E+02 -0.64256197764E+03  0.66537458715E+03  0.81521902602E+02 0.  0.
         -6    2    1    2    0  502 -0.17863237252E+03  0.53279495033E+02  0.10966004622E+02  0.25369914775E+03  0.17174042975E+03 0.  0.
        -24    2    5    5    0    0 -0.17036139321E+03 -0.94634794878E+01  0.21619035078E+02  0.18935113295E+03  0.79207999177E+02 0.  0.
          5    1    3    3  501    0  0.27834197537E+02 -0.74528869907E+02 -0.19876917559E+03  0.21415081173E+03  0.47000000000E+01 0. -1.
        -13    1    4    4    0    0  0.53932305364E+02  0.18213274209E+02 -0.40223146140E+03  0.40623954197E+03  0.00000000000E+00 0.  1.
         14    1    4    4    0    0  0.96865869616E+02  0.30361006646E+01 -0.24033051624E+03  0.25913504518E+03  0.00000000000E+00 0. -1.
         -5    1    5    5    0  502 -0.82709793093E+01  0.62742974521E+02 -0.10653030456E+02  0.64348014797E+02  0.47000000000E+01 0.  1.
         13    1    6    6    0    0 -0.11742478080E+03  0.61959973002E+01 -0.21204094058E+02  0.11948465647E+03  0.00000000000E+00 0. -1.
        -14    1    6    6    0    0 -0.52936612411E+02 -0.15659476788E+02  0.42823129136E+02  0.69866476480E+02  0.00000000000E+00 0.  1.
</event>
<event>
12    1  0.8462562E-002  0.2000842E+03  0.7818608E-02  0.1152249E+00
         21   -1    0    0  503  502  0.00000000000E+00  0.00000000000E+00  0.15069336408E+04  0.15069336408E+04  0.00000000000E+00 0. -1.
         21   -1    0    0  501  503 -0.00000000000E+00 -0.00000000000E+00 -0.78224206290E+02  0.78224206290E+02  0.00000000000E+00 0. -1.
          6    2    1    2  501    0  0.77680191948E+02  0.58297667919E+01  0.67751040848E+02  0.21124365820E+03  0.18429726312E+03 0.  0.
         24    2    3    3    0    0  0.12350996749E+03 -0.13789905684E+02  0.52557971032E+02  0.15891566145E+03  0.83946254035E+02 0.  0.
         -6    2    1    2    0  502 -0.77680191948E+02 -0.58297667919E+01  0.13609583937E+04  0.13739141889E+04  0.17136000336E+03 0.  0.
        -24    2    5    5    0    0  0.78442455035E+01 -0.39194558131E+02  0.85115822023E+03  0.85589300638E+03  0.80528112621E+02 0.  0.
          5    1    3    3  501    0 -0.45829775538E+02  0.19619672476E+02  0.15193069816E+02  0.52327996754E+02  0.47000000000E+01 0. -1.
        -11    1    4    4    0    0  0.25188267287E+02 -0.10303486086E+02  0.54056918945E+02  0.60520749501E+02  0.00000000000E+00 0.  1.
         12    1    4    4    0    0  0.98321700199E+02 -0.34864195982E+01 -0.14989479126E+01  0.98394911944E+02  0.00000000000E+00 0. -1.
         -5    1    5    5    0  502 -0.85524437451E+02  0.33364791339E+02  0.50980017346E+03  0.51802118254E+03  0.47000000000E+01 0.  1.
         13    1    6    6    0    0 -0.27215699806E+02  0.10248499813E+02  0.30400986277E+03  0.30539764689E+03  0.00000000000E+00 0. -1.
        -14    1    6    6    0    0  0.35059945309E+02 -0.49443057944E+02  0.54714835746E+03  0.55049535949E+03  0.00000000000E+00 0.  1.
</event>
<event>
12    1  0.8462562E-002  0.2717421E+03  0.7818608E-02  0.1100479E+00
         21   -1    0    0  503  502  0.00000000000E+00  0.00000000000E+00  0.11125346353E+03  0.11125346353E+03  0.00000000000E+00 0. -1.
         21   -1    0    0  501  503 -0.00000000000E+00 -0.00000000000E+00 -0.69340864883E+03  0.69340864883E+03  0.00000000000E+00 0. -1.
          6    2    1    2  501    0 -0.18960183557E+03 -0.90891725596E+02 -0.20405343611E+03  0.33982581126E+03  0.17214417033E+03 0.  0.
         24    2    3    3    0    0 -0.43881160397E+02 -0.72053242709E+02 -0.48081456043E+02  0.12549253765E+03  0.79494179465E+02 0.  0.
         -6    2    1    2    0  502  0.18960183557E+03  0.90891725596E+02 -0.37810174919E+03  0.46483630109E+03  0.17000497710E+03 0.  0.
        -24    2    5    5    0    0  0.17740636452E+03  0.57385638144E+02 -0.37771622388E+03  0.42886928787E+03  0.80580336688E+02 0.  0.
          5    1    3    3  501    0 -0.14572067517E+03 -0.18838482887E+02 -0.15597198007E+03  0.21433327361E+03  0.47000000000E+01 0. -1.
        -11    1    4    4    0    0 -0.29339273774E+02  0.10948205057E+02 -0.88500960640E+01  0.32541978733E+02  0.00000000000E+00 0.  1.
         12    1    4    4    0    0 -0.14541886623E+02 -0.83001447765E+02 -0.39231359979E+02  0.92950558920E+02  0.00000000000E+00 0. -1.
         -5    1    5    5    0  502  0.12195471051E+02  0.33506087452E+02 -0.38552531649E+00  0.35967013224E+02  0.47000000000E+01 0.  1.
         13    1    6    6    0    0  0.10633841355E+03  0.74392370436E+02 -0.23084825381E+03  0.26482635682E+03  0.00000000000E+00 0. -1.
        -14    1    6    6    0    0  0.71067950968E+02 -0.17006732292E+02 -0.14686797006E+03  0.16404293105E+03  0.00000000000E+00 0.  1.
</event>
<event>
12    1  0.8462562E-002  0.2185643E+03  0.7818608E-02  0.1135015E+00
         21   -1    0    0  503  502  0.00000000000E+00  0.00000000000E+00  0.43756817296E+03  0.43756817296E+03  0.00000000000E+00 0. -1.
         21   -1    0    0  501  503 -0.00000000000E+00 -0.00000000000E+00 -0.16015143050E+03  0.16015143050E+03  0.00000000000E+00 0.  1.
          6    2    1    2  501    0  0.12745927663E+03  0.42971002497E+02 -0.30222112332E+02  0.22034444126E+03  0.17188927385E+03 0.  0.
         24    2    3    3    0    0  0.15939707896E+03  0.36976536066E+02 -0.10963995488E+02  0.18227973438E+03  0.79567577384E+02 0.  0.
         -6    2    1    2    0  502 -0.12745927663E+03 -0.42971002497E+02  0.30763885479E+03  0.37737516220E+03  0.17227296310E+03 0.  0.
        -24    2    5    5    0    0 -0.91392375350E+02 -0.94104087867E+02  0.24175008484E+03  0.28638706521E+03  0.79789109387E+02 0.  0.
          5    1    3    3  501    0 -0.31937802324E+02  0.59944664306E+01 -0.19258116844E+02  0.38064706874E+02  0.47000000000E+01 0. -1.
        -11    1    4    4    0    0  0.58834312202E+02  0.15327524738E+02 -0.43082777766E+02  0.74515334307E+02  0.00000000000E+00 0.  1.
         12    1    4    4    0    0  0.10056276675E+03  0.21649011329E+02  0.32118782279E+02  0.10776440008E+03  0.00000000000E+00 0. -1.
         -5    1    5    5    0  502 -0.36066901282E+02  0.51133085371E+02  0.65888769954E+02  0.90988096989E+02  0.47000000000E+01 0.  1.
         13    1    6    6    0    0 -0.44991257369E+02  0.30070116965E+01  0.58402024083E+02  0.73783817846E+02  0.00000000000E+00 0. -1.
        -14    1    6    6    0    0 -0.46401117981E+02 -0.97111099564E+02  0.18334806075E+03  0.21260324737E+03  0.00000000000E+00 0.  1.
</event>
<event>
12    1  0.8462562E-002  0.4107012E+03  0.7818608E-02  0.1040152E+00
         21   -1    0    0  501  502  0.00000000000E+00  0.00000000000E+00  0.13757134401E+03  0.13757134401E+03  0.00000000000E+00 0. -1.
         21   -1    0    0  502  503 -0.00000000000E+00 -0.00000000000E+00 -0.16145293592E+04  0.16145293592E+04  0.00000000000E+00 0.  1.
         -6    2    1    2    0  503 -0.28411277837E+03  0.24178101174E+03 -0.11686167551E+04  0.12386850125E+04  0.17174781337E+03 0.  0.
        -24    2    3    3    0    0 -0.20483087843E+03  0.95563872805E+02 -0.59686806470E+03  0.64321567965E+03  0.79917340720E+02 0.  0.
          6    2    1    2  501    0  0.28411277837E+03 -0.24178101174E+03 -0.30834126005E+03  0.51341569067E+03  0.17129859985E+03 0.  0.
         24    2    5    5    0    0  0.79161760389E+02 -0.29558661587E+02 -0.10699521372E+03  0.15619647780E+03  0.76217223348E+02 0.  0.
          5    1    5    5  501    0  0.20495101798E+03 -0.21222235015E+03 -0.20134604632E+03  0.35721921287E+03  0.47000000000E+01 0. -1.
        -11    1    6    6    0    0  0.73625204357E+02 -0.25893763171E+02 -0.11909800645E+03  0.14239203921E+03  0.00000000000E+00 0.  1.
         12    1    6    6    0    0  0.55365560324E+01 -0.36648984161E+01  0.12102792730E+02  0.13804438596E+02  0.00000000000E+00 0. -1.
         -5    1    3    3    0  503 -0.79281899944E+02  0.14621713893E+03 -0.57174869044E+03  0.59546933288E+03  0.47000000000E+01 0.  1.
         13    1    4    4    0    0 -0.66585042389E+01  0.19086424040E+02 -0.19808546707E+02  0.28302045580E+02  0.00000000000E+00 0. -1.
        -14    1    4    4    0    0 -0.19817237419E+03  0.76477448765E+02 -0.57705951800E+03  0.61491363407E+03  0.00000000000E+00 0.  1.
</event>
<event>
12    1  0.8462562E-002  0.2262982E+03  0.7818608E-02  0.1129739E+00
         21   -1    0    0  501  502  0.00000000000E+00  0.00000000000E+00  0.55789705125E+03  0.55789705125E+03  0.00000000000E+00 0. -1.
         21   -1    0    0  502  503 -0.00000000000E+00 -0.00000000000E+00 -0.10705417700E+03  0.10705417700E+03  0.00000000000E+00 0.  1.
         -6    2    1    2    0  503 -0.14691897169E+03  0.42732265326E+01  0.94574485203E+02  0.24288720728E+03  0.16866065783E+03 0.  0.
        -24    2    3    3    0    0 -0.26110033644E+02  0.37023575267E+02  0.71414395051E+02  0.11550642132E+03  0.78671713872E+02 0.  0.
          6    2    1    2  501    0  0.14691897169E+03 -0.42732265326E+01  0.35626838904E+03  0.42206402097E+03  0.17206809134E+03 0.  0.
         24    2    5    5    0    0  0.58423936964E+02 -0.40159457020E+02  0.28098717292E+03  0.30037365894E+03  0.79021549214E+02 0.  0.
          5    1    5    5  501    0  0.88495034731E+02  0.35886230488E+02  0.75281216123E+02  0.12169036203E+03  0.47000000000E+01 0. -1.
        -11    1    6    6    0    0 -0.14127975609E+02  0.94531513096E+01  0.65042803929E+02  0.67227435675E+02  0.00000000000E+00 0.  1.
         12    1    6    6    0    0  0.72551912573E+02 -0.49612608330E+02  0.21594436899E+03  0.23314622327E+03  0.00000000000E+00 0. -1.
         -5    1    3    3    0  503 -0.12080893805E+03 -0.32750348735E+02  0.23160090152E+02  0.12738078596E+03  0.47000000000E+01 0.  1.
         13    1    4    4    0    0  0.20965168052E+02 -0.50136050001E+01  0.38989447779E+02  0.44551672748E+02  0.00000000000E+00 0. -1.
        -14    1    4    4    0    0 -0.47075201696E+02  0.42037180267E+02  0.32424947272E+02  0.70954748574E+02  0.00000000000E+00 0.  1.
</event>
<event>
12    1  0.8462562E-002  0.1907490E+03  0.7818608E-02  0.1158529E+00
         21   -1    0    0  501  502  0.00000000000E+00  0.00000000000E+00  0.11201123293E+04  0.11201123293E+04  0.00000000000E+00 0.  1.
         21   -1    0    0  502  503 -0.00000000000E+00 -0.00000000000E+00 -0.20784172239E+03  0.20784172239E+03  0.00000000000E+00 0.  1.
         -6    2    1    2    0  503 -0.46004608627E+02  0.63145571171E+02 -0.15410700883E+03  0.24522262684E+03  0.17401545727E+03 0.  0.
        -24    2    3    3    0    0 -0.47501260741E+02  0.10678585451E+03 -0.13973829764E+03  0.19901370823E+03  0.80125375124E+02 0.  0.
          6    2    1    2  501    0  0.46004608627E+02 -0.63145571171E+02  0.10663776157E+04  0.10827314248E+04  0.17041810892E+03 0.  0.
         24    2    5    5    0    0  0.60454773636E+02 -0.94767964788E+02  0.97242321482E+03  0.98244033602E+03  0.83344815791E+02 0.  0.
          5    1    5    5  501    0 -0.14450165010E+02  0.31622393617E+02  0.93954400900E+02  0.10029108881E+03  0.47000000000E+01 0. -1.
        -13    1    6    6    0    0  0.20918776389E+02 -0.59613726057E+02  0.78940220248E+03  0.79192627739E+03  0.00000000000E+00 0.  1.
         14    1    6    6    0    0  0.39535997248E+02 -0.35154238731E+02  0.18302101234E+03  0.19051405863E+03  0.00000000000E+00 0. -1.
         -5    1    3    3    0  503  0.14966521146E+01 -0.43640283343E+02 -0.14368711182E+02  0.46208918607E+02  0.47000000000E+01 0.  1.
         11    1    4    4    0    0 -0.32338421962E+02  0.18371848002E+02 -0.55523799880E+01  0.37604883426E+02  0.00000000000E+00 0. -1.
        -12    1    4    4    0    0 -0.15162838780E+02  0.88414006512E+02 -0.13418591766E+03  0.16140882480E+03  0.00000000000E+00 0.  1.
</event>
<event>
12    1  0.8462562E-002  0.1916482E+03  0.7818608E-02  0.1157279E+00
         21   -1    0    0  501  502  0.00000000000E+00  0.00000000000E+00  0.51507295681E+03  0.51507295681E+03  0.00000000000E+00 0. -1.
         21   -1    0    0  502  503 -0.00000000000E+00 -0.00000000000E+00 -0.73127642284E+02  0.73127642284E+02  0.00000000000E+00 0.  1.
         -6    2    1    2    0  503 -0.31329790757E+02  0.81066211507E+02  0.16796131598E+03  0.25384109823E+03  0.16932516956E+03 0.  0.
        -24    2    3    3    0    0  0.45939580687E+02  0.60580453067E+02  0.96995530782E+02  0.14684364625E+03  0.79840385040E+02 0.  0.
          6    2    1    2  501    0  0.31329790757E+02 -0.81066211507E+02  0.27398399854E+03  0.33435950086E+03  0.17080912716E+03 0.  0.
         24    2    5    5    0    0  0.75800415858E+01  0.15821630743E+02  0.70883982176E+02  0.10803448852E+03  0.79618658315E+02 0.  0.
          5    1    5    5  501    0  0.23749749171E+02 -0.96887842251E+02  0.20310001636E+03  0.22632501233E+03  0.47000000000E+01 0. -1.
        -11    1    6    6    0    0  0.39282756162E+02  0.17133607630E+02  0.18259571949E+02  0.46584411662E+02  0.00000000000E+00 0.  1.
         12    1    6    6    0    0 -0.31702714576E+02 -0.13119768863E+01  0.52624410226E+02  0.61450076863E+02  0.00000000000E+00 0. -1.
         -5    1    3    3    0  503 -0.77269371444E+02  0.20485758440E+02  0.70965785201E+02  0.10699745199E+03  0.47000000000E+01 0.  1.
         11    1    4    4    0    0 -0.12165821584E+02  0.44472937478E+02  0.61536708906E+02  0.76893536307E+02  0.00000000000E+00 0. -1.
        -12    1    4    4    0    0  0.58105402271E+02  0.16107515589E+02  0.35458821876E+02  0.69950109939E+02  0.00000000000E+00 0.  1.
</event>
<event>
12    1  0.8462562E-002  0.2201500E+03  0.7818608E-02  0.1136487E+00
         21   -1    0    0  503  502  0.00000000000E+00  0.00000000000E+00  0.53940381369E+03  0.53940381369E+03  0.00000000000E+00 0.  1.
         21   -1    0    0  501  503 -0.00000000000E+00 -0.00000000000E+00 -0.13974775457E+03  0.13974775457E+03  0.00000000000E+00 0.  1.
          6    2    1    2  501    0  0.55656886391E+02  0.98564398265E+02 -0.18175228100E+02  0.20687092086E+03  0.17219933036E+03 0.  0.
         24    2    3    3    0    0  0.29201612692E+02  0.65480604310E+02  0.55980169545E+02  0.12134003797E+03  0.80306797394E+02 0.  0.
         -6    2    1    2    0  502 -0.55656886391E+02 -0.98564398265E+02  0.41783128722E+03  0.47228064740E+03  0.18882106798E+03 0.  0.
        -24    2    5    5    0    0  0.32577983568E+02 -0.67753111206E+02  0.12757504395E+03  0.16731260900E+03  0.77886508452E+02 0.  0.
          5    1    3    3  501    0  0.26455273698E+02  0.33083793955E+02 -0.74155397644E+02  0.85530882894E+02  0.47000000000E+01 0. -1.
        -11    1    4    4    0    0  0.27528522064E+02  0.59910129117E+02  0.88432629855E+00  0.65938040090E+02  0.00000000000E+00 0.  1.
         12    1    4    4    0    0  0.16730906284E+01  0.55704751929E+01  0.55095843246E+02  0.55401997880E+02  0.00000000000E+00 0. -1.
         -5    1    5    5    0  502 -0.88234869958E+02 -0.30811287059E+02  0.29025624327E+03  0.30496803840E+03  0.47000000000E+01 0.  1.
         13    1    6    6    0    0  0.34761077532E+02 -0.14364225210E+01  0.17893661409E+02  0.39122614170E+02  0.00000000000E+00 0. -1.
        -14    1    6    6    0    0 -0.21830939648E+01 -0.66316688685E+02  0.10968138254E+03  0.12818999483E+03  0.00000000000E+00 0.  1.
</event>
<event>
12    1  0.8462562E-002  0.2261171E+03  0.7818608E-02  0.1129423E+00
         21   -1    0    0  503  502  0.00000000000E+00  0.00000000000E+00  0.41110484287E+03  0.41110484287E+03  0.00000000000E+00 0.  1.
         21   -1    0    0  501  503 -0.00000000000E+00 -0.00000000000E+00 -0.12449620788E+03  0.12449620788E+03  0.00000000000E+00 0.  1.
          6    2    1    2  501    0  0.83600998362E+02 -0.12067411062E+03  0.13291564544E+03  0.26228899860E+03  0.17198134225E+03 0.  0.
         24    2    3    3    0    0  0.71694790087E+02 -0.81761242044E+01  0.36443059809E+02  0.11353885735E+03  0.79724422784E+02 0.  0.
         -6    2    1    2    0  502 -0.83600998362E+02  0.12067411062E+03  0.15369298956E+03  0.27331205215E+03  0.17183298551E+03 0.  0.
        -24    2    5    5    0    0  0.10275065112E+02  0.13959301900E+02  0.42802093946E+02  0.92980007233E+02  0.80702065812E+02 0.  0.
          5    1    3    3  501    0  0.11906208275E+02 -0.11249798642E+03  0.96472585628E+02  0.14875014125E+03  0.47000000000E+01 0. -1.
        -11    1    4    4    0    0  0.60528872398E+02 -0.39572679212E+02  0.14833946468E+02  0.73822674712E+02  0.00000000000E+00 0.  1.
         12    1    4    4    0    0  0.11165917689E+02  0.31396555008E+02  0.21609113341E+02  0.39716182641E+02  0.00000000000E+00 0. -1.
         -5    1    5    5    0  502 -0.93876063474E+02  0.10671480872E+03  0.11089089561E+03  0.18033204491E+03  0.47000000000E+01 0.  1.
         11    1    6    6    0    0 -0.70569633984E+01 -0.17525644648E+02  0.52465269933E+02  0.55763370610E+02  0.00000000000E+00 0. -1.
        -12    1    6    6    0    0  0.17332028510E+02  0.31484946548E+02 -0.96631759864E+01  0.37216636623E+02  0.00000000000E+00 0.  1.
</event>
<event>
12    1  0.8462562E-002  0.2281303E+03  0.7818608E-02  0.1130560E+00
         21   -1    0    0  503  502  0.00000000000E+00  0.00000000000E+00  0.16502800877E+03  0.16502800877E+03  0.00000000000E+00 0. -1.
         21   -1    0    0  501  503 -0.00000000000E+00 -0.00000000000E+00 -0.35389972256E+03  0.35389972256E+03  0.00000000000E+00 0.  1.
          6    2    1    2  501    0  0.39204261551E+02  0.14484970823E+03 -0.20172811124E+03  0.30452862989E+03  0.17182852924E+03 0.  0.
         24    2    3    3    0    0 -0.40138909423E+02  0.97448315365E+02 -0.14563313238E+03  0.19631140631E+03  0.78878722000E+02 0.  0.
         -6    2    1    2    0  502 -0.39204261551E+02 -0.14484970823E+03  0.12856397454E+02  0.21439910144E+03  0.15258858293E+03 0.  0.
        -24    2    5    5    0    0 -0.79571028579E+02 -0.11762825853E+03 -0.65391712267E+01  0.16178008122E+03  0.77214494264E+02 0.  0.
          5    1    3    3  501    0  0.79343170974E+02  0.47401392870E+02 -0.56094978864E+02  0.10821722358E+03  0.47000000000E+01 0. -1.
        -11    1    4    4    0    0 -0.21902487235E+02 -0.71172801473E+01 -0.13037916923E+02  0.26464351522E+02  0.00000000000E+00 0.  1.
         12    1    4    4    0    0 -0.18236422188E+02  0.10456559551E+03 -0.13259521546E+03  0.16984705479E+03  0.00000000000E+00 0. -1.
         -5    1    5    5    0  502  0.40366767028E+02 -0.27221449705E+02  0.19395568681E+02  0.52619020219E+02  0.47000000000E+01 0.  1.
         11    1    6    6    0    0 -0.27504433581E+02 -0.84307349175E+02  0.25337497313E+02  0.92229126427E+02  0.00000000000E+00 0. -1.
        -12    1    6    6    0    0 -0.52066594999E+02 -0.33320909355E+02 -0.31876668540E+02  0.69550954790E+02  0.00000000000E+00 0.  1.
</event>
<event>
12    1  0.8462562E-002  0.1927507E+03  0.7818608E-02  0.1156359E+00
         21   -1    0    0  503  502  0.00000000000E+00  0.00000000000E+00  0.51685555990E+02  0.51685555990E+02  0.00000000000E+00 0.  1.
         21   -1    0    0  501  503 -0.00000000000E+00 -0.00000000000E+00 -0.75303392030E+03  0.75303392030E+03  0.00000000000E+00 0.  1.
          6    2    1    2  501    0  0.84172362621E+02  0.60347365100E+01 -0.44220892256E+03  0.48175492910E+03  0.17151581806E+03 0.  0.
         24    2    3    3    0    0  0.12269210270E+03 -0.91571253953E+01 -0.29934046290E+03  0.33293272037E+03  0.78117082350E+02 0.  0.
         -6    2    1    2    0  502 -0.84172362621E+02 -0.60347365100E+01 -0.25913944175E+03  0.32296454719E+03  0.17329582741E+03 0.  0.
        -24    2    5    5    0    0 -0.81033922619E+02 -0.45486837746E+02 -0.98144131875E+02  0.15710949632E+03  0.80097279539E+02 0.  0.
          5    1    3    3  501    0 -0.38519740083E+02  0.15191861905E+02 -0.14286845966E+03  0.14882220873E+03  0.47000000000E+01 0. -1.
        -11    1    4    4    0    0  0.81552319375E+02 -0.33660453284E+02 -0.24553923368E+03  0.26090864721E+03  0.00000000000E+00 0.  1.
         12    1    4    4    0    0  0.41139783330E+02  0.24503327889E+02 -0.53801229217E+02  0.72024073165E+02  0.00000000000E+00 0. -1.
         -5    1    5    5    0  502 -0.31384400028E+01  0.39452101236E+02 -0.16099530988E+03  0.16585505087E+03  0.47000000000E+01 0.  1.
         13    1    6    6    0    0  0.16087058474E+02 -0.19816120441E+01 -0.14591118999E+02  0.21808736558E+02  0.00000000000E+00 0. -1.
        -14    1    6    6    0    0 -0.97120981092E+02 -0.43505225702E+02 -0.83553012876E+02  0.13530075976E+03  0.00000000000E+00 0.  1.
</event>
<event>
12    1  0.8462562E-002  0.2204666E+03  0.7818608E-02  0.1134047E+00
         21   -1    0    0  503  502  0.00000000000E+00  0.00000000000E+00  0.92281113297E+02  0.92281113297E+02  0.00000000000E+00 0. -1.
         21   -1    0    0  501  503 -0.00000000000E+00 -0.00000000000E+00 -0.17298617803E+04  0.17298617803E+04  0.00000000000E+00 0. -1.
          6    2    1    2  501    0 -0.10860275541E+03  0.79240042851E+02 -0.15821878299E+04  0.15974742080E+04  0.17473400729E+03 0.  0.
         24    2    3    3    0    0 -0.46227347718E+01  0.47035141874E+01 -0.88302009044E+03  0.88668228578E+03  0.80234051907E+02 0.  0.
         -6    2    1    2    0  502  0.10860275541E+03 -0.79240042851E+02 -0.55392837129E+02  0.22466868561E+03  0.17127203220E+03 0.  0.
        -24    2    5    5    0    0  0.14031037533E+03 -0.46494708130E+02 -0.28346269385E+02  0.17145931676E+03  0.82134201185E+02 0.  0.
          5    1    3    3  501    0 -0.10398002064E+03  0.74536528663E+02 -0.69916773944E+03  0.71079192220E+03  0.47000000000E+01 0. -1.
        -11    1    4    4    0    0 -0.12990294404E+02  0.26218697758E+02 -0.79936677901E+03  0.79990212854E+03  0.00000000000E+00 0.  1.
         12    1    4    4    0    0  0.83675596318E+01 -0.21515183571E+02 -0.83653311424E+02  0.86780157240E+02  0.00000000000E+00 0. -1.
         -5    1    5    5    0  502 -0.31707619920E+02 -0.32745334721E+02 -0.27046567744E+02  0.53209368853E+02  0.47000000000E+01 0.  1.
         13    1    6    6    0    0  0.42307874796E+02  0.19025939242E+02 -0.26774661863E+02  0.53561414765E+02  0.00000000000E+00 0. -1.
        -14    1    6    6    0    0  0.98002500539E+02 -0.65520647372E+02 -0.15716075215E+01  0.11789790199E+03  0.00000000000E+00 0.  1.
</event>
<event>
12    1  0.8462562E-002  0.1807451E+03  0.7818608E-02  0.1167140E+00
         21   -1    0    0  501  502  0.00000000000E+00  0.00000000000E+00  0.79505528052E+03  0.79505528052E+03  0.00000000000E+00 0.  1.
         21   -1    0    0  502  503 -0.00000000000E+00 -0.00000000000E+00 -0.17729512074E+03  0.17729512074E+03  0.00000000000E+00 0.  1.
         -6    2    1    2    0  503 -0.45174932063E+02 -0.28755520093E+02 -0.11728553953E+03  0.21546385378E+03  0.17263000921E+03 0.  0.
        -24    2    3    3    0    0  0.25347903393E+01 -0.49267942573E+02 -0.59700562117E+01  0.92540284376E+02  0.78066044691E+02 0.  0.
          6    2    1    2  501    0  0.45174932063E+02  0.28755520093E+02  0.73504569931E+03  0.75688654748E+03  0.17238738716E+03 0.  0.
         24    2    5    5    0    0  0.62883201145E+02  0.76705280909E+02  0.43644212594E+03  0.45390313805E+03  0.75553506427E+02 0.  0.
          5    1    5    5  501    0 -0.17708269082E+02 -0.47949760815E+02  0.29860357338E+03  0.30298340943E+03  0.47000000000E+01 0. -1.
        -13    1    6    6    0    0  0.57972705468E+02  0.12339245813E+02  0.23563452061E+03  0.24297472887E+03  0.00000000000E+00 0.  1.
         14    1    6    6    0    0  0.49104956774E+01  0.64366035096E+02  0.20080760533E+03  0.21092840918E+03  0.00000000000E+00 0. -1.
         -5    1    3    3    0  503 -0.47709722402E+02  0.20512422480E+02 -0.11131548332E+03  0.12292356940E+03  0.47000000000E+01 0.  1.
         13    1    4    4    0    0  0.29095549930E+02 -0.45805840333E+01 -0.23499201478E+02  0.37679506975E+02  0.00000000000E+00 0. -1.
        -14    1    4    4    0    0 -0.26560759590E+02 -0.44687358540E+02  0.17529145266E+02  0.54860777401E+02  0.00000000000E+00 0.  1.
</event>
<event>
12    1  0.8462562E-002  0.2060329E+03  0.7818608E-02  0.1145984E+00
         21   -1    0    0  503  502  0.00000000000E+00  0.00000000000E+00  0.25281311178E+03  0.25281311178E+03  0.00000000000E+00 0.  1.
         21   -1    0    0  501  503 -0.00000000000E+00 -0.00000000000E+00 -0.20216741803E+03  0.20216741803E+03  0.00000000000E+00 0.  1.
          6    2    1    2  501    0  0.43253460373E+02  0.10418034884E+03 -0.74431821909E+02  0.21906539761E+03  0.17240981816E+03 0.  0.
         24    2    3    3    0    0  0.23913416747E+02  0.78022747774E+02  0.22782049792E+02  0.11644530098E+03  0.79881697891E+02 0.  0.
         -6    2    1    2    0  502 -0.43253460373E+02 -0.10418034884E+03  0.12507751566E+03  0.23591513219E+03  0.16518824944E+03 0.  0.
        -24    2    5    5    0    0 -0.75469718113E+02 -0.26745113850E+02  0.51790815395E+02  0.12443807932E+03  0.79947279872E+02 0.  0.
          5    1    3    3  501    0  0.19340043626E+02  0.26157601071E+02 -0.97213871701E+02  0.10262009663E+03  0.47000000000E+01 0. -1.
        -11    1    4    4    0    0 -0.21693493643E+02  0.12039574687E+02 -0.13684466369E+02  0.28334142741E+02  0.00000000000E+00 0.  1.
         12    1    4    4    0    0  0.45606910391E+02  0.65983173087E+02  0.36466516161E+02  0.88111158243E+02  0.00000000000E+00 0. -1.
         -5    1    5    5    0  502  0.32216257740E+02 -0.77435234994E+02  0.73286700260E+02  0.11147705287E+03  0.47000000000E+01 0.  1.
         13    1    6    6    0    0 -0.28578558543E+02  0.27411172218E+02  0.77602086525E+01  0.40352536588E+02  0.00000000000E+00 0. -1.
        -14    1    6    6    0    0 -0.46891159571E+02 -0.54156286069E+02  0.44030606743E+02  0.84085542734E+02  0.00000000000E+00 0.  1.
</event>
<event>
12    1  0.8462562E-002  0.2091869E+03  0.7818608E-02  0.1142654E+00
         21   -1    0    0  503  502  0.00000000000E+00  0.00000000000E+00  0.16898335455E+03  0.16898335455E+03  0.00000000000E+00 0.  1.
         21   -1    0    0  501  503 -0.00000000000E+00 -0.00000000000E+00 -0.40392695082E+03  0.40392695082E+03  0.00000000000E+00 0.  1.
          6    2    1    2  501    0  0.10753311874E+03  0.47474646851E+02 -0.29108710806E+03  0.35845619888E+03  0.17303736105E+03 0.  0.
         24    2    3    3    0    0  0.43816565356E+02  0.37901718889E+02 -0.27429475169E+03  0.29170656699E+03  0.80614382866E+02 0.  0.
         -6    2    1    2    0  502 -0.10753311874E+03 -0.47474646851E+02  0.56143511786E+02  0.21445410649E+03  0.17035626245E+03 0.  0.
        -24    2    5    5    0    0 -0.53858908657E+01 -0.44686433835E+02 -0.12277382832E+02  0.91387705246E+02  0.78581762207E+02 0.  0.
          5    1    3    3  501    0  0.63716553386E+02  0.95729279618E+01 -0.16792356366E+02  0.66749631891E+02  0.47000000000E+01 0. -1.
        -11    1    4    4    0    0 -0.19527450769E+02  0.26200329420E+02 -0.12306713126E+03  0.12733144699E+03  0.00000000000E+00 0.  1.
         12    1    4    4    0    0  0.63344016126E+02  0.11701389469E+02 -0.15122762043E+03  0.16437512001E+03  0.00000000000E+00 0. -1.
         -5    1    5    5    0  502 -0.10214722788E+03 -0.27882130155E+01  0.68420894618E+02  0.12306640124E+03  0.47000000000E+01 0.  1.
         13    1    6    6    0    0 -0.12018892404E+02  0.61449433360E+01  0.24722280145E+02  0.28167449987E+02  0.00000000000E+00 0. -1.
        -14    1    6    6    0    0  0.66330015388E+01 -0.50831377171E+02 -0.36999662977E+02  0.63220255258E+02  0.00000000000E+00 0.  1.
</event>
<event>
12    1  0.8462562E-002  0.2049234E+03  0.7818608E-02  0.1146208E+00
         21   -1    0    0  503  502  0.00000000000E+00  0.00000000000E+00  0.18330861860E+03  0.18330861860E+03  0.00000000000E+00 0. -1.
         21   -1    0    0  501  503 -0.00000000000E+00 -0.00000000000E+00 -0.22910483891E+03  0.22910483891E+03  0.00000000000E+00 0. -1.
          6    2    1    2  501    0 -0.10057279718E+03  0.32151444732E+02 -0.46487490697E+02  0.20748892834E+03  0.17245859115E+03 0.  0.
         24    2    3    3    0    0 -0.43719807061E+02 -0.29291593005E+02 -0.72647349982E+02  0.11965990347E+03  0.79192399186E+02 0.  0.
         -6    2    1    2    0  502  0.10057279718E+03 -0.32151444732E+02  0.69127038445E+00  0.20492452917E+03  0.17562739499E+03 0.  0.
        -24    2    5    5    0    0  0.13089183698E+03 -0.53930382762E+02 -0.21536112546E+02  0.16122426753E+03  0.74083069068E+02 0.  0.
          5    1    3    3  501    0 -0.56852990123E+02  0.61443037737E+02  0.26159859285E+02  0.87829024872E+02  0.47000000000E+01 0. -1.
        -13    1    4    4    0    0  0.28645748403E+01  0.14767544601E+02  0.76716525949E+01  0.16886101270E+02  0.00000000000E+00 0.  1.
         14    1    4    4    0    0 -0.46584381901E+02 -0.44059137606E+02 -0.80319002577E+02  0.10277380220E+03  0.00000000000E+00 0. -1.
         -5    1    5    5    0  502 -0.30319039798E+02  0.21778938030E+02  0.22227382931E+02  0.43700261646E+02  0.47000000000E+01 0.  1.
         11    1    6    6    0    0  0.22134884629E+00 -0.60381804573E+00 -0.20073476955E+02  0.20083776253E+02  0.00000000000E+00 0. -1.
        -12    1    6    6    0    0  0.13067048813E+03 -0.53326564716E+02 -0.14626355918E+01  0.14114049127E+03  0.00000000000E+00 0.  1.
</event>
<event>
12    1  0.8462562E-002  0.1902312E+03  0.7818608E-02  0.1158508E+00
         21   -1    0    0  501  502  0.00000000000E+00  0.00000000000E+00  0.13991959005E+03  0.13991959005E+03  0.00000000000E+00 0.  1.
         21   -1    0    0  502  503 -0.00000000000E+00 -0.00000000000E+00 -0.61459524235E+03  0.61459524235E+03  0.00000000000E+00 0. -1.
         -6    2    1    2    0  503 -0.79360194034E+02  0.51550390391E+01 -0.52476645317E+03  0.55779928231E+03  0.17156804524E+03 0.  0.
        -24    2    3    3    0    0 -0.11157508305E+03  0.20128841733E+02 -0.30514314154E+03  0.33527174952E+03  0.80253596585E+02 0.  0.
          6    2    1    2  501    0  0.79360194034E+02 -0.51550390391E+01  0.50090800879E+02  0.19671555009E+03  0.17281002427E+03 0.  0.
         24    2    5    5    0    0  0.10996797629E+03  0.12670462460E+02  0.12384439358E+01  0.13619094669E+03  0.79328076914E+02 0.  0.
          5    1    5    5  501    0 -0.30607782258E+02 -0.17825501499E+02  0.48852356943E+02  0.60524603405E+02  0.47000000000E+01 0. -1.
        -13    1    6    6    0    0  0.36952084325E+02 -0.79008469015E+01  0.36500623704E+02  0.52537371922E+02  0.00000000000E+00 0.  1.
         14    1    6    6    0    0  0.73015891968E+02  0.20571309361E+02 -0.35262179768E+02  0.83653574763E+02  0.00000000000E+00 0. -1.
         -5    1    3    3    0  503  0.32214889016E+02 -0.14973802694E+02 -0.21962331163E+03  0.22252753280E+03  0.47000000000E+01 0.  1.
         11    1    4    4    0    0 -0.58315155108E+01 -0.12179522352E+02 -0.11125870215E+03  0.11207518076E+03  0.00000000000E+00 0. -1.
        -12    1    4    4    0    0 -0.10574356754E+03  0.32308364085E+02 -0.19388443939E+03  0.22319656875E+03  0.00000000000E+00 0.  1.
</event>
<event>
12    1  0.8462562E-002  0.2096006E+03  0.7818608E-02  0.1141903E+00
         21   -1    0    0  503  502  0.00000000000E+00  0.00000000000E+00  0.25552041704E+03  0.25552041704E+03  0.00000000000E+00 0. -1.
         21   -1    0    0  501  503 -0.00000000000E+00 -0.00000000000E+00 -0.29081764589E+03  0.29081764589E+03  0.00000000000E+00 0. -1.
          6    2    1    2  501    0  0.43218489788E+02 -0.11079866740E+03 -0.19236432446E+03  0.28441726452E+03  0.17246728523E+03 0.  0.
         24    2    3    3    0    0  0.27219149231E+02 -0.55381049365E+02 -0.25950783688E+02  0.10822802580E+03  0.85040694268E+02 0.  0.
         -6    2    1    2    0  502 -0.43218489788E+02  0.11079866740E+03  0.15706709561E+03  0.26192079842E+03  0.17259272744E+03 0.  0.
        -24    2    5    5    0    0 -0.69742914842E+02  0.64083355199E+02  0.31387580188E+02  0.12516080385E+03  0.75559883840E+02 0.  0.
          5    1    3    3  501    0  0.15999340557E+02 -0.55417618033E+02 -0.16641354077E+03  0.17618923871E+03  0.47000000000E+01 0. -1.
        -13    1    4    4    0    0 -0.19094948740E+02 -0.10059638495E+02  0.19492261534E+02  0.29081981599E+02  0.00000000000E+00 0.  1.
         14    1    4    4    0    0  0.46314097971E+02 -0.45321410871E+02 -0.45443045222E+02  0.79146044204E+02  0.00000000000E+00 0. -1.
         -5    1    5    5    0  502  0.26524425055E+02  0.46715312200E+02  0.12567951542E+03  0.13675999457E+03  0.47000000000E+01 0.  1.
         11    1    6    6    0    0  0.60308731517E+00  0.37547830326E+02  0.32951660229E+02  0.49960135992E+02  0.00000000000E+00 0. -1.
        -12    1    6    6    0    0 -0.70346002157E+02  0.26535524873E+02 -0.15640800412E+01  0.75200667857E+02  0.00000000000E+00 0.  1.
</event>
<event>
12    1  0.8462562E-002  0.1934690E+03  0.7818608E-02  0.1155996E+00
         21   -1    0    0  501  502  0.00000000000E+00  0.00000000000E+00  0.12237740866E+04  0.12237740866E+04  0.00000000000E+00 0.  1.
         21   -1    0    0  502  503 -0.00000000000E+00 -0.00000000000E+00 -0.30886116662E+02  0.30886116662E+02  0.00000000000E+00 0.  1.
         -6    2    1    2    0  503 -0.55487935076E+02  0.57008785528E+02  0.68960789525E+03  0.71547464082E+03  0.17325126234E+03 0.  0.
        -24    2    3    3    0    0 -0.78288247059E+02 -0.35350058214E+01  0.54604648390E+03  0.55793933137E+03  0.83594192432E+02 0.  0.
          6    2    1    2  501    0  0.55487935076E+02 -0.57008785528E+02  0.50328007464E+03  0.53918556239E+03  0.17635567640E+03 0.  0.
         24    2    5    5    0    0 -0.25541107166E+02  0.67355624926E+01  0.19021210918E+03  0.20954532123E+03  0.83850338202E+02 0.  0.
          5    1    5    5  501    0  0.81029042242E+02 -0.63744348021E+02  0.31306796546E+03  0.32964024116E+03  0.47000000000E+01 0. -1.
        -13    1    6    6    0    0 -0.39787929331E+02 -0.19965749611E+01  0.18859571221E+03  0.19275738195E+03  0.00000000000E+00 0.  1.
         14    1    6    6    0    0  0.14246822166E+02  0.87321374538E+01  0.16163969678E+01  0.16787939286E+02  0.00000000000E+00 0. -1.
         -5    1    3    3    0  503  0.22800311982E+02  0.60543791349E+02  0.14356141135E+03  0.15753530946E+03  0.47000000000E+01 0.  1.
         13    1    4    4    0    0  0.10705303570E+02  0.26187904135E+01  0.20891187306E+03  0.20920237162E+03  0.00000000000E+00 0. -1.
        -14    1    4    4    0    0 -0.88993550629E+02 -0.61537962349E+01  0.33713461085E+03  0.34873695975E+03  0.00000000000E+00 0.  1.
</event>
<event>
12    1  0.8462562E-002  0.2848874E+03  0.7818608E-02  0.1093061E+00
         21   -1    0    0  503  502  0.00000000000E+00  0.00000000000E+00  0.63785270816E+03  0.63785270816E+03  0.00000000000E+00 0.  1.
         21   -1    0    0  501  503 -0.00000000000E+00 -0.00000000000E+00 -0.12796800728E+03  0.12796800728E+03  0.00000000000E+00 0. -1.
          6    2    1    2  501    0 -0.10468253001E+03 -0.20093090478E+03  0.22524247190E+03  0.36310241561E+03  0.17256167736E+03 0.  0.
         24    2    3    3    0    0  0.10520611347E+02 -0.11615930816E+03  0.10364342563E+03  0.17530889755E+03  0.79922348249E+02 0.  0.
         -6    2    1    2    0  502  0.10468253001E+03  0.20093090478E+03  0.28464222898E+03  0.40271829983E+03  0.17271123274E+03 0.  0.
        -24    2    5    5    0    0  0.58393362302E+02  0.19219303297E+03  0.15834809119E+03  0.26784303638E+03  0.79484762493E+02 0.  0.
          5    1    3    3  501    0 -0.11520314136E+03 -0.84771596620E+02  0.12159904627E+03  0.18779351806E+03  0.47000000000E+01 0. -1.
        -13    1    4    4    0    0 -0.21559797066E+02 -0.23001289586E+01  0.25802300967E+02  0.33702732500E+02  0.00000000000E+00 0.  1.
         14    1    4    4    0    0  0.32080408414E+02 -0.11385917920E+03  0.77841124662E+02  0.14160616505E+03  0.00000000000E+00 0. -1.
         -5    1    5    5    0  502  0.46289167707E+02  0.87378718070E+01  0.12629413779E+03  0.13487526345E+03  0.47000000000E+01 0.  1.
         11    1    6    6    0    0  0.65510422424E+02  0.11495657871E+03  0.67986155624E+02  0.14875734533E+03  0.00000000000E+00 0. -1.
        -12    1    6    6    0    0 -0.71170601222E+01  0.77236454262E+02  0.90361935563E+02  0.11908569104E+03  0.00000000000E+00 0.  1.
</event>
<event>
12    1  0.8462562E-002  0.4487324E+03  0.7818608E-02  0.1028117E+00
         21   -1    0    0  503  502  0.00000000000E+00  0.00000000000E+00  0.48488161224E+03  0.48488161224E+03  0.00000000000E+00 0.  1.
         21   -1    0    0  501  503 -0.00000000000E+00 -0.00000000000E+00 -0.47999769220E+03  0.47999769220E+03  0.00000000000E+00 0. -1.
          6    2    1    2  501    0 -0.27797993090E+03 -0.30712893882E+03 -0.17497650088E+03  0.48164049622E+03  0.17251018721E+03 0.  0.
         24    2    3    3    0    0 -0.43920900312E+02 -0.63933146899E+02 -0.37888725217E+02  0.11730140794E+03  0.79420224438E+02 0.  0.
         -6    2    1    2    0  502  0.27797993090E+03  0.30712893882E+03  0.17986042092E+03  0.48323880823E+03  0.17195623780E+03 0.  0.
        -24    2    5    5    0    0  0.20044298542E+03  0.16545461655E+03  0.51271027427E+02  0.27674204403E+03  0.80030120191E+02 0.  0.
          5    1    3    3  501    0 -0.23405903059E+03 -0.24319579192E+03 -0.13708777566E+03  0.36433908828E+03  0.47000000000E+01 0. -1.
        -11    1    4    4    0    0 -0.90898749900E+01 -0.43026225121E+02  0.18578721756E+02  0.47739404873E+02  0.00000000000E+00 0.  1.
         12    1    4    4    0    0 -0.34831025322E+02 -0.20906921778E+02 -0.56467446973E+02  0.69562003068E+02  0.00000000000E+00 0. -1.
         -5    1    5    5    0  502  0.77536945483E+02  0.14167432226E+03  0.12858939349E+03  0.20649676419E+03  0.47000000000E+01 0.  1.
         11    1    6    6    0    0  0.20467495828E+03  0.16972534961E+03  0.49372307687E+02  0.27043697530E+03  0.00000000000E+00 0. -1.
        -12    1    6    6    0    0 -0.42319728555E+01 -0.42707330504E+01  0.18987197404E+01  0.63050687300E+01  0.00000000000E+00 0.  1.
</event>
<event>
12    1  0.8462562E-002  0.1837313E+03  0.7818608E-02  0.1165175E+00
         21   -1    0    0  503  502  0.00000000000E+00  0.00000000000E+00  0.28156153520E+02  0.28156153520E+02  0.00000000000E+00 0.  1.
         21   -1    0    0  501  503 -0.00000000000E+00 -0.00000000000E+00 -0.12818004168E+04  0.12818004168E+04  0.00000000000E+00 0.  1.
          6    2    1    2  501    0 -0.58311615237E+02  0.23869086472E+02 -0.81103401659E+03  0.83072695557E+03  0.16840760341E+03 0.  0.
         24    2    3    3    0    0 -0.60035063147E+02  0.29793213366E+02 -0.19028042933E+03  0.20992491656E+03  0.58051567026E+02 0.  0.
         -6    2    1    2    0  502  0.58311615237E+02 -0.23869086472E+02 -0.44261024670E+03  0.47922961476E+03  0.17258973150E+03 0.  0.
        -24    2    5    5    0    0  0.95906867070E+02 -0.23386891673E+02 -0.41585137189E+03  0.43284251684E+03  0.68375485581E+02 0.  0.
          5    1    3    3  501    0  0.17234479102E+01 -0.59241268941E+01 -0.62075358726E+03  0.62080203902E+03  0.47000000000E+01 0. -1.
        -11    1    4    4    0    0 -0.53266283235E+02  0.33637810624E+02 -0.19189786497E+03  0.20197423057E+03  0.00000000000E+00 0.  1.
         12    1    4    4    0    0 -0.67687799120E+01 -0.38445972585E+01  0.16174356410E+01  0.79506859849E+01  0.00000000000E+00 0. -1.
         -5    1    5    5    0  502 -0.37595251833E+02 -0.48219479852E+00 -0.26758874809E+02  0.46387097918E+02  0.47000000000E+01 0.  1.
         11    1    6    6    0    0  0.10901095497E+02 -0.12275680568E+02 -0.12918136978E+02  0.20890296298E+02  0.00000000000E+00 0. -1.
        -12    1    6    6    0    0  0.85005771574E+02 -0.11111211105E+02 -0.40293323492E+03  0.41195222055E+03  0.00000000000E+00 0.  1.
</event>
<event>
12    1  0.8462562E-002  0.1766082E+03  0.7818608E-02  0.1171324E+00
         21   -1    0    0  503  502  0.00000000000E+00  0.00000000000E+00  0.13529577335E+03  0.13529577335E+03  0.00000000000E+00 0. -1.
         21   -1    0    0  501  503 -0.00000000000E+00 -0.00000000000E+00 -0.23117644644E+03  0.23117644644E+03  0.00000000000E+00 0. -1.
          6    2    1    2  501    0  0.34650316033E+02 -0.16527799840E+02 -0.32453475605E+02  0.17956528480E+03  0.17238518167E+03 0.  0.
         24    2    3    3    0    0  0.81459704643E+00  0.11271399825E+02 -0.79796663762E+02  0.11490371317E+03  0.81900230338E+02 0.  0.
         -6    2    1    2    0  502 -0.34650316033E+02  0.16527799840E+02 -0.63427197487E+02  0.18690693499E+03  0.17157325082E+03 0.  0.
        -24    2    5    5    0    0  0.84586460611E+01  0.55933276708E+02  0.63457145797E+01  0.95794238406E+02  0.77046660419E+02 0.  0.
          5    1    3    3  501    0  0.33835718987E+02 -0.27799199665E+02  0.47343188158E+02  0.64661571635E+02  0.47000000000E+01 0. -1.
        -11    1    4    4    0    0  0.36722441823E+02  0.10665915153E+02 -0.66301676062E+02  0.76538955624E+02  0.00000000000E+00 0.  1.
         12    1    4    4    0    0 -0.35907844777E+02  0.60548467241E+00 -0.13494987701E+02  0.38364757542E+02  0.00000000000E+00 0. -1.
         -5    1    5    5    0  502 -0.43108962094E+02 -0.39405476868E+02 -0.69772912067E+02  0.91112696581E+02  0.47000000000E+01 0.  1.
         11    1    6    6    0    0 -0.14962440361E+02  0.27311497118E+02  0.36569148000E+02  0.48032229615E+02  0.00000000000E+00 0. -1.
        -12    1    6    6    0    0  0.23421086422E+02  0.28621779591E+02 -0.30223433420E+02  0.47762008791E+02  0.00000000000E+00 0.  1.
</event>
<event>
12    1  0.8462562E-002  0.1815940E+03  0.7818608E-02  0.1166377E+00
         21   -1    0    0  501  502  0.00000000000E+00  0.00000000000E+00  0.38594639251E+03  0.38594639251E+03  0.00000000000E+00 0.  1.
         21   -1    0    0  502  503 -0.00000000000E+00 -0.00000000000E+00 -0.87302043066E+02  0.87302043066E+02  0.00000000000E+00 0. -1.
         -6    2    1    2    0  503 -0.50975653157E+02  0.29682035466E+02  0.11270447259E+03  0.21334460586E+03  0.17127195410E+03 0.  0.
        -24    2    3    3    0    0 -0.54288598023E+02 -0.54979264600E+02  0.57205459872E+02  0.11195061321E+03  0.57362912651E+02 0.  0.
          6    2    1    2  501    0  0.50975653157E+02 -0.29682035466E+02  0.18593987686E+03  0.25990382972E+03  0.17174638993E+03 0.  0.
         24    2    5    5    0    0  0.66264764514E+02  0.39205284910E+02  0.11369937015E+03  0.15880981089E+03  0.79780548256E+02 0.  0.
          5    1    5    5  501    0 -0.15289111357E+02 -0.68887320375E+02  0.72240506708E+02  0.10109401883E+03  0.47000000000E+01 0. -1.
        -13    1    6    6    0    0  0.32326372966E+01 -0.11319528383E+02  0.61530326415E+02  0.62646330582E+02  0.00000000000E+00 0.  1.
         14    1    6    6    0    0  0.63032127218E+02  0.50524813293E+02  0.52169043736E+02  0.96163480304E+02  0.00000000000E+00 0. -1.
         -5    1    3    3    0  503  0.33129448656E+01  0.84661300065E+02  0.55499012715E+02  0.10139399265E+03  0.47000000000E+01 0.  1.
         13    1    4    4    0    0 -0.29815593655E+01  0.39205206171E+01 -0.85358456381E+01  0.98549905589E+01  0.00000000000E+00 0. -1.
        -14    1    4    4    0    0 -0.51307038657E+02 -0.58899785217E+02  0.65741305510E+02  0.10209562265E+03  0.00000000000E+00 0.  1.
</event>
<event>
12    1  0.8462562E-002  0.3146048E+03  0.7818608E-02  0.1078279E+00
         21   -1    0    0  501  502  0.00000000000E+00  0.00000000000E+00  0.15027806081E+03  0.15027806081E+03  0.00000000000E+00 0.  1.
         21   -1    0    0  502  503 -0.00000000000E+00 -0.00000000000E+00 -0.65706778808E+03  0.65706778808E+03  0.00000000000E+00 0.  1.
         -6    2    1    2    0  503  0.78214000336E+02  0.25079238115E+03 -0.26494605912E+03  0.41052779936E+03  0.17123787989E+03 0.  0.
        -24    2    3    3    0    0  0.54747007003E+02  0.21537027708E+03 -0.27922888620E+03  0.36545547546E+03  0.78786690693E+02 0.  0.
          6    2    1    2  501    0 -0.78214000336E+02 -0.25079238115E+03 -0.24184366816E+03  0.39681804953E+03  0.17309522327E+03 0.  0.
         24    2    5    5    0    0 -0.80079930609E+01 -0.71408247453E+02 -0.31942285842E+02  0.11188256355E+03  0.79587264330E+02 0.  0.
          5    1    5    5  501    0 -0.70206007275E+02 -0.17938413369E+03 -0.20990138231E+03  0.28493548599E+03  0.47000000000E+01 0. -1.
        -13    1    6    6    0    0 -0.24664126079E+02 -0.80984118233E+02 -0.14412852246E+02  0.85874774126E+02  0.00000000000E+00 0.  1.
         14    1    6    6    0    0  0.16656133018E+02  0.95758707800E+01 -0.17529433595E+02  0.26007789420E+02  0.00000000000E+00 0. -1.
         -5    1    3    3    0  503  0.23466993333E+02  0.35422104061E+02  0.14282827073E+02  0.45072323896E+02  0.47000000000E+01 0.  1.
         13    1    4    4    0    0  0.11587113833E+02 -0.34745411451E+01 -0.20912103062E+02  0.24158843052E+02  0.00000000000E+00 0. -1.
        -14    1    4    4    0    0  0.43159893171E+02  0.21884481823E+03 -0.25831678313E+03  0.34129663241E+03  0.00000000000E+00 0.  1.
</event>
<event>
12    1  0.8462562E-002  0.1865876E+03  0.7818608E-02  0.1164632E+00
         21   -1    0    0  503  502  0.00000000000E+00  0.00000000000E+00  0.52208096884E+02  0.52208096884E+02  0.00000000000E+00 0.  1.
         21   -1    0    0  501  503 -0.00000000000E+00 -0.00000000000E+00 -0.64383443168E+03  0.64383443168E+03  0.00000000000E+00 0.  1.
          6    2    1    2  501    0  0.24183409590E+02  0.16691530777E+02 -0.36986345424E+03  0.41426308594E+03  0.18425928765E+03 0.  0.
         24    2    3    3    0    0  0.82669007957E+02  0.42477745977E+00 -0.30272962838E+03  0.32363079006E+03  0.79103192522E+02 0.  0.
         -6    2    1    2    0  502 -0.24183409590E+02 -0.16691530777E+02 -0.22176288055E+03  0.28177944262E+03  0.17134011380E+03 0.  0.
        -24    2    5    5    0    0 -0.31657657285E+02 -0.37559824058E+00 -0.24046369093E+03  0.25543775813E+03  0.80145575551E+02 0.  0.
          5    1    3    3  501    0 -0.58485598367E+02  0.16266753317E+02 -0.67133825868E+02  0.90632295874E+02  0.47000000000E+01 0. -1.
        -11    1    4    4    0    0  0.12393948713E+02  0.32058130948E+02 -0.13040358641E+03  0.13485706905E+03  0.00000000000E+00 0.  1.
         12    1    4    4    0    0  0.70275059245E+02 -0.31633353488E+02 -0.17232604197E+03  0.18877372101E+03  0.00000000000E+00 0. -1.
         -5    1    5    5    0  502  0.74742476952E+01 -0.16315932537E+02  0.18700810384E+02  0.26341684497E+02  0.47000000000E+01 0.  1.
         11    1    6    6    0    0  0.14989117308E+02 -0.17119004050E+01 -0.17153950828E+03  0.17220164675E+03  0.00000000000E+00 0. -1.
        -12    1    6    6    0    0 -0.46646774593E+02  0.13363021644E+01 -0.68924182651E+02  0.83236111379E+02  0.00000000000E+00 0.  1.
</event>
<event>
12    1  0.8462562E-002  0.2318907E+03  0.7818608E-02  0.1126910E+00
         21   -1    0    0  501  502  0.00000000000E+00  0.00000000000E+00  0.41534667535E+02  0.41534667535E+02  0.00000000000E+00 0.  1.
         21   -1    0    0  502  503 -0.00000000000E+00 -0.00000000000E+00 -0.13463067743E+04  0.13463067743E+04  0.00000000000E+00 0.  1.
         -6    2    1    2    0  503 -0.70942962032E+02  0.12423176884E+03 -0.83072792389E+03  0.86011881517E+03  0.17096507371E+03 0.  0.
        -24    2    3    3    0    0 -0.48585060186E+02  0.12041159585E+03 -0.37984156516E+03  0.40863784327E+03  0.76457908977E+02 0.  0.
          6    2    1    2  501    0  0.70942962032E+02 -0.12423176884E+03 -0.47404418283E+03  0.52772262662E+03  0.18250163593E+03 0.  0.
         24    2    5    5    0    0 -0.12585559322E+02 -0.11340038218E+03 -0.35447523258E+03  0.38139027654E+03  0.82388163845E+02 0.  0.
          5    1    5    5  501    0  0.83528521354E+02 -0.10831386660E+02 -0.11956895025E+03  0.14633235008E+03  0.47000000000E+01 0. -1.
        -11    1    6    6    0    0  0.22479159378E+02 -0.63983909657E+02 -0.10760875095E+03  0.12719629154E+03  0.00000000000E+00 0.  1.
         12    1    6    6    0    0 -0.35064718700E+02 -0.49416472526E+02 -0.24686648164E+03  0.25419398500E+03  0.00000000000E+00 0. -1.
         -5    1    3    3    0  503 -0.22357901846E+02  0.38201729970E+01 -0.45088635873E+03  0.45148097190E+03  0.47000000000E+01 0.  1.
         13    1    4    4    0    0 -0.22925707297E+02  0.56538684210E+02 -0.77889613150E+02  0.98939389042E+02  0.00000000000E+00 0. -1.
        -14    1    4    4    0    0 -0.25659352889E+02  0.63872911636E+02 -0.30195195201E+03  0.30969845423E+03  0.00000000000E+00 0.  1.
</event>
<event>
12    1  0.8462562E-002  0.1782331E+03  0.7818608E-02  0.1169672E+00
         21   -1    0    0  503  502  0.00000000000E+00  0.00000000000E+00  0.82453122675E+03  0.82453122675E+03  0.00000000000E+00 0. -1.
         21   -1    0    0  501  503 -0.00000000000E+00 -0.00000000000E+00 -0.38754145254E+02  0.38754145254E+02  0.00000000000E+00 0. -1.
          6    2    1    2  501    0  0.43241009209E+02 -0.63793581205E+01  0.35082622989E+03  0.39323295705E+03  0.17217036285E+03 0.  0.
         24    2    3    3    0    0  0.38526028886E+02 -0.18825066145E+02  0.78382489162E+02  0.12042385062E+03  0.80743118437E+02 0.  0.
         -6    2    1    2    0  502 -0.43241009209E+02  0.63793581205E+01  0.43495085160E+03  0.47005241495E+03  0.17279047544E+03 0.  0.
        -24    2    5    5    0    0 -0.55997795614E+02 -0.56958524976E+02  0.26241837439E+03  0.28575925521E+03  0.80093208439E+02 0.  0.
          5    1    3    3  501    0  0.47149803225E+01  0.12445708024E+02  0.27244374073E+03  0.27280910643E+03  0.47000000000E+01 0. -1.
        -11    1    4    4    0    0  0.16722820152E+02 -0.49459542828E+02  0.34233544154E+02  0.62432640789E+02  0.00000000000E+00 0.  1.
         12    1    4    4    0    0  0.21803208735E+02  0.30634476684E+02  0.44148945008E+02  0.57991209835E+02  0.00000000000E+00 0. -1.
         -5    1    5    5    0  502  0.12756786405E+02  0.63337883097E+02  0.17253247721E+03  0.18429315974E+03  0.47000000000E+01 0.  1.
         13    1    6    6    0    0  0.33639424943E+01  0.99531425319E+01  0.98197733619E+02  0.98758169501E+02  0.00000000000E+00 0. -1.
        -14    1    6    6    0    0 -0.59361738108E+02 -0.66911667508E+02  0.16422064077E+03  0.18700108571E+03  0.00000000000E+00 0.  1.
</event>
<event>
12    1  0.8462562E-002  0.2138452E+03  0.7818608E-02  0.1139073E+00
         21   -1    0    0  501  502  0.00000000000E+00  0.00000000000E+00  0.61153606056E+02  0.61153606056E+02  0.00000000000E+00 0. -1.
         21   -1    0    0  502  503 -0.00000000000E+00 -0.00000000000E+00 -0.76194029725E+03  0.76194029725E+03  0.00000000000E+00 0.  1.
         -6    2    1    2    0  503 -0.20932861813E+02  0.12440297187E+03 -0.28038607662E+03  0.35262744468E+03  0.17267159195E+03 0.  0.
        -24    2    3    3    0    0  0.57818428421E+02  0.38397764702E+02 -0.13858973575E+03  0.16897844888E+03  0.67299645853E+02 0.  0.
          6    2    1    2  501    0  0.20932861813E+02 -0.12440297187E+03 -0.42040061457E+03  0.47046645862E+03  0.16937451946E+03 0.  0.
         24    2    5    5    0    0 -0.49723993519E+02 -0.49729796690E+02 -0.18805431935E+03  0.21634962487E+03  0.80605241404E+02 0.  0.
          5    1    5    5  501    0  0.70656855332E+02 -0.74673175183E+02 -0.23234629521E+03  0.25411683375E+03  0.47000000000E+01 0. -1.
        -11    1    6    6    0    0  0.13837228799E+02 -0.39154040517E+02 -0.59605963928E+02  0.72645569207E+02  0.00000000000E+00 0.  1.
         12    1    6    6    0    0 -0.63561222318E+02 -0.10575756173E+02 -0.12844835543E+03  0.14370405566E+03  0.00000000000E+00 0. -1.
         -5    1    3    3    0  503 -0.78751290235E+02  0.86005207171E+02 -0.14179634088E+03  0.18364899581E+03  0.47000000000E+01 0.  1.
         13    1    4    4    0    0  0.19133812946E+02 -0.11157897112E+02 -0.71451659994E+01  0.23273479821E+02  0.00000000000E+00 0. -1.
        -14    1    4    4    0    0  0.38684615476E+02  0.49555661814E+02 -0.13144456975E+03  0.14570496906E+03  0.00000000000E+00 0.  1.
</event>
<event>
12    1  0.8462562E-002  0.1880334E+03  0.7818608E-02  0.1161108E+00
         21   -1    0    0  503  502  0.00000000000E+00  0.00000000000E+00  0.51927429588E+03  0.51927429588E+03  0.00000000000E+00 0.  1.
         21   -1    0    0  501  503 -0.00000000000E+00 -0.00000000000E+00 -0.84765009721E+02  0.84765009721E+02  0.00000000000E+00 0.  1.
          6    2    1    2  501    0  0.57209109397E+02  0.52554269183E+02  0.76301113975E+02  0.19947823016E+03  0.16713728162E+03 0.  0.
         24    2    3    3    0    0 -0.35996867393E+02  0.28049071120E+02  0.40610397509E+02  0.96600749228E+02  0.74832984123E+02 0.  0.
         -6    2    1    2    0  502 -0.57209109397E+02 -0.52554269183E+02  0.35820817219E+03  0.40456107544E+03  0.17123590668E+03 0.  0.
        -24    2    5    5    0    0 -0.70743423227E+02  0.12300198523E+01  0.32077092705E+03  0.33748228057E+03  0.77421942512E+02 0.  0.
          5    1    3    3  501    0  0.93205976790E+02  0.24505198063E+02  0.35690716466E+02  0.10287748093E+03  0.47000000000E+01 0. -1.
        -13    1    4    4    0    0 -0.82394946334E+01 -0.61812016426E+01 -0.19507474791E+02  0.22059875301E+02  0.00000000000E+00 0.  1.
         14    1    4    4    0    0 -0.27757372760E+02  0.34230272762E+02  0.60117872300E+02  0.74540873927E+02  0.00000000000E+00 0. -1.
         -5    1    5    5    0  502  0.13534313830E+02 -0.53784289035E+02  0.37437245142E+02  0.67078794873E+02  0.47000000000E+01 0.  1.
         13    1    6    6    0    0 -0.60404427055E+01 -0.30302481544E+02  0.68548266235E+02  0.75190372652E+02  0.00000000000E+00 0. -1.
        -14    1    6    6    0    0 -0.64702980522E+02  0.31532501396E+02  0.25222266081E+03  0.26229190792E+03  0.00000000000E+00 0.  1.
</event>
<event>
12    1  0.8462562E-002  0.1947728E+03  0.7818608E-02  0.1154352E+00
         21   -1    0    0  503  502  0.00000000000E+00  0.00000000000E+00  0.70129575444E+02  0.70129575444E+02  0.00000000000E+00 0.  1.
         21   -1    0    0  501  503 -0.00000000000E+00 -0.00000000000E+00 -0.62941130248E+03  0.62941130248E+03  0.00000000000E+00 0.  1.
          6    2    1    2  501    0 -0.41672981551E+02 -0.81694665185E+02 -0.41159420103E+03  0.45510672913E+03  0.17117737252E+03 0.  0.
         24    2    3    3    0    0 -0.70813469744E+02 -0.76014282076E+02 -0.40261092735E+03  0.42373438445E+03  0.81624452050E+02 0.  0.
         -6    2    1    2    0  502  0.41672981551E+02  0.81694665185E+02 -0.14768752600E+03  0.24443414879E+03  0.17183070752E+03 0.  0.
        -24    2    5    5    0    0  0.66494643958E+02  0.10345929263E+02 -0.33512571143E+02  0.10744959726E+03  0.76770747024E+02 0.  0.
          5    1    3    3  501    0  0.29140488193E+02 -0.56803831089E+01 -0.89832736867E+01  0.31372344677E+02  0.47000000000E+01 0. -1.
        -11    1    4    4    0    0 -0.79606681866E+02 -0.58027522445E+02 -0.23332411184E+03  0.25326776014E+03  0.00000000000E+00 0.  1.
         12    1    4    4    0    0  0.87932121227E+01 -0.17986759631E+02 -0.16928681551E+03  0.17046662432E+03  0.00000000000E+00 0. -1.
         -5    1    5    5    0  502 -0.24821662407E+02  0.71348735922E+02 -0.11417495485E+03  0.13698455153E+03  0.47000000000E+01 0.  1.
         11    1    6    6    0    0 -0.68582713262E+01  0.19543167837E+02  0.85348521874E+01  0.22401227568E+02  0.00000000000E+00 0. -1.
        -12    1    6    6    0    0  0.73352915284E+02 -0.91972385737E+01 -0.42047423330E+02  0.85048369689E+02  0.00000000000E+00 0.  1.
</event>
<event>
12    1  0.8462562E-002  0.3276106E+03  0.7818608E-02  0.1072220E+00
         21   -1    0    0  501  502  0.00000000000E+00  0.00000000000E+00  0.29740610255E+03  0.29740610255E+03  0.00000000000E+00 0.  1.
         21   -1    0    0  502  503 -0.00000000000E+00 -0.00000000000E+00 -0.37456547006E+03  0.37456547006E+03  0.00000000000E+00 0. -1.
         -6    2    1    2    0  503  0.62474092666E+02  0.27131944367E+03 -0.10327509621E+03  0.34332165435E+03  0.17229846220E+03 0.  0.
        -24    2    3    3    0    0  0.14345382131E+01  0.47386286752E+02 -0.20032545829E+02  0.96697855476E+02  0.81863632274E+02 0.  0.
          6    2    1    2  501    0 -0.62474092666E+02 -0.27131944367E+03  0.26115728702E+02  0.32864991827E+03  0.17266002641E+03 0.  0.
         24    2    5    5    0    0 -0.40919543889E+02 -0.24371215362E+03 -0.31421889770E+02  0.26112637736E+03  0.78291933835E+02 0.  0.
          5    1    5    5  501    0 -0.21554548777E+02 -0.27607290056E+02  0.57537618472E+02  0.67523540907E+02  0.47000000000E+01 0. -1.
        -11    1    6    6    0    0  0.14478248084E+02 -0.12209517206E+03  0.34953547217E+01  0.12300027729E+03  0.00000000000E+00 0.  1.
         12    1    6    6    0    0 -0.55397791973E+02 -0.12161698155E+03 -0.34917244492E+02  0.13812610007E+03  0.00000000000E+00 0. -1.
         -5    1    3    3    0  503  0.61039554453E+02  0.22393315692E+03 -0.83242550381E+02  0.24662379887E+03  0.47000000000E+01 0.  1.
         11    1    4    4    0    0 -0.19677437407E+02  0.40677895597E+02 -0.44688108957E+02  0.63552496530E+02  0.00000000000E+00 0. -1.
        -12    1    4    4    0    0  0.21111975620E+02  0.67083911546E+01  0.24655563128E+02  0.33145358945E+02  0.00000000000E+00 0.  1.
</event>
<event>
12    1  0.8462562E-002  0.2094831E+03  0.7818608E-02  0.1142106E+00
         21   -1    0    0  503  502  0.00000000000E+00  0.00000000000E+00  0.57231267028E+03  0.57231267028E+03  0.00000000000E+00 0. -1.
         21   -1    0    0  501  503 -0.00000000000E+00 -0.00000000000E+00 -0.40036039540E+03  0.40036039540E+03  0.00000000000E+00 0. -1.
          6    2    1    2  501    0  0.10171346935E+03 -0.63483497657E+02 -0.35150290322E+03  0.40885704814E+03  0.17097956171E+03 0.  0.
         24    2    3    3    0    0  0.84005067144E+02  0.10535780026E+01 -0.12100770580E+03  0.16879716463E+03  0.82411507627E+02 0.  0.
         -6    2    1    2    0  502 -0.10171346935E+03  0.63483497657E+02  0.52345517810E+03  0.56381601753E+03  0.17177716327E+03 0.  0.
        -24    2    5    5    0    0 -0.46080159937E+02  0.10373175263E+03  0.32341780244E+03  0.35226926429E+03  0.81307453455E+02 0.  0.
          5    1    3    3  501    0  0.17708402203E+02 -0.64537075659E+02 -0.23049519741E+03  0.24005988352E+03  0.47000000000E+01 0. -1.
        -13    1    4    4    0    0 -0.12953449628E+02  0.20545715904E+01  0.76244205453E+00  0.13137520298E+02  0.00000000000E+00 0.  1.
         14    1    4    4    0    0  0.96958516773E+02 -0.10009935878E+01 -0.12177014786E+03  0.15565964433E+03  0.00000000000E+00 0. -1.
         -5    1    5    5    0  502 -0.55633309410E+02 -0.40248254970E+02  0.20003737567E+03  0.21154675324E+03  0.47000000000E+01 0.  1.
         13    1    6    6    0    0 -0.45192070739E+02  0.68336199355E+02  0.29700086054E+03  0.30809360682E+03  0.00000000000E+00 0. -1.
        -14    1    6    6    0    0 -0.88808919775E+00  0.35395553272E+02  0.26416941893E+02  0.44175657469E+02  0.00000000000E+00 0.  1.
</event>
<event>
12    1  0.8462562E-002  0.2012335E+03  0.7818608E-02  0.1152533E+00
         21   -1    0    0  503  502  0.00000000000E+00  0.00000000000E+00  0.17584124664E+03  0.17584124664E+03  0.00000000000E+00 0. -1.
         21   -1    0    0  501  503 -0.00000000000E+00 -0.00000000000E+00 -0.21086477716E+03  0.21086477716E+03  0.00000000000E+00 0.  1.
          6    2    1    2  501    0  0.18800736221E+02 -0.10010549301E+03 -0.12528885537E+02  0.18421914742E+03  0.15298739781E+03 0.  0.
         24    2    3    3    0    0  0.85794207598E+01 -0.89947427350E+02 -0.60413056082E+02  0.13399320415E+03  0.78360036159E+02 0.  0.
         -6    2    1    2    0  502 -0.18800736221E+02  0.10010549301E+03 -0.22494644982E+02  0.20248687639E+03  0.17355214964E+03 0.  0.
        -24    2    5    5    0    0 -0.37279962886E+02  0.85769770882E+02 -0.75398918495E+02  0.14445286134E+03  0.80220838988E+02 0.  0.
          5    1    3    3  501    0  0.10221315461E+02 -0.10158065663E+02  0.47884170546E+02  0.50225943263E+02  0.47000000000E+01 0. -1.
        -11    1    4    4    0    0 -0.18005308642E+02  0.59623467496E+01 -0.33232493047E+01  0.19255770668E+02  0.00000000000E+00 0.  1.
         12    1    4    4    0    0  0.26584729402E+02 -0.95909774099E+02 -0.57089806778E+02  0.11473743349E+03  0.00000000000E+00 0. -1.
         -5    1    5    5    0  502  0.18479226665E+02  0.14335722131E+02  0.52904273513E+02  0.58034015053E+02  0.47000000000E+01 0.  1.
         13    1    6    6    0    0  0.80435231861E+01  0.28150562990E+02  0.10881580439E+02  0.31233975967E+02  0.00000000000E+00 0. -1.
        -14    1    6    6    0    0 -0.45323486072E+02  0.57619207893E+02 -0.86280498934E+02  0.11321888537E+03  0.00000000000E+00 0.  1.
</event>
<event>
12    1  0.8462562E-002  0.2592770E+03  0.7818608E-02  0.1107835E+00
         21   -1    0    0  503  502  0.00000000000E+00  0.00000000000E+00  0.45510681325E+03  0.45510681325E+03  0.00000000000E+00 0.  1.
         21   -1    0    0  501  503 -0.00000000000E+00 -0.00000000000E+00 -0.16329746569E+03  0.16329746569E+03  0.00000000000E+00 0.  1.
          6    2    1    2  501    0  0.16931751724E+03 -0.87011611878E+02  0.47902320667E+02  0.26366496671E+03  0.17602596428E+03 0.  0.
         24    2    3    3    0    0  0.17881901096E+03 -0.11548732128E+03  0.27511967442E+02  0.22707260530E+03  0.74104653495E+02 0.  0.
         -6    2    1    2    0  502 -0.16931751724E+03  0.87011611878E+02  0.24390702689E+03  0.35473931222E+03  0.17352204362E+03 0.  0.
        -24    2    5    5    0    0 -0.37490011450E+02  0.89245076999E+02  0.12767874741E+03  0.17891388005E+03  0.79612368416E+02 0.  0.
          5    1    3    3  501    0 -0.95014937201E+01  0.28475709402E+02  0.20390353225E+02  0.36592361409E+02  0.47000000000E+01 0. -1.
        -11    1    4    4    0    0  0.37552303024E+02  0.38458935550E+01 -0.84545947876E+01  0.38683931195E+02  0.00000000000E+00 0.  1.
         12    1    4    4    0    0  0.14126670794E+03 -0.11933321483E+03  0.35966562230E+02  0.18838867411E+03  0.00000000000E+00 0. -1.
         -5    1    5    5    0  502 -0.13182750579E+03 -0.22334651207E+01  0.11622827948E+03  0.17582543218E+03  0.47000000000E+01 0.  1.
         13    1    6    6    0    0 -0.50338877111E+01  0.24064396560E+02  0.96712474843E+02  0.99788466255E+02  0.00000000000E+00 0. -1.
        -14    1    6    6    0    0 -0.32456123739E+02  0.65180680439E+02  0.30966272570E+02  0.79125413791E+02  0.00000000000E+00 0.  1.
</event>
<event>
12    1  0.8462562E-002  0.1993860E+03  0.7818608E-02  0.1150314E+00
         21   -1    0    0  503  502  0.00000000000E+00  0.00000000000E+00  0.18286998636E+03  0.18286998636E+03  0.00000000000E+00 0. -1.
         21   -1    0    0  501  503 -0.00000000000E+00 -0.00000000000E+00 -0.26419604438E+03  0.26419604438E+03  0.00000000000E+00 0. -1.
          6    2    1    2  501    0  0.93377007577E+02  0.27760464929E+02 -0.13505667982E+03  0.24082165446E+03  0.17396796698E+03 0.  0.
         24    2    3    3    0    0  0.48471429727E+02 -0.52742681708E+02 -0.55551406713E+02  0.11900028526E+03  0.77096297783E+02 0.  0.
         -6    2    1    2    0  502 -0.93377007577E+02 -0.27760464929E+02  0.53730621806E+02  0.20624437628E+03  0.17366592663E+03 0.  0.
        -24    2    5    5    0    0 -0.13716149889E+02  0.31283691740E+02 -0.11743371440E+02  0.87328445999E+02  0.79508166695E+02 0.  0.
          5    1    3    3  501    0  0.44905577850E+02  0.80503146637E+02 -0.79505273108E+02  0.12182136919E+03  0.47000000000E+01 0. -1.
        -11    1    4    4    0    0 -0.19268560356E+02 -0.17094288316E+02 -0.25279852263E+01  0.25882094593E+02  0.00000000000E+00 0.  1.
         12    1    4    4    0    0  0.67739990083E+02 -0.35648393392E+02 -0.53023421487E+02  0.93118190672E+02  0.00000000000E+00 0. -1.
         -5    1    5    5    0  502 -0.79660857688E+02 -0.59044156669E+02  0.65473993245E+02  0.11891593029E+03  0.47000000000E+01 0.  1.
         13    1    6    6    0    0 -0.12256328172E+02 -0.25971885972E+02 -0.85544005164E+01  0.29965550377E+02  0.00000000000E+00 0. -1.
        -14    1    6    6    0    0 -0.14598217167E+01  0.57255577712E+02 -0.31889709231E+01  0.57362895622E+02  0.00000000000E+00 0.  1.
</event>
<event>
12    1  0.8462562E-002  0.2275520E+03  0.7818608E-02  0.1130863E+00
         21   -1    0    0  501  502  0.00000000000E+00  0.00000000000E+00  0.14195794806E+03  0.14195794806E+03  0.00000000000E+00 0. -1.
         21   -1    0    0  502  503 -0.00000000000E+00 -0.00000000000E+00 -0.35951030740E+03  0.35951030740E+03  0.00000000000E+00 0. -1.
         -6    2    1    2    0  503 -0.14992534467E+03  0.50408904288E+01 -0.58961690944E+02  0.23506676987E+03  0.17110489691E+03 0.  0.
        -24    2    3    3    0    0 -0.17308078536E+03 -0.74821633249E+01 -0.73873680120E+02  0.20444882202E+03  0.79555384374E+02 0.  0.
          6    2    1    2  501    0  0.14992534467E+03 -0.50408904288E+01 -0.15859066839E+03  0.26640148559E+03  0.15269489801E+03 0.  0.
         24    2    5    5    0    0  0.95281521372E+02 -0.52394142011E+02 -0.12908093501E+03  0.18816343715E+03  0.83185797268E+02 0.  0.
          5    1    5    5  501    0  0.54643823293E+02  0.47353251582E+02 -0.29509733379E+02  0.78238048439E+02  0.47000000000E+01 0. -1.
        -13    1    6    6    0    0  0.35844230659E+02 -0.64513298696E+02 -0.53006908049E+02  0.90865322765E+02  0.00000000000E+00 0.  1.
         14    1    6    6    0    0  0.59437290713E+02  0.12119156685E+02 -0.76074026959E+02  0.97298114390E+02  0.00000000000E+00 0. -1.
         -5    1    3    3    0  503  0.23155440694E+02  0.12523053754E+02  0.14911989176E+02  0.30617947845E+02  0.47000000000E+01 0.  1.
         11    1    4    4    0    0 -0.13945178947E+03  0.47862061703E+01 -0.89092420319E+02  0.16555110605E+03  0.00000000000E+00 0. -1.
        -12    1    4    4    0    0 -0.33628995886E+02 -0.12268369495E+02  0.15218740199E+02  0.38897715970E+02  0.00000000000E+00 0.  1.
</event>
<event>
12    1  0.8462562E-002  0.2128956E+03  0.7818608E-02  0.1139323E+00
         21   -1    0    0  503  502  0.00000000000E+00  0.00000000000E+00  0.11807549092E+03  0.11807549092E+03  0.00000000000E+00 0.  1.
         21   -1    0    0  501  503 -0.00000000000E+00 -0.00000000000E+00 -0.61383655281E+03  0.61383655281E+03  0.00000000000E+00 0.  1.
          6    2    1    2  501    0  0.14162439860E+02 -0.12494413021E+03 -0.47206824218E+03  0.51785417727E+03  0.17179322821E+03 0.  0.
         24    2    3    3    0    0 -0.15431106437E+02 -0.15016165052E+03 -0.41564097934E+03  0.44916773534E+03  0.78788263279E+02 0.  0.
         -6    2    1    2    0  502 -0.14162439860E+02  0.12494413021E+03 -0.23692819705E+02  0.21405786646E+03  0.17160364248E+03 0.  0.
        -24    2    5    5    0    0 -0.22586633353E+02  0.11059240666E+03  0.42334439796E+02  0.14580372372E+03  0.82010271550E+02 0.  0.
          5    1    3    3  501    0  0.29593546296E+02  0.25217520305E+02 -0.56427262840E+02  0.68686441925E+02  0.47000000000E+01 0. -1.
        -13    1    4    4    0    0  0.34335561138E+01 -0.10270755995E+03 -0.35657113166E+03  0.37108436253E+03  0.00000000000E+00 0.  1.
         14    1    4    4    0    0 -0.18864662550E+02 -0.47454090567E+02 -0.59069847678E+02  0.78083372810E+02  0.00000000000E+00 0. -1.
         -5    1    5    5    0  502  0.84241934927E+01  0.14351723555E+02 -0.66027259501E+02  0.68254142748E+02  0.47000000000E+01 0.  1.
         11    1    6    6    0    0 -0.33634839693E+02  0.35992149105E+02  0.49766352012E+02  0.70024474514E+02  0.00000000000E+00 0. -1.
        -12    1    6    6    0    0  0.11048206341E+02  0.74600257554E+02 -0.74319122157E+01  0.75779249202E+02  0.00000000000E+00 0.  1.
</event>
<event>
12    1  0.8462562E-002  0.1864559E+03  0.7818608E-02  0.1161845E+00
         21   -1    0    0  501  502  0.00000000000E+00  0.00000000000E+00  0.31901754154E+03  0.31901754154E+03  0.00000000000E+00 0.  1.
         21   -1    0    0  502  503 -0.00000000000E+00 -0.00000000000E+00 -0.10920117309E+03  0.10920117309E+03  0.00000000000E+00 0.  1.
         -6    2    1    2    0  503  0.60166643920E+02  0.36595984828E+02  0.12092246443E+03  0.22223417660E+03  0.17264557828E+03 0.  0.
        -24    2    3    3    0    0  0.17228030430E+02  0.47373631411E+02  0.16725027430E+01  0.94945035051E+02  0.80440639169E+02 0.  0.
          6    2    1    2  501    0 -0.60166643920E+02 -0.36595984828E+02  0.88893904017E+02  0.20598453804E+03  0.17195410025E+03 0.  0.
         24    2    5    5    0    0  0.22652975076E+02 -0.44333499199E+02  0.16794122185E+02  0.95805470333E+02  0.80112603096E+02 0.  0.
          5    1    5    5  501    0 -0.82819618996E+02  0.77375143718E+01  0.72099781833E+02  0.11017906770E+03  0.47000000000E+01 0. -1.
        -11    1    6    6    0    0 -0.11872208462E+02 -0.55066388256E+02  0.97211074955E+00  0.56340051905E+02  0.00000000000E+00 0.  1.
         12    1    6    6    0    0  0.34525183538E+02  0.10732889057E+02  0.15822011435E+02  0.39465418428E+02  0.00000000000E+00 0. -1.
         -5    1    3    3    0  503  0.42938613490E+02 -0.10777646584E+02  0.11924996169E+03  0.12728914155E+03  0.47000000000E+01 0.  1.
         13    1    4    4    0    0  0.40334451781E+02  0.42015551326E+02  0.23410472115E+02  0.62771209629E+02  0.00000000000E+00 0. -1.
        -14    1    4    4    0    0 -0.23106421352E+02  0.53580800853E+01 -0.21737969372E+02  0.32173825422E+02  0.00000000000E+00 0.  1.
</event>
<event>
12    1  0.8462562E-002  0.2000302E+03  0.7818608E-02  0.1149715E+00
         21   -1    0    0  501  502  0.00000000000E+00  0.00000000000E+00  0.22071753924E+03  0.22071753924E+03  0.00000000000E+00 0.  1.
         21   -1    0    0  502  503 -0.00000000000E+00 -0.00000000000E+00 -0.29717808429E+03  0.29717808429E+03  0.00000000000E+00 0.  1.
         -6    2    1    2    0  503 -0.34648450760E+02 -0.95944865340E+02 -0.19994408452E+03  0.28282454321E+03  0.17206438615E+03 0.  0.
        -24    2    3    3    0    0  0.12346091030E+02 -0.78364147481E+01 -0.29572094270E+02  0.85288999353E+02  0.78650297464E+02 0.  0.
          6    2    1    2  501    0  0.34648450760E+02  0.95944865340E+02  0.12348353947E+03  0.23507108032E+03  0.17205898976E+03 0.  0.
         24    2    5    5    0    0  0.48963860407E+01  0.12433993723E+03  0.12335960694E+03  0.19367578081E+03  0.82512549724E+02 0.  0.
          5    1    5    5  501    0  0.29752064719E+02 -0.28395071890E+02  0.12393253791E+00  0.41395299515E+02  0.47000000000E+01 0. -1.
        -13    1    6    6    0    0 -0.40096960036E+01 -0.79362952859E+01  0.30614686776E+02  0.31879797542E+02  0.00000000000E+00 0.  1.
         14    1    6    6    0    0  0.89060820443E+01  0.13227623252E+03  0.92744920160E+02  0.16179598327E+03  0.00000000000E+00 0. -1.
         -5    1    3    3    0  503 -0.46994541790E+02 -0.88108450592E+02 -0.17037199025E+03  0.19753554386E+03  0.47000000000E+01 0.  1.
         11    1    4    4    0    0  0.22831002288E+02 -0.31069703130E+02 -0.41929455226E+02  0.56961920031E+02  0.00000000000E+00 0. -1.
        -12    1    4    4    0    0 -0.10484911258E+02  0.23233288381E+02  0.12357360956E+02  0.28327079322E+02  0.00000000000E+00 0.  1.
</event>
<event>
12    1  0.8462562E-002  0.2097584E+03  0.7818608E-02  0.1141838E+00
         21   -1    0    0  503  502  0.00000000000E+00  0.00000000000E+00  0.10010160476E+03  0.10010160476E+03  0.00000000000E+00 0. -1.
         21   -1    0    0  501  503 -0.00000000000E+00 -0.00000000000E+00 -0.43869249528E+03  0.43869249528E+03  0.00000000000E+00 0.  1.
          6    2    1    2  501    0 -0.39556003159E+02  0.11403785325E+03 -0.17053521960E+03  0.27033466813E+03  0.17154959140E+03 0.  0.
         24    2    3    3    0    0  0.24994615654E+01 -0.99266025924E+01 -0.87649426496E+02  0.11532501319E+03  0.74247235343E+02 0.  0.
         -6    2    1    2    0  502  0.39556003159E+02 -0.11403785325E+03 -0.16805567092E+03  0.26845943191E+03  0.17105101197E+03 0.  0.
        -24    2    5    5    0    0  0.22976504566E+02 -0.17755103942E+02 -0.14648507434E+03  0.16829642365E+03  0.77605706823E+02 0.  0.
          5    1    3    3  501    0 -0.42055464724E+02  0.12396445584E+03 -0.82885793108E+02  0.15500965494E+03  0.47000000000E+01 0. -1.
        -13    1    4    4    0    0 -0.29354944213E+02  0.99679260820E+01 -0.17106839267E+02  0.35407855764E+02  0.00000000000E+00 0.  1.
         14    1    4    4    0    0  0.31854405779E+02 -0.19894528674E+02 -0.70542587229E+02  0.79917157430E+02  0.00000000000E+00 0. -1.
         -5    1    5    5    0  502  0.16579498593E+02 -0.96282749304E+02 -0.21570596577E+02  0.10016300826E+03  0.47000000000E+01 0.  1.
         11    1    6    6    0    0  0.18169012043E+02 -0.78168720138E+01  0.15596932877E+01  0.19840592981E+02  0.00000000000E+00 0. -1.
        -12    1    6    6    0    0  0.48074925235E+01 -0.99382319280E+01 -0.14804476763E+03  0.14845583067E+03  0.00000000000E+00 0.  1.
</event>
<event>
12    1  0.8462562E-002  0.2060620E+03  0.7818608E-02  0.1144854E+00
         21   -1    0    0  503  502  0.00000000000E+00  0.00000000000E+00  0.66845879090E+02  0.66845879090E+02  0.00000000000E+00 0.  1.
         21   -1    0    0  501  503 -0.00000000000E+00 -0.00000000000E+00 -0.10751445948E+04  0.10751445948E+04  0.00000000000E+00 0.  1.
          6    2    1    2  501    0  0.11261488248E+03 -0.70626512620E+01 -0.86975630825E+03  0.89368515125E+03  0.17165407371E+03 0.  0.
         24    2    3    3    0    0  0.45863588401E+02  0.63059984216E+02 -0.48154805611E+03  0.49355935066E+03  0.75048463864E+02 0.  0.
         -6    2    1    2    0  502 -0.11261488248E+03  0.70626512620E+01 -0.13854240748E+03  0.24830532266E+03  0.17242256753E+03 0.  0.
        -24    2    5    5    0    0 -0.13153887796E+02  0.47468474114E+02 -0.46421251881E+02  0.10676551451E+03  0.82569132626E+02 0.  0.
          5    1    3    3  501    0  0.66751294080E+02 -0.70122635478E+02 -0.38820825213E+03  0.40012580058E+03  0.47000000000E+01 0. -1.
        -11    1    4    4    0    0  0.17996722913E+02  0.15303100877E+02 -0.27916579263E+02  0.36570511752E+02  0.00000000000E+00 0.  1.
         12    1    4    4    0    0  0.27866865488E+02  0.47756883339E+02 -0.45363147685E+03  0.45698883891E+03  0.00000000000E+00 0. -1.
         -5    1    5    5    0  502 -0.99460994685E+02 -0.40405822852E+02 -0.92121155597E+02  0.14153980815E+03  0.47000000000E+01 0.  1.
         11    1    6    6    0    0 -0.37791739013E+02  0.38339036719E+01 -0.41740608045E+02  0.56437511595E+02  0.00000000000E+00 0. -1.
        -12    1    6    6    0    0  0.24637851217E+02  0.43634570442E+02 -0.46806438360E+01  0.50328002911E+02  0.00000000000E+00 0.  1.
</event>
<event>
12    1  0.8462562E-002  0.1868611E+03  0.7818608E-02  0.1161650E+00
         21   -1    0    0  501  502  0.00000000000E+00  0.00000000000E+00  0.11057090040E+03  0.11057090040E+03  0.00000000000E+00 0. -1.
         21   -1    0    0  502  503 -0.00000000000E+00 -0.00000000000E+00 -0.31652994731E+03  0.31652994731E+03  0.00000000000E+00 0. -1.
         -6    2    1    2    0  503  0.68519901054E+02 -0.10199298793E+02 -0.12458582951E+03  0.22458561970E+03  0.17354558227E+03 0.  0.
        -24    2    3    3    0    0  0.23594000903E+01 -0.66053444427E+02 -0.84312234488E+02  0.12897730454E+03  0.71818994090E+02 0.  0.
          6    2    1    2  501    0 -0.68519901054E+02  0.10199298793E+02 -0.81373217411E+02  0.20251522801E+03  0.17202271515E+03 0.  0.
         24    2    5    5    0    0 -0.56847450450E+02 -0.55219820145E+02 -0.77225402197E+02  0.13576793146E+03  0.78665795038E+02 0.  0.
          5    1    5    5  501    0 -0.11672450603E+02  0.65419118939E+02 -0.41478152149E+01  0.66747296551E+02  0.47000000000E+01 0. -1.
        -11    1    6    6    0    0 -0.39380106967E+02  0.12713559520E+02 -0.31973429473E+02  0.52294623172E+02  0.00000000000E+00 0.  1.
         12    1    6    6    0    0 -0.17467343483E+02 -0.67933379666E+02 -0.45251972723E+02  0.83473308288E+02  0.00000000000E+00 0. -1.
         -5    1    3    3    0  503  0.66160500963E+02  0.55854145633E+02 -0.40273595018E+02  0.95608315160E+02  0.47000000000E+01 0.  1.
         11    1    4    4    0    0 -0.20436270031E+02 -0.70919350458E+02 -0.58333670315E+02  0.94074505019E+02  0.00000000000E+00 0. -1.
        -12    1    4    4    0    0  0.22795670121E+02  0.48659060309E+01 -0.25978564173E+02  0.34902799519E+02  0.00000000000E+00 0.  1.
</event>
<event>
12    1  0.8462562E-002  0.1759562E+03  0.7818608E-02  0.1172256E+00
         21   -1    0    0  501  502  0.00000000000E+00  0.00000000000E+00  0.97582345869E+02  0.97582345869E+02  0.00000000000E+00 0. -1.
         21   -1    0    0  502  503 -0.00000000000E+00 -0.00000000000E+00 -0.37905767669E+03  0.37905767669E+03  0.00000000000E+00 0. -1.
         -6    2    1    2    0  503 -0.29282969896E+02  0.95945224318E+01 -0.23896243960E+03  0.29562083821E+03  0.17128655889E+03 0.  0.
        -24    2    3    3    0    0 -0.77976793252E+01  0.51429219035E+02 -0.22731155789E+03  0.24694237690E+03  0.81266381633E+02 0.  0.
          6    2    1    2  501    0  0.29282969896E+02 -0.95945224318E+01 -0.42512891220E+02  0.18101918435E+03  0.17323698219E+03 0.  0.
         24    2    5    5    0    0  0.58643918165E+02  0.49444396255E+02 -0.17034600536E+02  0.11017504205E+03  0.77230206628E+02 0.  0.
          5    1    5    5  501    0 -0.29360948269E+02 -0.59038918687E+02 -0.25478290684E+02  0.70844142306E+02  0.47000000000E+01 0. -1.
        -11    1    6    6    0    0 -0.16761484198E+02  0.23680029609E+02 -0.19755599538E+01  0.29079098884E+02  0.00000000000E+00 0.  1.
         12    1    6    6    0    0  0.75405402363E+02  0.25764366646E+02 -0.15059040582E+02  0.81095943162E+02  0.00000000000E+00 0. -1.
         -5    1    3    3    0  503 -0.21485290571E+02 -0.41834696603E+02 -0.11650881711E+02  0.48678461309E+02  0.47000000000E+01 0.  1.
         13    1    4    4    0    0 -0.32296162312E+02 -0.70158674911E+01 -0.73597733412E+02  0.80677697414E+02  0.00000000000E+00 0. -1.
        -14    1    4    4    0    0  0.24498482987E+02  0.58445086526E+02 -0.15371382448E+03  0.16626467948E+03  0.00000000000E+00 0.  1.
</event>
<event>
12    1  0.8462562E-002  0.3366177E+03  0.7818608E-02  0.1068367E+00
         21   -1    0    0  503  502  0.00000000000E+00  0.00000000000E+00  0.33077490780E+03  0.33077490780E+03  0.00000000000E+00 0. -1.
         21   -1    0    0  501  503 -0.00000000000E+00 -0.00000000000E+00 -0.34495100527E+03  0.34495100527E+03  0.00000000000E+00 0. -1.
          6    2    1    2  501    0  0.55473218647E+02  0.28434222431E+03 -0.41234999873E+02  0.33802236517E+03  0.16920702003E+03 0.  0.
         24    2    3    3    0    0 -0.31787788623E+02  0.17000089863E+03 -0.36499809669E+02  0.19403301079E+03  0.80036267591E+02 0.  0.
         -6    2    1    2    0  502 -0.55473218647E+02 -0.28434222431E+03  0.27058902402E+02  0.33770354790E+03  0.17141681233E+03 0.  0.
        -24    2    5    5    0    0 -0.57576126318E+02 -0.16768397154E+03  0.78885984641E+02  0.20994711317E+03  0.80136552972E+02 0.  0.
          5    1    3    3  501    0  0.87261007270E+02  0.11434132568E+03 -0.47351902033E+01  0.14398935438E+03  0.47000000000E+01 0. -1.
        -13    1    4    4    0    0 -0.28601527955E+02  0.34133575931E+02  0.17425915834E+02  0.47820612186E+02  0.00000000000E+00 0.  1.
         14    1    4    4    0    0 -0.31862606682E+01  0.13586732270E+03 -0.53925725503E+02  0.14621239861E+03  0.00000000000E+00 0. -1.
         -5    1    5    5    0  502  0.21029076717E+01 -0.11665825278E+03 -0.51827082239E+02  0.12775643473E+03  0.47000000000E+01 0.  1.
         13    1    6    6    0    0 -0.72213917097E+02 -0.10366452607E+03  0.35472562352E+02  0.13122304092E+03  0.00000000000E+00 0. -1.
        -14    1    6    6    0    0  0.14637790778E+02 -0.64019445463E+02  0.43413422288E+02  0.78724072246E+02  0.00000000000E+00 0.  1.
</event>
<event>
12    1  0.8462562E-002  0.1821568E+03  0.7818608E-02  0.1166286E+00
         21   -1    0    0  503  502  0.00000000000E+00  0.00000000000E+00  0.15581788846E+03  0.15581788846E+03  0.00000000000E+00 0. -1.
         21   -1    0    0  501  503 -0.00000000000E+00 -0.00000000000E+00 -0.21397901029E+03  0.21397901029E+03  0.00000000000E+00 0. -1.
          6    2    1    2  501    0 -0.20624522509E+01 -0.55162818457E+02 -0.45016035113E+01  0.17990105454E+03  0.17116347373E+03 0.  0.
         24    2    3    3    0    0  0.65322346132E+02 -0.40656612512E+02 -0.47940335954E+01  0.11081186161E+03  0.79600985358E+02 0.  0.
         -6    2    1    2    0  502  0.20624522509E+01  0.55162818457E+02 -0.53659518317E+02  0.18989584421E+03  0.17359117919E+03 0.  0.
        -24    2    5    5    0    0  0.22537348951E+02 -0.25680347454E+02  0.57508877590E+01  0.87394501681E+02  0.80232872758E+02 0.  0.
          5    1    3    3  501    0 -0.67384798383E+02 -0.14506205945E+02  0.29243008409E+00  0.69089192928E+02  0.47000000000E+01 0. -1.
        -13    1    4    4    0    0  0.31291466290E+02 -0.29445956484E+01 -0.38612748636E+02  0.49787256033E+02  0.00000000000E+00 0.  1.
         14    1    4    4    0    0  0.34030879842E+02 -0.37712016864E+02  0.33818715040E+02  0.61024605576E+02  0.00000000000E+00 0. -1.
         -5    1    5    5    0  502 -0.20474896700E+02  0.80843165911E+02 -0.59410406076E+02  0.10250134253E+03  0.47000000000E+01 0.  1.
         11    1    6    6    0    0  0.30172701159E+02  0.90928480868E+01 -0.25098501819E+02  0.40286555761E+02  0.00000000000E+00 0. -1.
        -12    1    6    6    0    0 -0.76353522081E+01 -0.34773195541E+02  0.30849389578E+02  0.47107945920E+02  0.00000000000E+00 0.  1.
</event>
<event>
12    1  0.8462562E-002  0.2025109E+03  0.7818608E-02  0.1147827E+00
         21   -1    0    0  501  502  0.00000000000E+00  0.00000000000E+00  0.81277673713E+03  0.81277673713E+03  0.00000000000E+00 0.  1.
         21   -1    0    0  502  503 -0.00000000000E+00 -0.00000000000E+00 -0.23603024927E+03  0.23603024927E+03  0.00000000000E+00 0. -1.
         -6    2    1    2    0  503 -0.46470196892E+02  0.93489583579E+02 -0.17703279471E+03  0.26829825986E+03  0.17246322623E+03 0.  0.
        -24    2    3    3    0    0 -0.64053839795E+02  0.12650444635E+03 -0.15429781018E+03  0.22427400309E+03  0.79904598730E+02 0.  0.
          6    2    1    2  501    0  0.46470196892E+02 -0.93489583579E+02  0.75377928257E+03  0.78050872654E+03  0.17352487987E+03 0.  0.
         24    2    5    5    0    0  0.66437673713E+02 -0.10905243110E+03  0.73015053880E+03  0.74556148222E+03  0.80222922154E+02 0.  0.
          5    1    5    5  501    0 -0.19967476822E+02  0.15562847520E+02  0.23628743769E+02  0.34947244321E+02  0.47000000000E+01 0. -1.
        -13    1    6    6    0    0  0.39218168929E+02 -0.16307769818E+02  0.37827614904E+03  0.38065319264E+03  0.00000000000E+00 0.  1.
         14    1    6    6    0    0  0.27219504784E+02 -0.92744661281E+02  0.35187438976E+03  0.36490828958E+03  0.00000000000E+00 0. -1.
         -5    1    3    3    0  503  0.17583642903E+02 -0.33014862774E+02 -0.22734984535E+02  0.44024256763E+02  0.47000000000E+01 0.  1.
         13    1    4    4    0    0 -0.12837808666E+02 -0.96213822635E+01 -0.24793927645E+02  0.29531663957E+02  0.00000000000E+00 0. -1.
        -14    1    4    4    0    0 -0.51216031129E+02  0.13612582862E+03 -0.12950388253E+03  0.19474233914E+03  0.00000000000E+00 0.  1.
</event>
<event>
12    1  0.8462562E-002  0.2220839E+03  0.7818608E-02  0.1132397E+00
         21   -1    0    0  501  502  0.00000000000E+00  0.00000000000E+00  0.48914928003E+03  0.48914928003E+03  0.00000000000E+00 0.  1.
         21   -1    0    0  502  503 -0.00000000000E+00 -0.00000000000E+00 -0.10944933722E+03  0.10944933722E+03  0.00000000000E+00 0.  1.
         -6    2    1    2    0  503  0.14039910519E+03 -0.50515420808E+01  0.10503685244E+03  0.24538331428E+03  0.17158905484E+03 0.  0.
        -24    2    3    3    0    0  0.84672871975E+02 -0.11873168249E+02  0.13724306397E+03  0.18048895618E+03  0.80188137049E+02 0.  0.
          6    2    1    2  501    0 -0.14039910519E+03  0.50515420808E+01  0.27466309037E+03  0.35321530297E+03  0.17199944834E+03 0.  0.
         24    2    5    5    0    0 -0.12766321441E+03  0.56778536536E+02  0.16163257012E+03  0.22817181703E+03  0.80097389715E+02 0.  0.
          5    1    5    5  501    0 -0.12735890783E+02 -0.51726994455E+02  0.11303052025E+03  0.12504348595E+03  0.47000000000E+01 0. -1.
        -13    1    6    6    0    0 -0.34617246584E+02  0.54807040058E+02  0.44782833718E+02  0.78788752985E+02  0.00000000000E+00 0.  1.
         14    1    6    6    0    0 -0.93045967825E+02  0.19714964773E+01  0.11684973640E+03  0.14938306404E+03  0.00000000000E+00 0. -1.
         -5    1    3    3    0  503  0.55726233217E+02  0.68216261687E+01 -0.32206211529E+02  0.64894358100E+02  0.47000000000E+01 0.  1.
         13    1    4    4    0    0  0.80292230907E+02  0.10634287026E+02  0.62490157313E+02  0.10229833902E+03  0.00000000000E+00 0. -1.
        -14    1    4    4    0    0  0.43806410680E+01 -0.22507455275E+02  0.74752906658E+02  0.78190617167E+02  0.00000000000E+00 0.  1.
</event>
<event>
12    1  0.8462562E-002  0.2248160E+03  0.7818608E-02  0.1130746E+00
         21   -1    0    0  503  502  0.00000000000E+00  0.00000000000E+00  0.14336235201E+04  0.14336235201E+04  0.00000000000E+00 0. -1.
         21   -1    0    0  501  503 -0.00000000000E+00 -0.00000000000E+00 -0.40839618228E+02  0.40839618228E+02  0.00000000000E+00 0. -1.
          6    2    1    2  501    0  0.71415434316E+02 -0.12283196394E+03  0.97439094543E+03  0.99949484543E+03  0.17136036849E+03 0.  0.
         24    2    3    3    0    0  0.57712979767E+01 -0.11532452234E+03  0.81433513305E+03  0.82627398239E+03  0.79081804058E+02 0.  0.
         -6    2    1    2    0  502 -0.71415434316E+02  0.12283196394E+03  0.41839295643E+03  0.47496829288E+03  0.17422502010E+03 0.  0.
        -24    2    5    5    0    0 -0.15766026231E+02  0.78117902438E+02  0.37575766361E+03  0.39168526874E+03  0.76632589163E+02 0.  0.
          5    1    3    3  501    0  0.65644136339E+02 -0.75074416057E+01  0.16005581238E+03  0.17322086304E+03  0.47000000000E+01 0. -1.
        -11    1    4    4    0    0 -0.30510908200E+02 -0.31236772862E+02  0.17263049587E+03  0.17806723338E+03  0.00000000000E+00 0.  1.
         12    1    4    4    0    0  0.36282206177E+02 -0.84087749474E+02  0.64170463717E+03  0.64820674901E+03  0.00000000000E+00 0. -1.
         -5    1    5    5    0  502 -0.55649408084E+02  0.44714061504E+02  0.42635292821E+02  0.83283024142E+02  0.47000000000E+01 0.  1.
         13    1    6    6    0    0 -0.76281491650E+01 -0.25813395223E+01  0.84254514252E+00  0.80970275861E+01  0.00000000000E+00 0. -1.
        -14    1    6    6    0    0 -0.81378770663E+01  0.80699241960E+02  0.37491511846E+03  0.38358824115E+03  0.00000000000E+00 0.  1.
</event>
<event>
12    1  0.8462562E-002  0.2450824E+03  0.7818608E-02  0.1116767E+00
         21   -1    0    0  503  502  0.00000000000E+00  0.00000000000E+00  0.11038040885E+04  0.11038040885E+04  0.00000000000E+00 0.  1.
         21   -1    0    0  501  503 -0.00000000000E+00 -0.00000000000E+00 -0.60509301024E+02  0.60509301024E+02  0.00000000000E+00 0. -1.
          6    2    1    2  501    0 -0.11334184232E+03  0.12955087728E+03  0.33239148997E+03  0.41297637902E+03  0.17445797202E+03 0.  0.
         24    2    3    3    0    0 -0.66325393812E+02  0.69969712311E+02  0.30913827397E+03  0.33345742717E+03  0.79577413869E+02 0.  0.
         -6    2    1    2    0  502  0.11334184232E+03 -0.12955087728E+03  0.71090329752E+03  0.75133701051E+03  0.17173817841E+03 0.  0.
        -24    2    5    5    0    0  0.11669132618E+03 -0.87358812419E+02  0.34514760938E+03  0.38311058183E+03  0.79990111480E+02 0.  0.
          5    1    3    3  501    0 -0.47016448504E+02  0.59581164965E+02  0.23253215997E+02  0.79518951846E+02  0.47000000000E+01 0. -1.
        -13    1    4    4    0    0 -0.50217419097E+02  0.79407898219E+02  0.18066825091E+03  0.20363796396E+03  0.00000000000E+00 0.  1.
         14    1    4    4    0    0 -0.16107974714E+02 -0.94381859083E+01  0.12847002306E+03  0.12981946321E+03  0.00000000000E+00 0. -1.
         -5    1    5    5    0  502 -0.33494838626E+01 -0.42192064858E+02  0.36575568814E+03  0.36822642869E+03  0.47000000000E+01 0.  1.
         11    1    6    6    0    0  0.45428934172E+02 -0.61507386044E+01  0.18011332381E+03  0.18585593630E+03  0.00000000000E+00 0. -1.
        -12    1    6    6    0    0  0.71262392006E+02 -0.81208073814E+02  0.16503428557E+03  0.19725464553E+03  0.00000000000E+00 0.  1.
</event>
<event>
12    1  0.8462562E-002  0.1874729E+03  0.7818608E-02  0.1161116E+00
         21   -1    0    0  503  502  0.00000000000E+00  0.00000000000E+00  0.16964605731E+04  0.16964605731E+04  0.00000000000E+00 0. -1.
         21   -1    0    0  501  503 -0.00000000000E+00 -0.00000000000E+00 -0.27291747411E+02  0.27291747411E+02  0.00000000000E+00 0. -1.
          6    2    1    2  501    0  0.60412127089E+02 -0.38565091934E+02  0.40354604168E+03  0.44431997802E+03  0.17156323526E+03 0.  0.
         24    2    3    3    0    0 -0.73074001247E+01 -0.16014852893E+02  0.88108638048E+02  0.12087401150E+03  0.80854937680E+02 0.  0.
         -6    2    1    2    0  502 -0.60412127089E+02  0.38565091934E+02  0.12656227840E+04  0.12794323425E+04  0.17323162588E+03 0.  0.
        -24    2    5    5    0    0  0.37889630879E+02  0.43900885076E+02  0.62775937267E+03  0.63399952040E+03  0.67161373265E+02 0.  0.
          5    1    3    3  501    0  0.67719527213E+02 -0.22550239041E+02  0.31543740363E+03  0.32344596652E+03  0.47000000000E+01 0. -1.
        -13    1    4    4    0    0  0.32362122892E+02  0.56017114697E+01  0.57776458734E+02  0.66459050199E+02  0.00000000000E+00 0.  1.
         14    1    4    4    0    0 -0.39669523017E+02 -0.21616564363E+02  0.30332179314E+02  0.54414961299E+02  0.00000000000E+00 0. -1.
         -5    1    5    5    0  502 -0.98301757968E+02 -0.53357931422E+01  0.63786341138E+03  0.64543282213E+03  0.47000000000E+01 0.  1.
         11    1    6    6    0    0  0.31912860164E+01  0.44557948840E+02  0.20463175705E+03  0.20945107091E+03  0.00000000000E+00 0. -1.
        -12    1    6    6    0    0  0.34698344863E+02 -0.65706376392E+00  0.42312761561E+03  0.42454844949E+03  0.00000000000E+00 0.  1.
</event>
<event>
12    1  0.8462562E-002  0.2040434E+03  0.7818608E-02  0.1146654E+00
         21   -1    0    0  503  502  0.00000000000E+00  0.00000000000E+00  0.10656312750E+03  0.10656312750E+03  0.00000000000E+00 0. -1.
         21   -1    0    0  501  503 -0.00000000000E+00 -0.00000000000E+00 -0.42945565060E+03  0.42945565060E+03  0.00000000000E+00 0.  1.
          6    2    1    2  501    0 -0.10830316836E+03 -0.16679715444E+01 -0.77767501210E+02  0.21708307111E+03  0.17130358173E+03 0.  0.
         24    2    3    3    0    0 -0.31688354510E+02  0.42635651197E+02  0.62378333947E+01  0.94969898480E+02  0.78475604408E+02 0.  0.
         -6    2    1    2    0  502  0.10830316836E+03  0.16679715444E+01 -0.24512502190E+03  0.31893570699E+03  0.17292006947E+03 0.  0.
        -24    2    5    5    0    0  0.68425042722E+02 -0.24826729908E+02 -0.55788632002E+02  0.12358322390E+03  0.82837725583E+02 0.  0.
          5    1    3    3  501    0 -0.76614813845E+02 -0.44303622742E+02 -0.84005334605E+02  0.12211317263E+03  0.47000000000E+01 0. -1.
        -11    1    4    4    0    0 -0.53767472422E+02  0.94544847122E+01  0.74342047135E+01  0.55096240993E+02  0.00000000000E+00 0.  1.
         12    1    4    4    0    0  0.22079117911E+02  0.33181166485E+02 -0.11963713187E+01  0.39873657487E+02  0.00000000000E+00 0. -1.
         -5    1    5    5    0  502  0.39878125634E+02  0.26494701453E+02 -0.18933638990E+03  0.19535248309E+03  0.47000000000E+01 0.  1.
         11    1    6    6    0    0  0.74637087000E+02  0.48529500626E+00 -0.16508021020E+02  0.76442429482E+02  0.00000000000E+00 0. -1.
        -12    1    6    6    0    0 -0.62120442783E+01 -0.25312024915E+02 -0.39280610982E+02  0.47140794420E+02  0.00000000000E+00 0.  1.
</event>
<event>
12    1  0.8462562E-002  0.1820876E+03  0.7818608E-02  0.1166008E+00
         21   -1    0    0  503  502  0.00000000000E+00  0.00000000000E+00  0.29188928389E+03  0.29188928389E+03  0.00000000000E+00 0.  1.
         21   -1    0    0  501  503 -0.00000000000E+00 -0.00000000000E+00 -0.23670055008E+03  0.23670055008E+03  0.00000000000E+00 0.  1.
          6    2    1    2  501    0 -0.73559281649E+01 -0.55138759587E+02 -0.16340254912E+03  0.24465547788E+03  0.17338257499E+03 0.  0.
         24    2    3    3    0    0  0.17612070880E+01 -0.10322726691E+03 -0.10621975773E+03  0.16923937666E+03  0.81855721846E+02 0.  0.
         -6    2    1    2    0  502  0.73559281649E+01  0.55138759587E+02  0.21859128293E+03  0.28393435609E+03  0.17245920418E+03 0.  0.
        -24    2    5    5    0    0  0.13001090546E+02  0.64683111120E+02  0.23877570837E+03  0.26042981323E+03  0.80354934459E+02 0.  0.
          5    1    3    3  501    0 -0.91171352529E+01  0.48088507319E+02 -0.57182791393E+02  0.75416101218E+02  0.47000000000E+01 0. -1.
        -13    1    4    4    0    0 -0.52554101074E+01 -0.97066866550E+02 -0.11884443929E+03  0.15353695538E+03  0.00000000000E+00 0.  1.
         14    1    4    4    0    0  0.70166171954E+01 -0.61604003557E+01  0.12624681567E+02  0.15702421281E+02  0.00000000000E+00 0. -1.
         -5    1    5    5    0  502 -0.56451623807E+01 -0.95443515331E+01 -0.20184425441E+02  0.23504542856E+02  0.47000000000E+01 0.  1.
         11    1    6    6    0    0 -0.64379784015E+01  0.68000605450E+01 -0.39342225635E+01  0.10157090946E+02  0.00000000000E+00 0. -1.
        -12    1    6    6    0    0  0.19439068947E+02  0.57883050575E+02  0.24270993094E+03  0.25027272229E+03  0.00000000000E+00 0.  1.
</event>
<event>
12    1  0.8462562E-002  0.1953590E+03  0.7818608E-02  0.1154409E+00
         21   -1    0    0  503  502  0.00000000000E+00  0.00000000000E+00  0.16469681766E+04  0.16469681766E+04  0.00000000000E+00 0. -1.
         21   -1    0    0  501  503 -0.00000000000E+00 -0.00000000000E+00 -0.26639199254E+03  0.26639199254E+03  0.00000000000E+00 0.  1.
          6    2    1    2  501    0  0.82306951824E+02  0.34185613693E+02 -0.22501816687E+03  0.29592442978E+03  0.17027918902E+03 0.  0.
         24    2    3    3    0    0 -0.96742696753E+01  0.24089019087E+02 -0.49198717558E+02  0.97185769501E+02  0.79691201835E+02 0.  0.
         -6    2    1    2    0  502 -0.82306951824E+02 -0.34185613693E+02  0.16055943509E+04  0.16174357394E+04  0.17384493300E+03 0.  0.
        -24    2    5    5    0    0  0.10975835971E+02 -0.45799756061E+01  0.10601041579E+04  0.10632157352E+04  0.80407890550E+02 0.  0.
          5    1    3    3  501    0  0.91981221499E+02  0.10096594606E+02 -0.17581944932E+03  0.19873866028E+03  0.47000000000E+01 0. -1.
        -13    1    4    4    0    0 -0.15192778196E+02  0.74721879237E+01 -0.68829346801E+02  0.70881119367E+02  0.00000000000E+00 0.  1.
         14    1    4    4    0    0  0.55185085208E+01  0.16616831163E+02  0.19630629243E+02  0.26304650134E+02  0.00000000000E+00 0. -1.
         -5    1    5    5    0  502 -0.93282787795E+02 -0.29605638086E+02  0.54549019304E+03  0.55422000415E+03  0.47000000000E+01 0.  1.
         11    1    6    6    0    0  0.23617123864E+02  0.33593448700E+02  0.54214609373E+03  0.54369906684E+03  0.00000000000E+00 0. -1.
        -12    1    6    6    0    0 -0.12641287893E+02 -0.38173424306E+02  0.51795806418E+03  0.51951666839E+03  0.00000000000E+00 0.  1.
</event>
<event>
12    1  0.8462562E-002  0.1945992E+03  0.7818608E-02  0.1154430E+00
         21   -1    0    0  503  502  0.00000000000E+00  0.00000000000E+00  0.90688089452E+02  0.90688089452E+02  0.00000000000E+00 0.  1.
         21   -1    0    0  501  503 -0.00000000000E+00 -0.00000000000E+00 -0.57601150175E+03  0.57601150175E+03  0.00000000000E+00 0. -1.
          6    2    1    2  501    0 -0.64263150224E+02  0.63067332348E+02 -0.41766889736E+03  0.46067533213E+03  0.17224172818E+03 0.  0.
         24    2    3    3    0    0 -0.38011888560E+02  0.49896413929E+02 -0.99673924394E+02  0.14129234157E+03  0.78064580872E+02 0.  0.
         -6    2    1    2    0  502  0.64263150224E+02 -0.63067332348E+02 -0.67654514944E+02  0.20602425907E+03  0.17251556755E+03 0.  0.
        -24    2    5    5    0    0 -0.26369719162E+02 -0.55323750861E+01 -0.45092393589E+02  0.96225681487E+02  0.80623126678E+02 0.  0.
          5    1    3    3  501    0 -0.26251261665E+02  0.13170918419E+02 -0.31799497296E+03  0.31938299056E+03  0.47000000000E+01 0. -1.
        -11    1    4    4    0    0 -0.10473449418E+01  0.56279156174E+02 -0.34286371824E+02  0.65908995167E+02  0.00000000000E+00 0.  1.
         12    1    4    4    0    0 -0.36964543618E+02 -0.63827422451E+01 -0.65387552571E+02  0.75383346401E+02  0.00000000000E+00 0. -1.
         -5    1    5    5    0  502  0.90632869386E+02 -0.57534957262E+02 -0.22562121356E+02  0.10979857759E+03  0.47000000000E+01 0.  1.
         11    1    6    6    0    0  0.25337787124E+02 -0.68972093471E+01 -0.34616977867E+02  0.43450087569E+02  0.00000000000E+00 0. -1.
        -12    1    6    6    0    0 -0.51707506286E+02  0.13648342610E+01 -0.10475415722E+02  0.52775593918E+02  0.00000000000E+00 0.  1.
</event>
<event>
12    1  0.8462562E-002  0.1953124E+03  0.7818608E-02  0.1154012E+00
         21   -1    0    0  501  502  0.00000000000E+00  0.00000000000E+00  0.14553149415E+03  0.14553149415E+03  0.00000000000E+00 0. -1.
         21   -1    0    0  502  503 -0.00000000000E+00 -0.00000000000E+00 -0.31383553179E+03  0.31383553179E+03  0.00000000000E+00 0. -1.
         -6    2    1    2    0  503  0.92004461391E+02  0.23137796982E+02 -0.17858634021E+03  0.26378417239E+03  0.16937777343E+03 0.  0.
        -24    2    3    3    0    0  0.37457687422E+02  0.75455373699E+02 -0.88567869440E+02  0.14614959217E+03  0.80117688609E+02 0.  0.
          6    2    1    2  501    0 -0.92004461391E+02 -0.23137796982E+02  0.10282302568E+02  0.19558285355E+03  0.17072418777E+03 0.  0.
         24    2    5    5    0    0 -0.12755603536E+03 -0.37505211629E+02  0.15196022202E+02  0.15663966857E+03  0.81411815010E+02 0.  0.
          5    1    5    5  501    0  0.35551573969E+02  0.14367414647E+02 -0.49137196335E+01  0.38943184974E+02  0.47000000000E+01 0. -1.
        -11    1    6    6    0    0 -0.40655786185E+02 -0.17261090607E+02 -0.33086759897E+02  0.55186700207E+02  0.00000000000E+00 0.  1.
         12    1    6    6    0    0 -0.86900249175E+02 -0.20244121023E+02  0.48282782099E+02  0.10145296836E+03  0.00000000000E+00 0. -1.
         -5    1    3    3    0  503  0.54546773969E+02 -0.52317576717E+02 -0.90018470765E+02  0.11763458022E+03  0.47000000000E+01 0.  1.
         13    1    4    4    0    0  0.59553992531E+01  0.99712797453E+01 -0.70257132407E+02  0.71210658290E+02  0.00000000000E+00 0. -1.
        -14    1    4    4    0    0  0.31502288169E+02  0.65484093954E+02 -0.18310737034E+02  0.74938933883E+02  0.00000000000E+00 0.  1.
</event>
<event>
12    1  0.8462562E-002  0.1863239E+03  0.7818608E-02  0.1161822E+00
         21   -1    0    0  503  502  0.00000000000E+00  0.00000000000E+00  0.22213809619E+03  0.22213809619E+03  0.00000000000E+00 0. -1.
         21   -1    0    0  501  503 -0.00000000000E+00 -0.00000000000E+00 -0.16852882774E+03  0.16852882774E+03  0.00000000000E+00 0. -1.
          6    2    1    2  501    0 -0.61075096559E+02  0.37385663259E+02 -0.25864373086E+02  0.18811054774E+03  0.17201382833E+03 0.  0.
         24    2    3    3    0    0 -0.54174407746E+02  0.22520360807E+02  0.52099312292E+02  0.10830438907E+03  0.74655671219E+02 0.  0.
         -6    2    1    2    0  502  0.61075096559E+02 -0.37385663259E+02  0.79473641541E+02  0.20255637619E+03  0.17200340287E+03 0.  0.
        -24    2    5    5    0    0  0.26639272809E+02  0.10218407766E+01  0.11286275303E+03  0.14092939274E+03  0.80077448159E+02 0.  0.
          5    1    3    3  501    0 -0.69006888139E+01  0.14865302452E+02 -0.77963685378E+02  0.79806158665E+02  0.47000000000E+01 0. -1.
        -13    1    4    4    0    0  0.12701903305E+02  0.24827402905E+02  0.12622623075E+02  0.30611581074E+02  0.00000000000E+00 0.  1.
         14    1    4    4    0    0 -0.66876311050E+02 -0.23070420971E+01  0.39476689217E+02  0.77692807997E+02  0.00000000000E+00 0. -1.
         -5    1    5    5    0  502  0.34435823750E+02 -0.38407504036E+02 -0.33389111485E+02  0.61626983452E+02  0.47000000000E+01 0.  1.
         11    1    6    6    0    0  0.39692715190E+02 -0.23365477956E+02  0.10065798602E+03  0.11069547122E+03  0.00000000000E+00 0. -1.
        -12    1    6    6    0    0 -0.13053442381E+02  0.24387318733E+02  0.12204767010E+02  0.30233921524E+02  0.00000000000E+00 0.  1.
</event>
<event>
12    1  0.8462562E-002  0.2355596E+03  0.7818608E-02  0.1122921E+00
         21   -1    0    0  501  502  0.00000000000E+00  0.00000000000E+00  0.41100348661E+03  0.41100348661E+03  0.00000000000E+00 0. -1.
         21   -1    0    0  502  503 -0.00000000000E+00 -0.00000000000E+00 -0.19022876318E+03  0.19022876318E+03  0.00000000000E+00 0. -1.
         -6    2    1    2    0  503 -0.14228664785E+03 -0.70083631202E+02 -0.52107039498E+02  0.24125391655E+03  0.17415827045E+03 0.  0.
        -24    2    3    3    0    0 -0.45008126817E+02 -0.33949082524E+02 -0.87740806548E+02  0.13143282742E+03  0.79986669557E+02 0.  0.
          6    2    1    2  501    0  0.14228664785E+03  0.70083631202E+02  0.27288176293E+03  0.35997833325E+03  0.17309748222E+03 0.  0.
         24    2    5    5    0    0  0.38955562184E+02  0.28916542658E+02  0.40700938134E+02  0.10248645406E+03  0.80580423409E+02 0.  0.
          5    1    5    5  501    0  0.10333108566E+03  0.41167088544E+02  0.23218082480E+03  0.25749187919E+03  0.47000000000E+01 0. -1.
        -13    1    6    6    0    0 -0.13446981502E+01  0.37873880591E+02  0.47373461077E+02  0.60666991507E+02  0.00000000000E+00 0.  1.
         14    1    6    6    0    0  0.40300260334E+02 -0.89573379331E+01 -0.66725229433E+01  0.41819462554E+02  0.00000000000E+00 0. -1.
         -5    1    3    3    0  503 -0.97278521031E+02 -0.36134548678E+02  0.35633767051E+02  0.10982108912E+03  0.47000000000E+01 0.  1.
         11    1    4    4    0    0 -0.23663878503E+01  0.18858462783E+02 -0.50620154314E+02  0.54070707715E+02  0.00000000000E+00 0. -1.
        -12    1    4    4    0    0 -0.42641738966E+02 -0.52807545307E+02 -0.37120652234E+02  0.77362119708E+02  0.00000000000E+00 0.  1.
</event>
<event>
12    1  0.8462562E-002  0.2060925E+03  0.7818608E-02  0.1144993E+00
         21   -1    0    0  501  502  0.00000000000E+00  0.00000000000E+00  0.82693273041E+02  0.82693273041E+02  0.00000000000E+00 0. -1.
         21   -1    0    0  502  503 -0.00000000000E+00 -0.00000000000E+00 -0.72205546906E+03  0.72205546906E+03  0.00000000000E+00 0. -1.
         -6    2    1    2    0  503 -0.82157615538E+02 -0.75272525214E+02 -0.53851669384E+03  0.57660590051E+03  0.17337332009E+03 0.  0.
        -24    2    3    3    0    0 -0.17618770539E+02 -0.88814343091E+01 -0.12014746738E+03  0.14808759388E+03  0.84292470565E+02 0.  0.
          6    2    1    2  501    0  0.82157615538E+02  0.75272525214E+02 -0.10084550219E+03  0.22814284160E+03  0.17164939271E+03 0.  0.
         24    2    5    5    0    0 -0.39738676664E+01  0.45782264106E+02 -0.45797115543E+00  0.92540281569E+02  0.80322391924E+02 0.  0.
          5    1    5    5  501    0  0.86131483205E+02  0.29490261108E+02 -0.10038753103E+03  0.13560256003E+03  0.47000000000E+01 0. -1.
        -13    1    6    6    0    0 -0.12483119434E+02  0.96505007281E+01 -0.37140361258E+02  0.40353028009E+02  0.00000000000E+00 0.  1.
         14    1    6    6    0    0  0.85092517675E+01  0.36131763378E+02  0.36682390103E+02  0.52187253560E+02  0.00000000000E+00 0. -1.
         -5    1    3    3    0  503 -0.64538844999E+02 -0.66391090905E+02 -0.41836922646E+03  0.42851830662E+03  0.47000000000E+01 0.  1.
         13    1    4    4    0    0 -0.21989697464E+02 -0.45046951261E+02 -0.70922142064E+02  0.86848862096E+02  0.00000000000E+00 0. -1.
        -14    1    4    4    0    0  0.43709269243E+01  0.36165516952E+02 -0.49225325313E+02  0.61238731786E+02  0.00000000000E+00 0.  1.
</event>
<event>
12    1  0.8462562E-002  0.1950964E+03  0.7818608E-02  0.1154035E+00
         21   -1    0    0  501  502  0.00000000000E+00  0.00000000000E+00  0.51253179862E+03  0.51253179862E+03  0.00000000000E+00 0. -1.
         21   -1    0    0  502  503 -0.00000000000E+00 -0.00000000000E+00 -0.13852719005E+03  0.13852719005E+03  0.00000000000E+00 0. -1.
         -6    2    1    2    0  503  0.66078667786E+01  0.90193569325E+02 -0.35102299982E+02  0.19781394721E+03  0.17239385834E+03 0.  0.
        -24    2    3    3    0    0 -0.34858568588E+02  0.10222581488E+03  0.75563883872E+01  0.13693625106E+03  0.83840329300E+02 0.  0.
          6    2    1    2  501    0 -0.66078667786E+01 -0.90193569325E+02  0.40910690855E+03  0.45324504146E+03  0.17287007009E+03 0.  0.
         24    2    5    5    0    0 -0.11201783879E+01  0.98146440489E+01  0.13978300570E+03  0.16586165274E+03  0.88731150842E+02 0.  0.
          5    1    5    5  501    0 -0.54876883907E+01 -0.10000821337E+03  0.26932390285E+03  0.28738338872E+03  0.47000000000E+01 0. -1.
        -11    1    6    6    0    0  0.93142387070E+01 -0.12001297086E+02 -0.72642773910E+01  0.16839118161E+02  0.00000000000E+00 0.  1.
         12    1    6    6    0    0 -0.10434417095E+02  0.21815941135E+02  0.14704728309E+03  0.14902253458E+03  0.00000000000E+00 0. -1.
         -5    1    3    3    0  503  0.41466435367E+02 -0.12032245550E+02 -0.42658688369E+02  0.60877696148E+02  0.47000000000E+01 0.  1.
         13    1    4    4    0    0 -0.56843323380E+02  0.36828941645E+02  0.41914313958E+01  0.67860905186E+02  0.00000000000E+00 0. -1.
        -14    1    4    4    0    0  0.21984754792E+02  0.65396873231E+02  0.33649569914E+01  0.69075345871E+02  0.00000000000E+00 0.  1.
</event>
<event>
12    1  0.8462562E-002  0.1783187E+03  0.7818608E-02  0.1169627E+00
         21   -1    0    0  503  502  0.00000000000E+00  0.00000000000E+00  0.79415902899E+03  0.79415902899E+03  0.00000000000E+00 0.  1.
         21   -1    0    0  501  503 -0.00000000000E+00 -0.00000000000E+00 -0.46698579939E+02  0.46698579939E+02  0.00000000000E+00 0.  1.
          6    2    1    2  501    0  0.39166313084E+00 -0.48158978639E+02  0.21362405446E+03  0.27826751341E+03  0.17169196764E+03 0.  0.
         24    2    3    3    0    0  0.28804640531E+02 -0.23803301069E+02  0.22235611268E+03  0.23955272095E+03  0.80913291917E+02 0.  0.
         -6    2    1    2    0  502 -0.39166313084E+00  0.48158978639E+02  0.53383639459E+03  0.56259009552E+03  0.17090020118E+03 0.  0.
        -24    2    5    5    0    0  0.53883948103E+02  0.49631049516E+01  0.21250889791E+03  0.23382699601E+03  0.81159842885E+02 0.  0.
          5    1    3    3  501    0 -0.28412977400E+02 -0.24355677569E+02 -0.87320582195E+01  0.38714792462E+02  0.47000000000E+01 0. -1.
        -11    1    4    4    0    0 -0.93236263583E+01 -0.19376137019E+02  0.99269538774E+01  0.23683519746E+02  0.00000000000E+00 0.  1.
         12    1    4    4    0    0  0.38128266889E+02 -0.44271640500E+01  0.21242915880E+03  0.21586920120E+03  0.00000000000E+00 0. -1.
         -5    1    5    5    0  502 -0.54275611234E+02  0.43195873687E+02  0.32132749668E+03  0.32876309951E+03  0.47000000000E+01 0.  1.
         13    1    6    6    0    0 -0.48687876302E+00 -0.30154559897E+02  0.94987852343E+02  0.99660557024E+02  0.00000000000E+00 0. -1.
        -14    1    6    6    0    0  0.54370826866E+02  0.35117664849E+02  0.11752104557E+03  0.13416643899E+03  0.00000000000E+00 0.  1.
</event>
<event>
12    1  0.8462562E-002  0.1746260E+03  0.7818608E-02  0.1173254E+00
         21   -1    0    0  503  502  0.00000000000E+00  0.00000000000E+00  0.26031180297E+02  0.26031180297E+02  0.00000000000E+00 0. -1.
         21   -1    0    0  501  503 -0.00000000000E+00 -0.00000000000E+00 -0.18210232320E+04  0.18210232320E+04  0.00000000000E+00 0. -1.
          6    2    1    2  501    0 -0.10070464047E+02 -0.19494102693E+02 -0.14497622588E+04  0.14601722098E+04  0.17265816252E+03 0.  0.
         24    2    3    3    0    0 -0.13116311026E+02 -0.73813437345E+02 -0.71042837737E+03  0.71882441999E+03  0.79872437359E+02 0.  0.
         -6    2    1    2    0  502  0.10070464047E+02  0.19494102693E+02 -0.34522979290E+03  0.38688220245E+03  0.17324201101E+03 0.  0.
        -24    2    5    5    0    0 -0.44798264294E+02  0.58201156892E+02 -0.19580989174E+03  0.22300050653E+03  0.77417395080E+02 0.  0.
          5    1    3    3  501    0  0.30458469792E+01  0.54319334652E+02 -0.73933388143E+03  0.74134778986E+03  0.47000000000E+01 0. -1.
        -11    1    4    4    0    0 -0.13704943691E+02 -0.34987789271E+02 -0.94841936676E+02  0.10201452755E+03  0.00000000000E+00 0.  1.
         12    1    4    4    0    0  0.58863266485E+00 -0.38825648074E+02 -0.61558644070E+03  0.61680989243E+03  0.00000000000E+00 0. -1.
         -5    1    5    5    0  502  0.54868728341E+02 -0.38707054199E+02 -0.14941990116E+03  0.16388169592E+03  0.47000000000E+01 0.  1.
         13    1    6    6    0    0 -0.19089333465E+01  0.53364712941E+02 -0.59155029681E+02  0.79691619072E+02  0.00000000000E+00 0. -1.
        -14    1    6    6    0    0 -0.42889330948E+02  0.48364439507E+01 -0.13665486206E+03  0.14330888746E+03  0.00000000000E+00 0.  1.
</event>
<event>
12    1  0.8462562E-002  0.2022119E+03  0.7818608E-02  0.1148240E+00
         21   -1    0    0  501  502  0.00000000000E+00  0.00000000000E+00  0.83836884878E+03  0.83836884878E+03  0.00000000000E+00 0. -1.
         21   -1    0    0  502  503 -0.00000000000E+00 -0.00000000000E+00 -0.25428145500E+03  0.25428145500E+03  0.00000000000E+00 0. -1.
         -6    2    1    2    0  503 -0.91169383927E+02  0.56421940025E+02 -0.19935252524E+03  0.28395615111E+03  0.17144787707E+03 0.  0.
        -24    2    3    3    0    0 -0.61357191721E+02  0.28869404386E+02 -0.21594156508E+03  0.23985178322E+03  0.79372355996E+02 0.  0.
          6    2    1    2  501    0  0.91169383927E+02 -0.56421940025E+02  0.78343991902E+03  0.80869415267E+03  0.16944861748E+03 0.  0.
         24    2    5    5    0    0  0.10136183076E+03 -0.26199187250E+02  0.34723248627E+03  0.37129694744E+03  0.79563845491E+02 0.  0.
          5    1    5    5  501    0 -0.10192446830E+02 -0.30222752775E+02  0.43620743275E+03  0.43739720523E+03  0.47000000000E+01 0. -1.
        -13    1    6    6    0    0  0.65270605752E+02  0.20177557893E+02  0.23336428071E+03  0.24315894663E+03  0.00000000000E+00 0.  1.
         14    1    6    6    0    0  0.36091225005E+02 -0.46376745143E+02  0.11386820556E+03  0.12813800081E+03  0.00000000000E+00 0. -1.
         -5    1    3    3    0  503 -0.29812192205E+02  0.27552535639E+02  0.16589039843E+02  0.44104367892E+02  0.47000000000E+01 0.  1.
         13    1    4    4    0    0 -0.80261364981E+02  0.18577670335E+02 -0.16122495339E+03  0.18105386529E+03  0.00000000000E+00 0. -1.
        -14    1    4    4    0    0  0.18904173260E+02  0.10291734051E+02 -0.54716611698E+02  0.58797917923E+02  0.00000000000E+00 0.  1.
</event>
<event>
12    1  0.8462562E-002  0.1800489E+03  0.7818608E-02  0.1169307E+00
         21   -1    0    0  503  502  0.00000000000E+00  0.00000000000E+00  0.13034734938E+03  0.13034734938E+03  0.00000000000E+00 0.  1.
         21   -1    0    0  501  503 -0.00000000000E+00 -0.00000000000E+00 -0.83992046036E+03  0.83992046036E+03  0.00000000000E+00 0.  1.
          6    2    1    2  501    0  0.19780682745E+02 -0.83768558697E+01 -0.76294018756E+03  0.78247633792E+03  0.17242401947E+03 0.  0.
         24    2    3    3    0    0  0.67226367530E+02 -0.33456854822E+02 -0.37863687307E+03  0.39441548332E+03  0.80987321253E+02 0.  0.
         -6    2    1    2    0  502 -0.19780682745E+02  0.83768558697E+01  0.53367076574E+02  0.18779147181E+03  0.17876281744E+03 0.  0.
        -24    2    5    5    0    0 -0.28733584880E+02 -0.17759563011E+02 -0.34817582116E+02  0.95260985612E+02  0.81983964145E+02 0.  0.
          5    1    3    3  501    0 -0.47445684785E+02  0.25079998953E+02 -0.38430331448E+03  0.38806085460E+03  0.47000000000E+01 0. -1.
        -13    1    4    4    0    0  0.59397685263E+02  0.37629896878E+01 -0.13114647677E+03  0.14401959407E+03  0.00000000000E+00 0.  1.
         14    1    4    4    0    0  0.78286822676E+01 -0.37219844510E+02 -0.24749039630E+03  0.25039588925E+03  0.00000000000E+00 0. -1.
         -5    1    5    5    0  502  0.89529021349E+01  0.26136418881E+02  0.88184658690E+02  0.92530486203E+02  0.47000000000E+01 0.  1.
         13    1    6    6    0    0  0.18236299155E+02 -0.30744237722E+02 -0.66293836367E+00  0.35752066336E+02  0.00000000000E+00 0. -1.
        -14    1    6    6    0    0 -0.46969884035E+02  0.12984674711E+02 -0.34154643752E+02  0.59508919277E+02  0.00000000000E+00 0.  1.
</event>
<event>
12    1  0.8462562E-002  0.1891518E+03  0.7818608E-02  0.1159624E+00
         21   -1    0    0  501  502  0.00000000000E+00  0.00000000000E+00  0.49292176468E+02  0.49292176468E+02  0.00000000000E+00 0.  1.
         21   -1    0    0  502  503 -0.00000000000E+00 -0.00000000000E+00 -0.14372676007E+04  0.14372676007E+04  0.00000000000E+00 0.  1.
         -6    2    1    2    0  503  0.16031755404E+02  0.72447951626E+02 -0.12209588281E+04  0.12355237180E+04  0.17399044481E+03 0.  0.
        -24    2    3    3    0    0  0.47553793202E+02  0.68537998480E+02 -0.47795968170E+03  0.49183107437E+03  0.80582429227E+02 0.  0.
          6    2    1    2  501    0 -0.16031755404E+02 -0.72447951626E+02 -0.16701659610E+03  0.25103605916E+03  0.17210123983E+03 0.  0.
         24    2    5    5    0    0 -0.46726649815E+02 -0.56834385739E+02 -0.35472134842E+02  0.11497726573E+03  0.80919540776E+02 0.  0.
          5    1    5    5  501    0  0.30694894412E+02 -0.15613565887E+02 -0.13154446126E+03  0.13605879343E+03  0.47000000000E+01 0. -1.
        -11    1    6    6    0    0  0.16079069860E+02 -0.40204472440E+02 -0.62926021287E+01  0.43755376051E+02  0.00000000000E+00 0.  1.
         12    1    6    6    0    0 -0.62805719675E+02 -0.16629913298E+02 -0.29179532713E+02  0.71221889680E+02  0.00000000000E+00 0. -1.
         -5    1    3    3    0  503 -0.31522037798E+02  0.39099531463E+01 -0.74299914644E+03  0.74369264364E+03  0.47000000000E+01 0.  1.
         11    1    4    4    0    0  0.11754788759E+02  0.39489067840E+01 -0.53811766486E+01  0.13517617604E+02  0.00000000000E+00 0. -1.
        -12    1    4    4    0    0  0.35799004442E+02  0.64589091696E+02 -0.47257850505E+03  0.47831345676E+03  0.00000000000E+00 0.  1.
</event>
<event>
12    1  0.8462562E-002  0.2109777E+03  0.7818608E-02  0.1140883E+00
         21   -1    0    0  501  502  0.00000000000E+00  0.00000000000E+00  0.90453356665E+03  0.90453356665E+03  0.00000000000E+00 0. -1.
         21   -1    0    0  502  503 -0.00000000000E+00 -0.00000000000E+00 -0.90215828906E+02  0.90215828906E+02  0.00000000000E+00 0. -1.
         -6    2    1    2    0  503 -0.70508030447E+02 -0.98223833957E+02  0.71164734296E+02  0.22222887413E+03  0.17234253443E+03 0.  0.
        -24    2    3    3    0    0 -0.33654254291E+02  0.17945796202E+01 -0.15002883295E+02  0.85083578211E+02  0.76670068646E+02 0.  0.
          6    2    1    2  501    0  0.70508030447E+02  0.98223833957E+02  0.74315300345E+03  0.77252052143E+03  0.17289379854E+03 0.  0.
         24    2    5    5    0    0 -0.24736578779E+02  0.20393179937E+02  0.25115654072E+03  0.26536003831E+03  0.79426455734E+02 0.  0.
          5    1    5    5  501    0  0.95244609227E+02  0.77830654021E+02  0.49199646273E+03  0.50716048312E+03  0.47000000000E+01 0. -1.
        -11    1    6    6    0    0 -0.14234924097E+02 -0.29907385003E+01  0.17625200581E+01  0.14652100797E+02  0.00000000000E+00 0.  1.
         12    1    6    6    0    0 -0.10501654683E+02  0.23383918437E+02  0.24939402066E+03  0.25070793751E+03  0.00000000000E+00 0. -1.
         -5    1    3    3    0  503 -0.36853776157E+02 -0.10001841358E+03  0.86167617591E+02  0.13714529592E+03  0.47000000000E+01 0.  1.
         11    1    4    4    0    0  0.20574537466E+02  0.16595689535E+02 -0.11305641326E+02  0.28749713544E+02  0.00000000000E+00 0. -1.
        -12    1    4    4    0    0 -0.54228791757E+02 -0.14801109915E+02 -0.36972419689E+01  0.56333864667E+02  0.00000000000E+00 0.  1.
</event>
<event>
12    1  0.8462562E-002  0.1868623E+03  0.7818608E-02  0.1161606E+00
         21   -1    0    0  501  502  0.00000000000E+00  0.00000000000E+00  0.39134499119E+02  0.39134499119E+02  0.00000000000E+00 0. -1.
         21   -1    0    0  502  503 -0.00000000000E+00 -0.00000000000E+00 -0.31508655867E+04  0.31508655867E+04  0.00000000000E+00 0. -1.
         -6    2    1    2    0  503 -0.67289375412E+02  0.29173702977E+02 -0.29065849372E+04  0.29125069413E+04  0.17053363603E+03 0.  0.
        -24    2    3    3    0    0 -0.88560050710E+02  0.49070570056E+01 -0.27489182086E+04  0.27515032176E+04  0.79697410257E+02 0.  0.
          6    2    1    2  501    0  0.67289375412E+02 -0.29173702977E+02 -0.20514615040E+03  0.27749314453E+03  0.17186779003E+03 0.  0.
         24    2    5    5    0    0  0.47764673368E+01  0.84949035460E+01 -0.28168431513E+02  0.85999043902E+02  0.80668438634E+02 0.  0.
          5    1    5    5  501    0  0.62512908075E+02 -0.37668606523E+02 -0.17697771889E+03  0.19149410063E+03  0.47000000000E+01 0. -1.
        -13    1    6    6    0    0  0.47836316046E+01  0.26602915392E+02 -0.50481738461E+02  0.57262589505E+02  0.00000000000E+00 0.  1.
         14    1    6    6    0    0 -0.71642678165E-02 -0.18108011846E+02  0.22313306948E+02  0.28736454397E+02  0.00000000000E+00 0. -1.
         -5    1    3    3    0  503  0.21270675298E+02  0.24266645971E+02 -0.15766672861E+03  0.16100372370E+03  0.47000000000E+01 0.  1.
         11    1    4    4    0    0  0.91218058788E+01  0.17530516341E+02 -0.34184321696E+03  0.34241394733E+03  0.00000000000E+00 0. -1.
        -12    1    4    4    0    0 -0.97681856589E+02 -0.12623459335E+02 -0.24070749916E+04  0.24090892702E+04  0.00000000000E+00 0.  1.
</event>
<event>
12    1  0.8462562E-002  0.2317385E+03  0.7818608E-02  0.1125431E+00
         21   -1    0    0  503  502  0.00000000000E+00  0.00000000000E+00  0.21503595451E+03  0.21503595451E+03  0.00000000000E+00 0.  1.
         21   -1    0    0  501  503 -0.00000000000E+00 -0.00000000000E+00 -0.25034956635E+03  0.25034956635E+03  0.00000000000E+00 0. -1.
          6    2    1    2  501    0 -0.11357566939E+03  0.10533431748E+03 -0.29668779863E+02  0.23357825904E+03  0.17228991694E+03 0.  0.
         24    2    3    3    0    0 -0.43400699264E+02 -0.14965746839E+00  0.27939388584E+02  0.94322428009E+02  0.78945980880E+02 0.  0.
         -6    2    1    2    0  502  0.11357566939E+03 -0.10533431748E+03 -0.56448319836E+01  0.23180726182E+03  0.17236006321E+03 0.  0.
        -24    2    5    5    0    0  0.42415490776E+02 -0.11749868261E+03  0.33228626060E+02  0.14967944352E+03  0.75463765791E+02 0.  0.
          5    1    3    3  501    0 -0.70174970126E+02  0.10548397495E+03 -0.57608168447E+02  0.13925583103E+03  0.47000000000E+01 0. -1.
        -11    1    4    4    0    0 -0.14598239043E+02 -0.21339378500E+02 -0.21279600318E+02  0.33485803672E+02  0.00000000000E+00 0.  1.
         12    1    4    4    0    0 -0.28802460221E+02  0.21189721031E+02  0.49218988902E+02  0.60836624337E+02  0.00000000000E+00 0. -1.
         -5    1    5    5    0  502  0.71160178615E+02  0.12164365132E+02 -0.38873458044E+02  0.82127818307E+02  0.47000000000E+01 0.  1.
         11    1    6    6    0    0  0.49300945132E+02 -0.53179358067E+02 -0.80226545250E+01  0.72958826066E+02  0.00000000000E+00 0. -1.
        -12    1    6    6    0    0 -0.68854543562E+01 -0.64319324547E+02  0.41251280585E+02  0.76720617450E+02  0.00000000000E+00 0.  1.
</event>
<event>
12    1  0.8462562E-002  0.1858309E+03  0.7818608E-02  0.1162377E+00
         21   -1    0    0  503  502  0.00000000000E+00  0.00000000000E+00  0.39569042929E+03  0.39569042929E+03  0.00000000000E+00 0. -1.
         21   -1    0    0  501  503 -0.00000000000E+00 -0.00000000000E+00 -0.92445133037E+03  0.92445133037E+03  0.00000000000E+00 0. -1.
          6    2    1    2  501    0  0.44345671087E+02 -0.54059476629E+02 -0.89262790905E+03  0.91176626472E+03  0.17217482950E+03 0.  0.
         24    2    3    3    0    0 -0.14344637489E+02  0.83500464141E+01 -0.25125843056E+03  0.26468327250E+03  0.81553319449E+02 0.  0.
         -6    2    1    2    0  502 -0.44345671087E+02  0.54059476629E+02  0.36386700797E+03  0.40837549494E+03  0.17170433838E+03 0.  0.
        -24    2    5    5    0    0 -0.62389763570E+02  0.11280928743E+02  0.34108484826E+03  0.35644563615E+03  0.81822221105E+02 0.  0.
          5    1    3    3  501    0  0.58690308576E+02 -0.62409523043E+02 -0.64136947849E+03  0.64708299222E+03  0.47000000000E+01 0. -1.
        -13    1    4    4    0    0  0.20608970461E+02 -0.18475951831E+02 -0.38538023922E+02  0.47447547327E+02  0.00000000000E+00 0.  1.
         14    1    4    4    0    0 -0.34953607950E+02  0.26825998245E+02 -0.21272040664E+03  0.21723572518E+03  0.00000000000E+00 0. -1.
         -5    1    5    5    0  502  0.18044092483E+02  0.42778547885E+02  0.22782159713E+02  0.51929858790E+02  0.47000000000E+01 0.  1.
         11    1    6    6    0    0  0.51343268921E+01 -0.23269216876E+02  0.12954650677E+03  0.13171983595E+03  0.00000000000E+00 0. -1.
        -12    1    6    6    0    0 -0.67524090462E+02  0.34550145619E+02  0.21153834149E+03  0.22472580020E+03  0.00000000000E+00 0.  1.
</event>
<event>
12    1  0.8462562E-002  0.1952453E+03  0.7818608E-02  0.1154266E+00
         21   -1    0    0  501  502  0.00000000000E+00  0.00000000000E+00  0.46051911930E+02  0.46051911930E+02  0.00000000000E+00 0. -1.
         21   -1    0    0  502  503 -0.00000000000E+00 -0.00000000000E+00 -0.15448306314E+04  0.15448306314E+04  0.00000000000E+00 0.  1.
         -6    2    1    2    0  503 -0.57862370129E+02 -0.70823256086E+02 -0.12924925373E+04  0.13068496085E+04  0.17016154960E+03 0.  0.
        -24    2    3    3    0    0 -0.54887406721E+02  0.67456817831E+01 -0.44357589581E+03  0.45437829250E+03  0.81498010458E+02 0.  0.
          6    2    1    2  501    0  0.57862370129E+02  0.70823256086E+02 -0.20628618218E+03  0.28403293477E+03  0.17250139592E+03 0.  0.
         24    2    5    5    0    0  0.91255917952E+02  0.56446653144E+01 -0.10065606764E+03  0.15541260656E+03  0.75245794017E+02 0.  0.
          5    1    5    5  501    0 -0.33393547823E+02  0.65178590771E+02 -0.10563011454E+03  0.12862032821E+03  0.47000000000E+01 0. -1.
        -11    1    6    6    0    0  0.33592757576E+02  0.76848315057E+01 -0.90483474698E+02  0.96823495032E+02  0.00000000000E+00 0.  1.
         12    1    6    6    0    0  0.57663160376E+02 -0.20401661913E+01 -0.10172592945E+02  0.58589111530E+02  0.00000000000E+00 0. -1.
         -5    1    3    3    0  503 -0.29749634080E+01 -0.77568937869E+02 -0.84891664144E+03  0.85247131603E+03  0.47000000000E+01 0.  1.
         13    1    4    4    0    0 -0.17125994979E+01 -0.30748610446E+02 -0.19555452294E+03  0.19796459654E+03  0.00000000000E+00 0. -1.
        -14    1    4    4    0    0 -0.53174807223E+02  0.37494292229E+02 -0.24802137287E+03  0.25641369596E+03  0.00000000000E+00 0.  1.
</event>
<event>
12    1  0.8462562E-002  0.2834718E+03  0.7818608E-02  0.1094391E+00
         21   -1    0    0  501  502  0.00000000000E+00  0.00000000000E+00  0.71389364775E+03  0.71389364775E+03  0.00000000000E+00 0. -1.
         21   -1    0    0  502  503 -0.00000000000E+00 -0.00000000000E+00 -0.11629397192E+03  0.11629397192E+03  0.00000000000E+00 0. -1.
         -6    2    1    2    0  503 -0.21461572840E+03  0.55117381978E+02  0.20687008642E+03  0.34746005858E+03  0.16980996137E+03 0.  0.
        -24    2    3    3    0    0 -0.17004278472E+03  0.24662323956E+02  0.73122105944E+02  0.20315181159E+03  0.80006482965E+02 0.  0.
          6    2    1    2  501    0  0.21461572840E+03 -0.55117381978E+02  0.39072958941E+03  0.48272756109E+03  0.17680059255E+03 0.  0.
         24    2    5    5    0    0  0.31671191577E+02 -0.23407988355E+02  0.18436420555E+03  0.20508939575E+03  0.80749623330E+02 0.  0.
          5    1    5    5  501    0  0.18294453682E+03 -0.31709393623E+02  0.20636538386E+03  0.27763816534E+03  0.47000000000E+01 0. -1.
        -11    1    6    6    0    0 -0.34615641537E+01 -0.94909775745E+01  0.15957703884E+03  0.15989650530E+03  0.00000000000E+00 0.  1.
         12    1    6    6    0    0  0.35132755730E+02 -0.13917010780E+02  0.24787166711E+02  0.45192890456E+02  0.00000000000E+00 0. -1.
         -5    1    3    3    0  503 -0.44572943678E+02  0.30455058022E+02  0.13374798048E+03  0.14430824699E+03  0.47000000000E+01 0.  1.
         11    1    4    4    0    0 -0.30553615590E+02  0.26381442831E+02  0.45712566410E+02  0.60984774159E+02  0.00000000000E+00 0. -1.
        -12    1    4    4    0    0 -0.13948916913E+03 -0.17191188751E+01  0.27409539534E+02  0.14216703743E+03  0.00000000000E+00 0.  1.
</event>
<event>
12    1  0.8462562E-002  0.1828482E+03  0.7818608E-02  0.1165589E+00
         21   -1    0    0  503  502  0.00000000000E+00  0.00000000000E+00  0.10611518609E+03  0.10611518609E+03  0.00000000000E+00 0.  1.
         21   -1    0    0  501  503 -0.00000000000E+00 -0.00000000000E+00 -0.66197466637E+03  0.66197466637E+03  0.00000000000E+00 0.  1.
          6    2    1    2  501    0  0.10724780380E+01 -0.60886778586E+02 -0.55664738622E+03  0.58523997175E+03  0.17012102143E+03 0.  0.
         24    2    3    3    0    0 -0.44493612502E+02 -0.48717210490E+01 -0.42753481493E+03  0.43723287279E+03  0.79894629673E+02 0.  0.
         -6    2    1    2    0  502 -0.10724780380E+01  0.60886778586E+02  0.78790594136E+00  0.18284988071E+03  0.17240970989E+03 0.  0.
        -24    2    5    5    0    0  0.42633179300E+02  0.52613896226E+02 -0.58368669037E+02  0.10868644343E+03  0.61806402639E+02 0.  0.
          5    1    3    3  501    0  0.45566090540E+02 -0.56015057537E+02 -0.12911257128E+03  0.14800709896E+03  0.47000000000E+01 0. -1.
        -13    1    4    4    0    0 -0.42342789367E+02 -0.16506782358E+02 -0.42151407138E+03  0.42395695306E+03  0.00000000000E+00 0.  1.
         14    1    4    4    0    0 -0.21508231342E+01  0.11635061309E+02 -0.60207435518E+01  0.13275919732E+02  0.00000000000E+00 0. -1.
         -5    1    5    5    0  502 -0.43705657338E+02  0.82728823599E+01  0.59156574978E+02  0.74163437279E+02  0.47000000000E+01 0.  1.
         11    1    6    6    0    0  0.58621322081E+01 -0.12703503572E+02 -0.20198680755E+02  0.24570923899E+02  0.00000000000E+00 0. -1.
        -12    1    6    6    0    0  0.36771047092E+02  0.65317399798E+02 -0.38169988282E+02  0.84115519531E+02  0.00000000000E+00 0.  1.
</event>
<event>
12    1  0.8462562E-002  0.2046926E+03  0.7818608E-02  0.1146099E+00
         21   -1    0    0  503  502  0.00000000000E+00  0.00000000000E+00  0.45055032013E+03  0.45055032013E+03  0.00000000000E+00 0. -1.
         21   -1    0    0  501  503 -0.00000000000E+00 -0.00000000000E+00 -0.92751363649E+02  0.92751363649E+02  0.00000000000E+00 0. -1.
          6    2    1    2  501    0 -0.96554745427E+02  0.44585419665E+02  0.16214185794E+03  0.26013962620E+03  0.17341269997E+03 0.  0.
         24    2    3    3    0    0 -0.99562891790E+02  0.45091631537E+02  0.18907416063E+03  0.23263064361E+03  0.80137091743E+02 0.  0.
         -6    2    1    2    0  502  0.96554745427E+02 -0.44585419665E+02  0.19565709854E+03  0.28316205758E+03  0.17489531764E+03 0.  0.
        -24    2    5    5    0    0 -0.10242404479E+01 -0.66384857354E+02  0.88053663839E+02  0.13620130388E+03  0.79933404215E+02 0.  0.
          5    1    3    3  501    0  0.30081463625E+01 -0.50621187196E+00 -0.26932302688E+02  0.27508982589E+02  0.47000000000E+01 0. -1.
        -13    1    4    4    0    0 -0.25055649642E+02 -0.20550942004E+02  0.73053037004E+02  0.79917914211E+02  0.00000000000E+00 0.  1.
         14    1    4    4    0    0 -0.74507242148E+02  0.65642573542E+02  0.11602112362E+03  0.15271272940E+03  0.00000000000E+00 0. -1.
         -5    1    5    5    0  502  0.97578985875E+02  0.21799437688E+02  0.10760343471E+03  0.14696075370E+03  0.47000000000E+01 0.  1.
         11    1    6    6    0    0  0.34145720514E+02 -0.48854633997E+02  0.31730537904E+02  0.67524310645E+02  0.00000000000E+00 0. -1.
        -12    1    6    6    0    0 -0.35169960962E+02 -0.17530223357E+02  0.56323125935E+02  0.68676993237E+02  0.00000000000E+00 0.  1.
</event>
<event>
12    1  0.8462562E-002  0.1779370E+03  0.7818608E-02  0.1170740E+00
         21   -1    0    0  501  502  0.00000000000E+00  0.00000000000E+00  0.93398530173E+03  0.93398530173E+03  0.00000000000E+00 0.  1.
         21   -1    0    0  502  503 -0.00000000000E+00 -0.00000000000E+00 -0.33380657088E+02  0.33380657088E+02  0.00000000000E+00 0.  1.
         -6    2    1    2    0  503  0.28453560670E+01  0.29797949341E+02  0.48176869067E+03  0.51229987484E+03  0.17162190015E+03 0.  0.
        -24    2    3    3    0    0 -0.38246416241E+01 -0.49401412147E+02  0.28530559992E+03  0.30031670627E+03  0.79597181563E+02 0.  0.
          6    2    1    2  501    0 -0.28453560670E+01 -0.29797949341E+02  0.41883595396E+03  0.45506608397E+03  0.17540117050E+03 0.  0.
         24    2    5    5    0    0 -0.49904841073E+02 -0.18577120868E+02  0.38338264700E+03  0.39490356162E+03  0.78300487748E+02 0.  0.
          5    1    5    5  501    0  0.47059485006E+02 -0.11220828473E+02  0.35453306967E+02  0.60162522350E+02  0.47000000000E+01 0. -1.
        -11    1    6    6    0    0 -0.43130283756E+02  0.16716813068E+02  0.11236708786E+03  0.12151557781E+03  0.00000000000E+00 0.  1.
         12    1    6    6    0    0 -0.67745573164E+01 -0.35293933935E+02  0.27101555914E+03  0.27338798381E+03  0.00000000000E+00 0. -1.
         -5    1    3    3    0  503  0.66699976911E+01  0.79199361488E+02  0.19646309075E+03  0.21198316857E+03  0.47000000000E+01 0.  1.
         11    1    4    4    0    0 -0.33084995773E+02 -0.20673416355E+02  0.21830737557E+03  0.22176590657E+03  0.00000000000E+00 0. -1.
        -12    1    4    4    0    0  0.29260354149E+02 -0.28727995793E+02  0.66998224354E+02  0.78550799702E+02  0.00000000000E+00 0.  1.
</event>
<event>
12    1  0.8462562E-002  0.2123959E+03  0.7818608E-02  0.1139800E+00
         21   -1    0    0  501  502  0.00000000000E+00  0.00000000000E+00  0.79626118289E+02  0.79626118289E+02  0.00000000000E+00 0.  1.
         21   -1    0    0  502  503 -0.00000000000E+00 -0.00000000000E+00 -0.60047971643E+03  0.60047971643E+03  0.00000000000E+00 0. -1.
         -6    2    1    2    0  503  0.12244208625E+03 -0.26163294680E+02 -0.34280626492E+03  0.40295450284E+03  0.17082041333E+03 0.  0.
        -24    2    3    3    0    0  0.46884980142E+02  0.49862371739E+02 -0.94745401990E+02  0.13268600678E+03  0.62804679124E+02 0.  0.
          6    2    1    2  501    0 -0.12244208625E+03  0.26163294680E+02 -0.17804733322E+03  0.27715133188E+03  0.17156755353E+03 0.  0.
         24    2    5    5    0    0 -0.14231076214E+03  0.45008065576E+02 -0.10423665175E+03  0.19828437828E+03  0.78570580470E+02 0.  0.
          5    1    5    5  501    0  0.19868675888E+02 -0.18844770896E+02 -0.73810681467E+02  0.78866953601E+02  0.47000000000E+01 0. -1.
        -13    1    6    6    0    0 -0.69122108661E+02  0.46286989370E+02 -0.17898941762E+02  0.85092440362E+02  0.00000000000E+00 0.  1.
         14    1    6    6    0    0 -0.73188653478E+02 -0.12789237938E+01 -0.86337709990E+02  0.11319193792E+03  0.00000000000E+00 0. -1.
         -5    1    3    3    0  503  0.75557106109E+02 -0.76025666419E+02 -0.24806086293E+03  0.27026849605E+03  0.47000000000E+01 0.  1.
         11    1    4    4    0    0  0.21161398366E+02  0.12497117062E+02 -0.81944968896E+02  0.85550924268E+02  0.00000000000E+00 0. -1.
        -12    1    4    4    0    0  0.25723581776E+02  0.37365254677E+02 -0.12800433094E+02  0.47135082517E+02  0.00000000000E+00 0.  1.
</event>
<event>
12    1  0.8462562E-002  0.2006475E+03  0.7818608E-02  0.1149392E+00
         21   -1    0    0  503  502  0.00000000000E+00  0.00000000000E+00  0.70038431437E+02  0.70038431437E+02  0.00000000000E+00 0.  1.
         21   -1    0    0  501  503 -0.00000000000E+00 -0.00000000000E+00 -0.60475697609E+03  0.60475697609E+03  0.00000000000E+00 0. -1.
          6    2    1    2  501    0 -0.66329561137E+02 -0.78411150452E+02 -0.34632268741E+03  0.40024845475E+03  0.17237024837E+03 0.  0.
         24    2    3    3    0    0 -0.10267765074E+03 -0.77964970229E+02 -0.32367507649E+03  0.35716264531E+03  0.78602566904E+02 0.  0.
         -6    2    1    2    0  502  0.66329561137E+02  0.78411150452E+02 -0.18839585725E+03  0.27454695278E+03  0.17127495747E+03 0.  0.
        -24    2    5    5    0    0 -0.90105973023E+01  0.67877539474E+02 -0.16382723217E+03  0.19446696919E+03  0.79306297825E+02 0.  0.
          5    1    3    3  501    0  0.36348089603E+02 -0.44618022237E+00 -0.22647610924E+02  0.43085809441E+02  0.47000000000E+01 0. -1.
        -11    1    4    4    0    0 -0.40385120997E+01 -0.23225787588E+02 -0.13727216180E+03  0.13928170445E+03  0.00000000000E+00 0.  1.
         12    1    4    4    0    0 -0.98639138641E+02 -0.54739182642E+02 -0.18640291469E+03  0.21788094086E+03  0.00000000000E+00 0. -1.
         -5    1    5    5    0  502  0.75340158440E+02  0.10533610977E+02 -0.24568625076E+02  0.80079983592E+02  0.47000000000E+01 0.  1.
         13    1    6    6    0    0 -0.11784909995E+02  0.53470725304E+02 -0.35392281384E+02  0.65196749533E+02  0.00000000000E+00 0. -1.
        -14    1    6    6    0    0  0.27743126926E+01  0.14406814171E+02 -0.12843495079E+03  0.12927021965E+03  0.00000000000E+00 0.  1.
</event>
<event>
12    1  0.8462562E-002  0.1973049E+03  0.7818608E-02  0.1152092E+00
         21   -1    0    0  503  502  0.00000000000E+00  0.00000000000E+00  0.31530899080E+03  0.31530899080E+03  0.00000000000E+00 0.  1.
         21   -1    0    0  501  503 -0.00000000000E+00 -0.00000000000E+00 -0.24906444488E+03  0.24906444488E+03  0.00000000000E+00 0.  1.
          6    2    1    2  501    0  0.13923608591E+02  0.97025273024E+02 -0.16739297563E+03  0.25874625807E+03  0.17123506444E+03 0.  0.
         24    2    3    3    0    0  0.71201956423E+02  0.37202212170E+02 -0.11480337611E+03  0.16052526379E+03  0.78325104277E+02 0.  0.
         -6    2    1    2    0  502 -0.13923608591E+02 -0.97025273024E+02  0.23363752155E+03  0.30562717761E+03  0.17092018528E+03 0.  0.
        -24    2    5    5    0    0 -0.17056815250E+02 -0.44715289833E+02  0.23587906285E+03  0.25296537140E+03  0.77859840385E+02 0.  0.
          5    1    3    3  501    0 -0.57278347831E+02  0.59823060854E+02 -0.52589599517E+02  0.98220994281E+02  0.47000000000E+01 0. -1.
        -13    1    4    4    0    0  0.50341797524E+02 -0.65363367126E+01 -0.95906019203E+02  0.10851260201E+03  0.00000000000E+00 0.  1.
         14    1    4    4    0    0  0.20860158898E+02  0.43738548882E+02 -0.18897356912E+02  0.52012661784E+02  0.00000000000E+00 0. -1.
         -5    1    5    5    0  502  0.31332066588E+01 -0.52309983190E+02 -0.22415413085E+01  0.52661806205E+02  0.47000000000E+01 0.  1.
         11    1    6    6    0    0 -0.31629142531E+02 -0.98903007916E+01  0.33597215601E+02  0.47191033080E+02  0.00000000000E+00 0. -1.
        -12    1    6    6    0    0  0.14572327281E+02 -0.34824989042E+02  0.20228184725E+03  0.20577433832E+03  0.00000000000E+00 0.  1.
</event>
<event>
12    1  0.8462562E-002  0.2083390E+03  0.7818608E-02  0.1142986E+00
         21   -1    0    0  503  502  0.00000000000E+00  0.00000000000E+00  0.23819719566E+03  0.23819719566E+03  0.00000000000E+00 0. -1.
         21   -1    0    0  501  503 -0.00000000000E+00 -0.00000000000E+00 -0.20139348212E+03  0.20139348212E+03  0.00000000000E+00 0. -1.
          6    2    1    2  501    0 -0.11512189334E+03  0.22900375840E+02 -0.50184710173E+02  0.21382059235E+03  0.17153210498E+03 0.  0.
         24    2    3    3    0    0 -0.12666998558E+03  0.39333144832E+02 -0.82184983530E+02  0.17574826872E+03  0.80874599925E+02 0.  0.
         -6    2    1    2    0  502  0.11512189334E+03 -0.22900375840E+02  0.86988423715E+02  0.22577008544E+03  0.17212689528E+03 0.  0.
        -24    2    5    5    0    0 -0.11724678847E+02  0.31392101966E+01  0.48198267287E+02  0.90511521375E+02  0.75643504661E+02 0.  0.
          5    1    3    3  501    0  0.11548092241E+02 -0.16432768992E+02  0.32000273357E+02  0.38072323623E+02  0.47000000000E+01 0. -1.
        -13    1    4    4    0    0 -0.12217841081E+03  0.21852964018E+02 -0.92651279177E+02  0.15488504007E+03  0.00000000000E+00 0.  1.
         14    1    4    4    0    0 -0.44915747639E+01  0.17480180814E+02  0.10466295647E+02  0.20863228651E+02  0.00000000000E+00 0. -1.
         -5    1    5    5    0  502  0.12684657218E+03 -0.26039586037E+02  0.38790156428E+02  0.13525856406E+03  0.47000000000E+01 0.  1.
         11    1    6    6    0    0 -0.28995513076E+02 -0.20125845810E+02  0.50313818756E+02  0.61459497280E+02  0.00000000000E+00 0. -1.
        -12    1    6    6    0    0  0.17270834229E+02  0.23265056007E+02 -0.21155514694E+01  0.29052024095E+02  0.00000000000E+00 0.  1.
</event>
<event>
12    1  0.8462562E-002  0.1801842E+03  0.7818608E-02  0.1169129E+00
         21   -1    0    0  503  502  0.00000000000E+00  0.00000000000E+00  0.96308143643E+02  0.96308143643E+02  0.00000000000E+00 0.  1.
         21   -1    0    0  501  503 -0.00000000000E+00 -0.00000000000E+00 -0.36489363611E+03  0.36489363611E+03  0.00000000000E+00 0.  1.
          6    2    1    2  501    0  0.40742449017E+02  0.41510632314E+02 -0.60864097959E+02  0.19018614113E+03  0.17053811923E+03 0.  0.
         24    2    3    3    0    0  0.60938216060E+02 -0.29758310303E+02 -0.25268216250E+02  0.10786792940E+03  0.79987400453E+02 0.  0.
         -6    2    1    2    0  502 -0.40742449017E+02 -0.41510632314E+02 -0.20772139451E+03  0.27101563862E+03  0.16406772655E+03 0.  0.
        -24    2    5    5    0    0 -0.38416984460E+02 -0.40401459271E+02 -0.42350490258E+02  0.10555789773E+03  0.78998500879E+02 0.  0.
          5    1    3    3  501    0 -0.20195767043E+02  0.71268942617E+02 -0.35595881709E+02  0.82318211732E+02  0.47000000000E+01 0. -1.
        -13    1    4    4    0    0  0.57488406758E+01  0.19107673221E+02  0.13972957877E+02  0.24359718735E+02  0.00000000000E+00 0.  1.
         14    1    4    4    0    0  0.55189375384E+02 -0.48865983523E+02 -0.39241174127E+02  0.83508210662E+02  0.00000000000E+00 0. -1.
         -5    1    5    5    0  502 -0.23254645569E+01 -0.11091730426E+01 -0.16537090425E+03  0.16545774090E+03  0.47000000000E+01 0.  1.
         13    1    6    6    0    0 -0.56891940385E+02 -0.48796726793E+02 -0.40464710562E+02  0.85177498363E+02  0.00000000000E+00 0. -1.
        -14    1    6    6    0    0  0.18474955925E+02  0.83952675217E+01 -0.18857796962E+01  0.20380399364E+02  0.00000000000E+00 0.  1.
</event>
<event>
12    1  0.8462562E-002  0.1996486E+03  0.7818608E-02  0.1150187E+00
         21   -1    0    0  501  502  0.00000000000E+00  0.00000000000E+00  0.22631710342E+03  0.22631710342E+03  0.00000000000E+00 0.  1.
         21   -1    0    0  502  503 -0.00000000000E+00 -0.00000000000E+00 -0.31084376961E+03  0.31084376961E+03  0.00000000000E+00 0. -1.
         -6    2    1    2    0  503 -0.15888779077E+02 -0.98994497654E+02 -0.21953434113E+03  0.29674045135E+03  0.17264763151E+03 0.  0.
        -24    2    3    3    0    0 -0.33257764597E+02 -0.44762913027E+02 -0.22097816819E+03  0.23958346520E+03  0.73885646051E+02 0.  0.
          6    2    1    2  501    0  0.15888779077E+02  0.98994497654E+02  0.13500767494E+03  0.24042042168E+03  0.17182125305E+03 0.  0.
         24    2    5    5    0    0 -0.15107873912E+02 -0.14208654953E+02  0.10579622907E+03  0.11937850817E+03  0.51266484157E+02 0.  0.
          5    1    5    5  501    0  0.30996652989E+02  0.11320315261E+03  0.29211445875E+02  0.12104191351E+03  0.47000000000E+01 0. -1.
        -13    1    6    6    0    0  0.11592107289E+02  0.23867038824E+01  0.72982254593E+02  0.73935666578E+02  0.00000000000E+00 0.  1.
         14    1    6    6    0    0 -0.26699981200E+02 -0.16595358836E+02  0.32813974473E+02  0.45442841589E+02  0.00000000000E+00 0. -1.
         -5    1    3    3    0  503  0.17368985520E+02 -0.54231584628E+02  0.14438270588E+01  0.57156986151E+02  0.47000000000E+01 0.  1.
         11    1    4    4    0    0 -0.34541819796E+01  0.20435523511E+02 -0.43970248529E+02  0.48609924399E+02  0.00000000000E+00 0. -1.
        -12    1    4    4    0    0 -0.29803582618E+02 -0.65198436538E+02 -0.17700791966E+03  0.19097354080E+03  0.00000000000E+00 0.  1.
</event>
<event>
12    1  0.8462562E-002  0.2056137E+03  0.7818608E-02  0.1145499E+00
         21   -1    0    0  503  502  0.00000000000E+00  0.00000000000E+00  0.75899136125E+02  0.75899136125E+02  0.00000000000E+00 0.  1.
         21   -1    0    0  501  503 -0.00000000000E+00 -0.00000000000E+00 -0.56221098497E+03  0.56221098497E+03  0.00000000000E+00 0. -1.
          6    2    1    2  501    0  0.10302939348E+03 -0.36881899844E+02 -0.20044297444E+03  0.28714874185E+03  0.17407378748E+03 0.  0.
         24    2    3    3    0    0  0.10353495880E+03 -0.81598913546E+02 -0.18052010187E+03  0.23796665403E+03  0.81625675289E+02 0.  0.
         -6    2    1    2    0  502 -0.10302939348E+03  0.36881899844E+02 -0.28586887441E+03  0.35096137925E+03  0.17169026155E+03 0.  0.
        -24    2    5    5    0    0  0.66531573837E-01  0.56165725255E+02 -0.13933350311E+03  0.17069673844E+03  0.81049110449E+02 0.  0.
          5    1    3    3  501    0 -0.50556532794E+00  0.44717013703E+02 -0.19922872572E+02  0.49182087820E+02  0.47000000000E+01 0. -1.
        -11    1    4    4    0    0 -0.17203519105E+01 -0.75050685340E+01  0.70754488681E+01  0.10456942243E+02  0.00000000000E+00 0.  1.
         12    1    4    4    0    0  0.10525531071E+03 -0.74093845012E+02 -0.18759555074E+03  0.22750971179E+03  0.00000000000E+00 0. -1.
         -5    1    5    5    0  502 -0.10309592505E+03 -0.19283825411E+02 -0.14653537130E+03  0.18026464081E+03  0.47000000000E+01 0.  1.
         13    1    6    6    0    0 -0.29598553230E+02  0.53117967980E+02 -0.12171627768E+03  0.13606044659E+03  0.00000000000E+00 0. -1.
        -14    1    6    6    0    0  0.29665084804E+02  0.30477572745E+01 -0.17617225436E+02  0.34636291847E+02  0.00000000000E+00 0.  1.
</event>
<event>
12    1  0.8462562E-002  0.2314854E+03  0.7818608E-02  0.1126165E+00
         21   -1    0    0  503  502  0.00000000000E+00  0.00000000000E+00  0.48341667060E+03  0.48341667060E+03  0.00000000000E+00 0.  1.
         21   -1    0    0  501  503 -0.00000000000E+00 -0.00000000000E+00 -0.10937767140E+03  0.10937767140E+03  0.00000000000E+00 0. -1.
          6    2    1    2  501    0  0.13714752486E+03 -0.61184108373E+02  0.19311397684E+03  0.29899278129E+03  0.17190327664E+03 0.  0.
         24    2    3    3    0    0  0.12321679966E+03 -0.82731939002E+02  0.85623307282E+02  0.18838216629E+03  0.78291355688E+02 0.  0.
         -6    2    1    2    0  502 -0.13714752486E+03  0.61184108373E+02  0.18092502235E+03  0.29380156071E+03  0.17616059340E+03 0.  0.
        -24    2    5    5    0    0 -0.79802022992E+02  0.89201206922E+02  0.57698850223E+02  0.15494824280E+03  0.79715634850E+02 0.  0.
          5    1    3    3  501    0  0.13930725198E+02  0.21547830629E+02  0.10749066956E+03  0.11061061500E+03  0.47000000000E+01 0. -1.
        -13    1    4    4    0    0  0.18149857660E+02 -0.47993744816E+01  0.49096309610E+02  0.52563285150E+02  0.00000000000E+00 0.  1.
         14    1    4    4    0    0  0.10506694201E+03 -0.77932564521E+02  0.36526997672E+02  0.13581888114E+03  0.00000000000E+00 0. -1.
         -5    1    5    5    0  502 -0.57345501870E+02 -0.28017098549E+02  0.12322617213E+03  0.13885331791E+03  0.47000000000E+01 0.  1.
         13    1    6    6    0    0 -0.64678486491E+02  0.38561209075E+02 -0.18567733011E+01  0.75324106813E+02  0.00000000000E+00 0. -1.
        -14    1    6    6    0    0 -0.15123536502E+02  0.50639997847E+02  0.59555623524E+02  0.79624135987E+02  0.00000000000E+00 0.  1.
</event>
<event>
12    1  0.8462562E-002  0.1789314E+03  0.7818608E-02  0.1168860E+00
         21   -1    0    0  503  502  0.00000000000E+00  0.00000000000E+00  0.24993801635E+02  0.24993801635E+02  0.00000000000E+00 0. -1.
         21   -1    0    0  501  503 -0.00000000000E+00 -0.00000000000E+00 -0.17787753367E+04  0.17787753367E+04  0.00000000000E+00 0. -1.
          6    2    1    2  501    0  0.38899984187E+02  0.29363792428E+02 -0.13541253032E+04  0.13658860962E+04  0.17208733263E+03 0.  0.
         24    2    3    3    0    0  0.35007107214E+02 -0.62488936673E+00 -0.32135954331E+03  0.33266700992E+03  0.78546135307E+02 0.  0.
         -6    2    1    2    0  502 -0.38899984187E+02 -0.29363792428E+02 -0.39965623193E+03  0.43788304217E+03  0.17216565807E+03 0.  0.
        -24    2    5    5    0    0 -0.84425844700E+01  0.22297339571E+02 -0.34971750753E+03  0.35970061478E+03  0.80707797736E+02 0.  0.
          5    1    3    3  501    0  0.38928769732E+01  0.29988681795E+02 -0.10327657599E+04  0.10332190863E+04  0.47000000000E+01 0. -1.
        -11    1    4    4    0    0 -0.21132842792E+02  0.16781410314E+02 -0.11284821060E+03  0.11602987293E+03  0.00000000000E+00 0.  1.
         12    1    4    4    0    0  0.56139950006E+02 -0.17406299681E+02 -0.20851133271E+03  0.21663713699E+03  0.00000000000E+00 0. -1.
         -5    1    5    5    0  502 -0.30457399717E+02 -0.51661131999E+02 -0.49938724403E+02  0.78182427386E+02  0.47000000000E+01 0.  1.
         13    1    6    6    0    0 -0.33514806338E+02  0.40846238707E+02 -0.21004357386E+03  0.21658707344E+03  0.00000000000E+00 0. -1.
        -14    1    6    6    0    0  0.25072221868E+02 -0.18548899136E+02 -0.13967393367E+03  0.14311354134E+03  0.00000000000E+00 0.  1.
</event>
<event>
12    1  0.8462562E-002  0.2967713E+03  0.7818608E-02  0.1086989E+00
         21   -1    0    0  501  502  0.00000000000E+00  0.00000000000E+00  0.18198376921E+04  0.18198376921E+04  0.00000000000E+00 0.  1.
         21   -1    0    0  502  503 -0.00000000000E+00 -0.00000000000E+00 -0.18879449526E+03  0.18879449526E+03  0.00000000000E+00 0. -1.
         -6    2    1    2    0  503 -0.23582396324E+03  0.48773526360E+02 -0.50701331439E+02  0.30107111750E+03  0.17343988661E+03 0.  0.
        -24    2    3    3    0    0 -0.59271189976E+02  0.64901416868E+02 -0.23455810637E+02  0.12164035368E+03  0.80752292338E+02 0.  0.
          6    2    1    2  501    0  0.23582396324E+03 -0.48773526360E+02  0.16817445282E+04  0.17075610698E+04  0.17177994763E+03 0.  0.
         24    2    5    5    0    0  0.18878754191E+03  0.18165187616E+02  0.99384662745E+03  0.10147993299E+04  0.78203907188E+02 0.  0.
          5    1    5    5  501    0  0.47036421332E+02 -0.66938713976E+02  0.68789790078E+03  0.69276173989E+03  0.47000000000E+01 0. -1.
        -13    1    6    6    0    0  0.82250297604E+02 -0.22004092940E+01  0.62319063277E+03  0.62859885303E+03  0.00000000000E+00 0.  1.
         14    1    6    6    0    0  0.10653724431E+03  0.20365596910E+02  0.37065599468E+03  0.38620047689E+03  0.00000000000E+00 0. -1.
         -5    1    3    3    0  503 -0.17655277327E+03 -0.16127890508E+02 -0.27245520802E+02  0.17943076382E+03  0.47000000000E+01 0.  1.
         11    1    4    4    0    0 -0.77417898940E+02  0.37832848272E+02 -0.22414627807E+02  0.89035223504E+02  0.00000000000E+00 0. -1.
        -12    1    4    4    0    0  0.18146708964E+02  0.27068568596E+02 -0.10411828304E+01  0.32605130175E+02  0.00000000000E+00 0.  1.
</event>
<event>
12    1  0.8462562E-002  0.1811966E+03  0.7818608E-02  0.1166859E+00
         21   -1    0    0  503  502  0.00000000000E+00  0.00000000000E+00  0.28263027692E+03  0.28263027692E+03  0.00000000000E+00 0.  1.
         21   -1    0    0  501  503 -0.00000000000E+00 -0.00000000000E+00 -0.11596249310E+03  0.11596249310E+03  0.00000000000E+00 0.  1.
          6    2    1    2  501    0 -0.12776216933E+02  0.52793840319E+02  0.72152918541E+02  0.19422726609E+03  0.17195280151E+03 0.  0.
         24    2    3    3    0    0  0.47791092609E+02  0.54185337471E+02  0.61849331355E+01  0.10453779989E+03  0.75298465312E+02 0.  0.
         -6    2    1    2    0  502  0.12776216933E+02 -0.52793840319E+02  0.94514865284E+02  0.20436550392E+03  0.17286346676E+03 0.  0.
        -24    2    5    5    0    0  0.46483636394E+02 -0.73461214874E+02  0.20409123197E+02  0.12024011235E+03  0.80522504708E+02 0.  0.
          5    1    3    3  501    0 -0.60567309542E+02 -0.13914971517E+01  0.65967985406E+02  0.89689466204E+02  0.47000000000E+01 0. -1.
        -11    1    4    4    0    0  0.27792588029E+02  0.12231835294E+02 -0.32200351293E+02  0.44259556792E+02  0.00000000000E+00 0.  1.
         12    1    4    4    0    0  0.19998504581E+02  0.41953502177E+02  0.38385284429E+02  0.60278243098E+02  0.00000000000E+00 0. -1.
         -5    1    5    5    0  502 -0.33707419462E+02  0.20667374555E+02  0.74105742087E+02  0.84125391577E+02  0.47000000000E+01 0.  1.
         13    1    6    6    0    0 -0.10026371552E+02  0.97619948243E+01 -0.74564464913E+01  0.15856331976E+02  0.00000000000E+00 0. -1.
        -14    1    6    6    0    0  0.56510007946E+02 -0.83223209698E+02  0.27865569689E+02  0.10438378037E+03  0.00000000000E+00 0.  1.
</event>
<event>
12    1  0.8462562E-002  0.3545049E+03  0.7818608E-02  0.1060864E+00
         21   -1    0    0  503  502  0.00000000000E+00  0.00000000000E+00  0.37837040864E+03  0.37837040864E+03  0.00000000000E+00 0. -1.
         21   -1    0    0  501  503 -0.00000000000E+00 -0.00000000000E+00 -0.35174193708E+03  0.35174193708E+03  0.00000000000E+00 0.  1.
          6    2    1    2  501    0  0.25997768379E+03  0.16749369920E+03 -0.74501721873E+02  0.36224885450E+03  0.17329509712E+03 0.  0.
         24    2    3    3    0    0  0.17916601102E+03  0.18667695649E+03 -0.55927194782E+02  0.27701020791E+03  0.81596927516E+02 0.  0.
         -6    2    1    2    0  502 -0.25997768379E+03 -0.16749369920E+03  0.10113019344E+03  0.36786349122E+03  0.17162079363E+03 0.  0.
        -24    2    5    5    0    0 -0.20170978211E+03 -0.10817296341E+03  0.13589671619E+03  0.27761439613E+03  0.78826450217E+02 0.  0.
          5    1    3    3  501    0  0.80811672772E+02 -0.19183257292E+02 -0.18574527091E+02  0.85238646594E+02  0.47000000000E+01 0. -1.
        -13    1    4    4    0    0 -0.20280957214E+01  0.30789514458E+01 -0.15471209047E+02  0.15904446663E+02  0.00000000000E+00 0.  1.
         14    1    4    4    0    0  0.18119410674E+03  0.18359800504E+03 -0.40455985735E+02  0.26110576124E+03  0.00000000000E+00 0. -1.
         -5    1    5    5    0  502 -0.58267901680E+02 -0.59320735788E+02 -0.34766522754E+02  0.90249095093E+02  0.47000000000E+01 0.  1.
         13    1    6    6    0    0 -0.16521012325E+03 -0.84265101026E+02  0.69272384601E+02  0.19797387541E+03  0.00000000000E+00 0. -1.
        -14    1    6    6    0    0 -0.36499658857E+02 -0.23907862382E+02  0.66624331589E+02  0.79640520717E+02  0.00000000000E+00 0.  1.
</event>
<event>
12    1  0.8462562E-002  0.2122994E+03  0.7818608E-02  0.1139795E+00
         21   -1    0    0  503  502  0.00000000000E+00  0.00000000000E+00  0.92185490698E+02  0.92185490698E+02  0.00000000000E+00 0. -1.
         21   -1    0    0  501  503 -0.00000000000E+00 -0.00000000000E+00 -0.10299965354E+04  0.10299965354E+04  0.00000000000E+00 0. -1.
          6    2    1    2  501    0 -0.12022451136E+03 -0.37328161871E+02 -0.87564398718E+03  0.90096770453E+03  0.17071346612E+03 0.  0.
         24    2    3    3    0    0 -0.12584116804E+02 -0.51259331700E+02 -0.27984018071E+03  0.29534009796E+03  0.78290278072E+02 0.  0.
         -6    2    1    2    0  502  0.12022451136E+03  0.37328161871E+02 -0.62167057514E+02  0.22121432156E+03  0.17094943178E+03 0.  0.
        -24    2    5    5    0    0  0.57685195094E+02 -0.38669138553E+01  0.34335122021E+02  0.98972916967E+02  0.72623707789E+02 0.  0.
          5    1    3    3  501    0 -0.10764039455E+03  0.13931169830E+02 -0.59580380647E+03  0.60562760657E+03  0.47000000000E+01 0. -1.
        -13    1    4    4    0    0 -0.95220073496E+01 -0.14982558990E+02 -0.24264442292E+03  0.24329295442E+03  0.00000000000E+00 0.  1.
         14    1    4    4    0    0 -0.30621094544E+01 -0.36276772711E+02 -0.37195757788E+02  0.52047143534E+02  0.00000000000E+00 0. -1.
         -5    1    5    5    0  502  0.62539316263E+02  0.41195075726E+02 -0.96502179535E+02  0.12224140460E+03  0.47000000000E+01 0.  1.
         11    1    6    6    0    0  0.31744530651E+02 -0.29224047491E+02 -0.72895588801E+01  0.43759545778E+02  0.00000000000E+00 0. -1.
        -12    1    6    6    0    0  0.25940664443E+02  0.25357133636E+02  0.41624680901E+02  0.55213371189E+02  0.00000000000E+00 0.  1.
</event>
<event>
12    1  0.8462562E-002  0.1935322E+03  0.7818608E-02  0.1156768E+00
         21   -1    0    0  503  502  0.00000000000E+00  0.00000000000E+00  0.44343954444E+02  0.44343954444E+02  0.00000000000E+00 0.  1.
         21   -1    0    0  501  503 -0.00000000000E+00 -0.00000000000E+00 -0.86682263591E+03  0.86682263591E+03  0.00000000000E+00 0. -1.
          6    2    1    2  501    0 -0.31323155873E+02  0.66299604803E+02 -0.30815484809E+03  0.36388752605E+03  0.17910316447E+03 0.  0.
         24    2    3    3    0    0 -0.24128406210E+02  0.36801943752E+02 -0.46700476849E+02  0.10063412214E+03  0.77522441595E+02 0.  0.
         -6    2    1    2    0  502  0.31323155873E+02 -0.66299604803E+02 -0.51432383338E+03  0.54727906430E+03  0.17207147048E+03 0.  0.
        -24    2    5    5    0    0  0.29476610710E+02 -0.58744239648E+02 -0.52406715938E+03  0.53395556351E+03  0.78373464898E+02 0.  0.
          5    1    3    3  501    0 -0.71947496631E+01  0.29497661051E+02 -0.26145437124E+03  0.26325340391E+03  0.47000000000E+01 0. -1.
        -11    1    4    4    0    0  0.19578926551E+01  0.52881871453E+02 -0.11853003210E+02  0.54229321932E+02  0.00000000000E+00 0.  1.
         12    1    4    4    0    0 -0.26086298865E+02 -0.16079927701E+02 -0.34847473639E+02  0.46404800208E+02  0.00000000000E+00 0. -1.
         -5    1    5    5    0  502  0.18465451637E+01 -0.75553651550E+01  0.97433260006E+01  0.13323500787E+02  0.47000000000E+01 0.  1.
         11    1    6    6    0    0 -0.12167251652E+02 -0.33682867230E+02 -0.38456569097E+03  0.38622965736E+03  0.00000000000E+00 0. -1.
        -12    1    6    6    0    0  0.41643862362E+02 -0.25061372418E+02 -0.13950146841E+03  0.14772590615E+03  0.00000000000E+00 0.  1.
</event>
<event>
12    1  0.8462562E-002  0.2555069E+03  0.7818608E-02  0.1110269E+00
         21   -1    0    0  503  502  0.00000000000E+00  0.00000000000E+00  0.38126915312E+03  0.38126915312E+03  0.00000000000E+00 0. -1.
         21   -1    0    0  501  503 -0.00000000000E+00 -0.00000000000E+00 -0.21639274888E+03  0.21639274888E+03  0.00000000000E+00 0.  1.
          6    2    1    2  501    0  0.18760460693E+03  0.97295722891E+01 -0.56323506873E+02  0.26164116702E+03  0.17318663267E+03 0.  0.
         24    2    3    3    0    0  0.13140569595E+03  0.71122250313E+02 -0.19789848212E+02  0.17062371416E+03  0.79968633378E+02 0.  0.
         -6    2    1    2    0  502 -0.18760460693E+03 -0.97295722891E+01  0.22119991112E+03  0.33602073497E+03  0.16938235013E+03 0.  0.
        -24    2    5    5    0    0 -0.10785646425E+03  0.55806948165E+02  0.98085604246E+02  0.17529107271E+03  0.79741720997E+02 0.  0.
          5    1    3    3  501    0  0.56198910985E+02 -0.61392678024E+02 -0.36533658660E+02  0.91017452864E+02  0.47000000000E+01 0. -1.
        -11    1    4    4    0    0  0.59883187336E+02 -0.10479336074E+02 -0.34506143562E+01  0.60891044904E+02  0.00000000000E+00 0.  1.
         12    1    4    4    0    0  0.71522508613E+02  0.81601586387E+02 -0.16339233856E+02  0.10973266926E+03  0.00000000000E+00 0. -1.
         -5    1    5    5    0  502 -0.79748142685E+02 -0.65536520454E+02  0.12311430687E+03  0.16072966226E+03  0.47000000000E+01 0.  1.
         13    1    6    6    0    0  0.60355370221E+01 -0.96451959458E+01  0.44205351448E-01  0.11378025580E+02  0.00000000000E+00 0. -1.
        -14    1    6    6    0    0 -0.11389200127E+03  0.65452144111E+02  0.98041398895E+02  0.16391304713E+03  0.00000000000E+00 0.  1.
</event>
<event>
12    1  0.8462562E-002  0.2378017E+03  0.7818608E-02  0.1121274E+00
         21   -1    0    0  501  502  0.00000000000E+00  0.00000000000E+00  0.61882693722E+03  0.61882693722E+03  0.00000000000E+00 0.  1.
         21   -1    0    0  502  503 -0.00000000000E+00 -0.00000000000E+00 -0.10982055846E+03  0.10982055846E+03  0.00000000000E+00 0. -1.
         -6    2    1    2    0  503 -0.60715624440E+02  0.15198031914E+03  0.10517078921E+03  0.26002031427E+03  0.17252612692E+03 0.  0.
        -24    2    3    3    0    0 -0.51713244915E+02  0.18172963600E+03  0.79364863033E+02  0.21934967970E+03  0.78202175150E+02 0.  0.
          6    2    1    2  501    0  0.60715624440E+02 -0.15198031914E+03  0.40383558955E+03  0.46862718142E+03  0.17246404646E+03 0.  0.
         24    2    5    5    0    0  0.34766151003E+02 -0.94164171935E+02  0.10604087193E+03  0.16412781214E+03  0.74951288626E+02 0.  0.
          5    1    5    5  501    0  0.25949473437E+02 -0.57816147206E+02  0.29779471762E+03  0.30449936928E+03  0.47000000000E+01 0. -1.
        -11    1    6    6    0    0  0.37499778476E+01 -0.39067526352E+02  0.91049260801E+02  0.99147878653E+02  0.00000000000E+00 0.  1.
         12    1    6    6    0    0  0.31016173155E+02 -0.55096645583E+02  0.14991611128E+02  0.64979933487E+02  0.00000000000E+00 0. -1.
         -5    1    3    3    0  503 -0.90023795248E+01 -0.29749316858E+02  0.25805926179E+02  0.40670634573E+02  0.47000000000E+01 0.  1.
         11    1    4    4    0    0 -0.62281818379E+02  0.93764749245E+02  0.24693157273E+02  0.11524150779E+03  0.00000000000E+00 0. -1.
        -12    1    4    4    0    0  0.10568573465E+02  0.87964886754E+02  0.54671705761E+02  0.10410817191E+03  0.00000000000E+00 0.  1.
</event>
<event>
12    1  0.8462562E-002  0.1764817E+03  0.7818608E-02  0.1172278E+00
         21   -1    0    0  503  502  0.00000000000E+00  0.00000000000E+00  0.92860294641E+02  0.92860294641E+02  0.00000000000E+00 0. -1.
         21   -1    0    0  501  503 -0.00000000000E+00 -0.00000000000E+00 -0.32769721532E+03  0.32769721532E+03  0.00000000000E+00 0. -1.
          6    2    1    2  501    0 -0.21165926643E+02 -0.26744091955E+02 -0.11533128190E+03  0.20742052044E+03  0.16899326853E+03 0.  0.
         24    2    3    3    0    0 -0.31639184142E+02  0.25161305252E+01 -0.14185591514E+03  0.16629272071E+03  0.80763849686E+02 0.  0.
         -6    2    1    2    0  502  0.21165926643E+02  0.26744091955E+02 -0.11950563878E+03  0.21313698952E+03  0.17315465832E+03 0.  0.
        -24    2    5    5    0    0  0.30415841050E+02 -0.49715203952E+02 -0.75213205577E+02  0.12416792475E+03  0.79774196035E+02 0.  0.
          5    1    3    3  501    0  0.10473257499E+02 -0.29260222480E+02  0.26524633235E+02  0.41127799729E+02  0.47000000000E+01 0. -1.
        -13    1    4    4    0    0  0.25606708159E+01 -0.25076540441E+02 -0.10777224394E+03  0.11068083159E+03  0.00000000000E+00 0.  1.
         14    1    4    4    0    0 -0.34199854958E+02  0.27592670966E+02 -0.34083671191E+02  0.55611889125E+02  0.00000000000E+00 0. -1.
         -5    1    5    5    0  502 -0.92499144076E+01  0.76459295907E+02 -0.44292433199E+02  0.88969064769E+02  0.47000000000E+01 0.  1.
         13    1    6    6    0    0 -0.47098762227E+01 -0.43484290168E+02 -0.32640248634E+01  0.43860235793E+02  0.00000000000E+00 0. -1.
        -14    1    6    6    0    0  0.35125717273E+02 -0.62309137833E+01 -0.71949180714E+02  0.80307688959E+02  0.00000000000E+00 0.  1.
</event>
<event>
12    1  0.8462562E-002  0.1823655E+03  0.7818608E-02  0.1165955E+00
         21   -1    0    0  501  502  0.00000000000E+00  0.00000000000E+00  0.48991354646E+03  0.48991354646E+03  0.00000000000E+00 0. -1.
         21   -1    0    0  502  503 -0.00000000000E+00 -0.00000000000E+00 -0.10016095492E+03  0.10016095492E+03  0.00000000000E+00 0. -1.
         -6    2    1    2    0  503  0.37102342725E+02 -0.44764693530E+02  0.26337431717E+02  0.18425754257E+03  0.17284883587E+03 0.  0.
        -24    2    3    3    0    0 -0.42864828919E+02 -0.45208751071E+02  0.24330642502E+02  0.10412600739E+03  0.79806143362E+02 0.  0.
          6    2    1    2  501    0 -0.37102342725E+02  0.44764693530E+02  0.36341515981E+03  0.40581695881E+03  0.17098644406E+03 0.  0.
         24    2    5    5    0    0 -0.78904706451E+02  0.30879692266E+02  0.15964195253E+03  0.19728436932E+03  0.79095267084E+02 0.  0.
          5    1    5    5  501    0  0.41802363725E+02  0.13885001264E+02  0.20377320728E+03  0.20853258949E+03  0.47000000000E+01 0. -1.
        -13    1    6    6    0    0 -0.89261505773E+02  0.33610119921E+02  0.16032576475E+03  0.18655188934E+03  0.00000000000E+00 0.  1.
         14    1    6    6    0    0  0.10356799322E+02 -0.27304276547E+01 -0.68381221619E+00  0.10732479980E+02  0.00000000000E+00 0. -1.
         -5    1    3    3    0  503  0.79967171644E+02  0.44405754159E+00  0.20067892148E+01  0.80131535183E+02  0.47000000000E+01 0.  1.
         13    1    4    4    0    0 -0.57352902945E+01  0.20505231769E+02 -0.69860939165E+01  0.22409006959E+02  0.00000000000E+00 0. -1.
        -14    1    4    4    0    0 -0.37129538625E+02 -0.65713982840E+02  0.31316736419E+02  0.81717000429E+02  0.00000000000E+00 0.  1.
</event>
<event>
12    1  0.8462562E-002  0.2469631E+03  0.7818608E-02  0.1115316E+00
         21   -1    0    0  501  502  0.00000000000E+00  0.00000000000E+00  0.53309323171E+02  0.53309323171E+02  0.00000000000E+00 0. -1.
         21   -1    0    0  502  503 -0.00000000000E+00 -0.00000000000E+00 -0.11420724228E+04  0.11420724228E+04  0.00000000000E+00 0. -1.
         -6    2    1    2    0  503  0.14665031238E+03  0.98440637327E+02 -0.55247282642E+03  0.60515865896E+03  0.17260911151E+03 0.  0.
        -24    2    3    3    0    0  0.12867026653E+03  0.10594829006E+03 -0.30324560500E+03  0.35512677140E+03  0.79850166924E+02 0.  0.
          6    2    1    2  501    0 -0.14665031238E+03 -0.98440637327E+02 -0.53629027321E+03  0.59022308702E+03  0.17192778167E+03 0.  0.
         24    2    5    5    0    0 -0.94425869355E+01 -0.31246310665E+02 -0.26865655129E+03  0.28201709005E+03  0.79320880930E+02 0.  0.
          5    1    5    5  501    0 -0.13720772545E+03 -0.67194326662E+02 -0.26763372192E+03  0.30820599697E+03  0.47000000000E+01 0. -1.
        -11    1    6    6    0    0  0.23450749468E+02  0.93206065988E+01 -0.38673420834E+02  0.46178402279E+02  0.00000000000E+00 0.  1.
         12    1    6    6    0    0 -0.32893336403E+02 -0.40566917264E+02 -0.22998313045E+03  0.23583868777E+03  0.00000000000E+00 0. -1.
         -5    1    3    3    0  503  0.17980045856E+02 -0.75076527309E+01 -0.24922722142E+03  0.25003188756E+03  0.47000000000E+01 0.  1.
         11    1    4    4    0    0  0.88996154541E+02  0.57031346134E+02 -0.25419618689E+03  0.27529727822E+03  0.00000000000E+00 0. -1.
        -12    1    4    4    0    0  0.39674111985E+02  0.48916943924E+02 -0.49049418115E+02  0.79829493184E+02  0.00000000000E+00 0.  1.
</event>
<event>
12    1  0.8462562E-002  0.2144787E+03  0.7818608E-02  0.1138187E+00
         21   -1    0    0  503  502  0.00000000000E+00  0.00000000000E+00  0.47880038236E+03  0.47880038236E+03  0.00000000000E+00 0.  1.
         21   -1    0    0  501  503 -0.00000000000E+00 -0.00000000000E+00 -0.10804393172E+03  0.10804393172E+03  0.00000000000E+00 0.  1.
          6    2    1    2  501    0  0.82060318231E+00 -0.12740047689E+03  0.86356894238E+02  0.23063617894E+03  0.17176722316E+03 0.  0.
         24    2    3    3    0    0 -0.92622645765E+01 -0.89102175198E+02  0.12910779364E+03  0.17217120195E+03  0.70349934140E+02 0.  0.
         -6    2    1    2    0  502 -0.82060318231E+00  0.12740047689E+03  0.28439955640E+03  0.35620813514E+03  0.17253861296E+03 0.  0.
        -24    2    5    5    0    0  0.38204875323E+02  0.10043660938E+03  0.10391410378E+03  0.16953428392E+03  0.79978793806E+02 0.  0.
          5    1    3    3  501    0  0.10082867759E+02 -0.38298301693E+02 -0.42750899398E+02  0.58464976988E+02  0.47000000000E+01 0. -1.
        -13    1    4    4    0    0 -0.13315413912E+02 -0.81142091806E+02  0.58289762504E+02  0.10079204196E+03  0.00000000000E+00 0.  1.
         14    1    4    4    0    0  0.40531493353E+01 -0.79600833921E+01  0.70818031132E+02  0.71379159988E+02  0.00000000000E+00 0. -1.
         -5    1    5    5    0  502 -0.39025478506E+02  0.26963867515E+02  0.18048545261E+03  0.18667385122E+03  0.47000000000E+01 0.  1.
         11    1    6    6    0    0  0.21427962917E+02 -0.89522283792E+01  0.16078828340E+02  0.28245861795E+02  0.00000000000E+00 0. -1.
        -12    1    6    6    0    0  0.16776912407E+02  0.10938883776E+03  0.87835275443E+02  0.14128842213E+03  0.00000000000E+00 0.  1.
</event>
<event>
12    1  0.8462562E-002  0.1743079E+03  0.7818608E-02  0.1173581E+00
         21   -1    0    0  503  502  0.00000000000E+00  0.00000000000E+00  0.84895903858E+02  0.84895903858E+02  0.00000000000E+00 0.  1.
         21   -1    0    0  501  503 -0.00000000000E+00 -0.00000000000E+00 -0.36926058878E+03  0.36926058878E+03  0.00000000000E+00 0.  1.
          6    2    1    2  501    0  0.23182747521E+02 -0.99569042050E+01 -0.99979971319E+02  0.20042247373E+03  0.17186213541E+03 0.  0.
         24    2    3    3    0    0  0.67503286099E+02  0.22558338432E+02 -0.98009001903E+02  0.14521807297E+03  0.80105879903E+02 0.  0.
         -6    2    1    2    0  502 -0.23182747521E+02  0.99569042050E+01 -0.18438471361E+03  0.25373401891E+03  0.17247217172E+03 0.  0.
        -24    2    5    5    0    0  0.26835194125E+02  0.56330169592E+02 -0.13998768490E+03  0.17221432566E+03  0.78536656343E+02 0.  0.
          5    1    3    3  501    0 -0.44320538578E+02 -0.32515242637E+02 -0.19709694165E+01  0.55204400767E+02  0.47000000000E+01 0. -1.
        -13    1    4    4    0    0  0.52249136443E+02 -0.15851327889E+02 -0.86545743401E+02  0.10232987128E+03  0.00000000000E+00 0.  1.
         14    1    4    4    0    0  0.15254149657E+02  0.38409666321E+02 -0.11463258502E+02  0.42888201689E+02  0.00000000000E+00 0. -1.
         -5    1    5    5    0  502 -0.50017941646E+02 -0.46373265387E+02 -0.44397028703E+02  0.81519693245E+02  0.47000000000E+01 0.  1.
         11    1    6    6    0    0  0.37634031216E+02 -0.31217484864E+01 -0.71659438987E+02  0.81000869224E+02  0.00000000000E+00 0. -1.
        -12    1    6    6    0    0 -0.10798837092E+02  0.59451918078E+02 -0.68328245916E+02  0.91213456440E+02  0.00000000000E+00 0.  1.
</event>
<event>
12    1  0.8462562E-002  0.2726734E+03  0.7818608E-02  0.1100016E+00
         21   -1    0    0  501  502  0.00000000000E+00  0.00000000000E+00  0.22437725765E+03  0.22437725765E+03  0.00000000000E+00 0. -1.
         21   -1    0    0  502  503 -0.00000000000E+00 -0.00000000000E+00 -0.35780622999E+03  0.35780622999E+03  0.00000000000E+00 0. -1.
         -6    2    1    2    0  503  0.12092748756E+03  0.17207382844E+03  0.15436815875E+02  0.27310999968E+03  0.17354514387E+03 0.  0.
        -24    2    3    3    0    0  0.98119339682E+02  0.78043038226E+02 -0.49543551583E+02  0.15646292825E+03  0.79422690578E+02 0.  0.
          6    2    1    2  501    0 -0.12092748756E+03 -0.17207382844E+03 -0.14886578821E+03  0.30907348796E+03  0.17068256611E+03 0.  0.
         24    2    5    5    0    0  0.47814183862E+01 -0.91649167117E+02 -0.56973976545E+02  0.13375363673E+03  0.78876926533E+02 0.  0.
          5    1    5    5  501    0 -0.12570890595E+03 -0.80424661327E+02 -0.91891811667E+02  0.17531985123E+03  0.47000000000E+01 0. -1.
        -13    1    6    6    0    0  0.71899680423E+01  0.13260283455E+02 -0.13230105178E+02  0.20064058432E+02  0.00000000000E+00 0.  1.
         14    1    6    6    0    0 -0.24085496561E+01 -0.10490945057E+03 -0.43743871367E+02  0.11368957829E+03  0.00000000000E+00 0. -1.
         -5    1    3    3    0  503  0.22808147881E+02  0.94030790217E+02  0.64980367458E+02  0.11664707143E+03  0.47000000000E+01 0.  1.
         11    1    4    4    0    0  0.52568640249E+02  0.81466583113E+02 -0.12712405704E+02  0.97784821729E+02  0.00000000000E+00 0. -1.
        -12    1    4    4    0    0  0.45550699433E+02 -0.34235448871E+01 -0.36831145879E+02  0.58678106524E+02  0.00000000000E+00 0.  1.
</event>
<event>
12    1  0.8462562E-002  0.1924192E+03  0.7818608E-02  0.1156426E+00
         21   -1    0    0  503  502  0.00000000000E+00  0.00000000000E+00  0.11552244711E+03  0.11552244711E+03  0.00000000000E+00 0.  1.
         21   -1    0    0  501  503 -0.00000000000E+00 -0.00000000000E+00 -0.31969231779E+03  0.31969231779E+03  0.00000000000E+00 0.  1.
          6    2    1    2  501    0 -0.73096923379E+01  0.84537203212E+02 -0.97158324659E+02  0.21504068968E+03  0.17205460714E+03 0.  0.
         24    2    3    3    0    0 -0.38588797099E+01  0.87824124113E+02 -0.13285027725E+03  0.17872654042E+03  0.81030934550E+02 0.  0.
         -6    2    1    2    0  502  0.73096923379E+01 -0.84537203212E+02 -0.10701154602E+03  0.22017407522E+03  0.17269968758E+03 0.  0.
        -24    2    5    5    0    0 -0.18961877066E+02 -0.72896886774E+02 -0.13850434798E+03  0.17728376278E+03  0.81071383693E+02 0.  0.
          5    1    3    3  501    0 -0.34508126280E+01 -0.32869209014E+01  0.35691952594E+02  0.36314149264E+02  0.47000000000E+01 0. -1.
        -13    1    4    4    0    0 -0.85974755332E+00  0.10287721880E+03 -0.10547075384E+03  0.14733818659E+03  0.00000000000E+00 0.  1.
         14    1    4    4    0    0 -0.29991321566E+01 -0.15053094685E+02 -0.27379523414E+02  0.31388353822E+02  0.00000000000E+00 0. -1.
         -5    1    5    5    0  502  0.26271569404E+02 -0.11640316438E+02  0.31492801961E+02  0.42890312439E+02  0.47000000000E+01 0.  1.
         11    1    6    6    0    0  0.20093311424E+02 -0.54546013035E+02 -0.11321914335E+03  0.12726972587E+03  0.00000000000E+00 0. -1.
        -12    1    6    6    0    0 -0.39055188490E+02 -0.18350873739E+02 -0.25285204624E+02  0.50014036909E+02  0.00000000000E+00 0.  1.
</event>
<event>
12    1  0.8462562E-002  0.2727597E+03  0.7818608E-02  0.1100037E+00
         21   -1    0    0  501  502  0.00000000000E+00  0.00000000000E+00  0.89667111088E+02  0.89667111088E+02  0.00000000000E+00 0. -1.
         21   -1    0    0  502  503 -0.00000000000E+00 -0.00000000000E+00 -0.93518183662E+03  0.93518183662E+03  0.00000000000E+00 0.  1.
         -6    2    1    2    0  503 -0.43797752413E+02 -0.20738041152E+03 -0.60203043807E+03  0.66093757904E+03  0.17167689661E+03 0.  0.
        -24    2    3    3    0    0  0.40942495619E+02 -0.12646343724E+03 -0.31426543364E+03  0.35019772943E+03  0.78780695673E+02 0.  0.
          6    2    1    2  501    0  0.43797752413E+02  0.20738041152E+03 -0.24348428747E+03  0.36391136867E+03  0.16799407074E+03 0.  0.
         24    2    5    5    0    0  0.44494197082E+02  0.22822943242E+03 -0.24194722033E+03  0.34247263543E+03  0.68415211729E+02 0.  0.
          5    1    5    5  501    0 -0.69644466893E+00 -0.20849020894E+02 -0.15370671325E+01  0.21438733237E+02  0.47000000000E+01 0. -1.
        -13    1    6    6    0    0  0.94217086325E+00  0.14390260254E+03 -0.17373253067E+03  0.22559219604E+03  0.00000000000E+00 0.  1.
         14    1    6    6    0    0  0.43552026219E+02  0.84326829882E+02 -0.68214689667E+02  0.11688043939E+03  0.00000000000E+00 0. -1.
         -5    1    3    3    0  503 -0.84740248032E+02 -0.80916974281E+02 -0.28776500443E+03  0.31073984961E+03  0.47000000000E+01 0.  1.
         13    1    4    4    0    0  0.20387851148E+02 -0.12989173111E+03 -0.24751118095E+03  0.28026649993E+03  0.00000000000E+00 0. -1.
        -14    1    4    4    0    0  0.20554644472E+02  0.34282938643E+01 -0.66754252687E+02  0.69931229504E+02  0.00000000000E+00 0.  1.
</event>
<event>
12    1  0.8462562E-002  0.3577279E+03  0.7818608E-02  0.1059612E+00
         21   -1    0    0  501  502  0.00000000000E+00  0.00000000000E+00  0.42936791007E+03  0.42936791007E+03  0.00000000000E+00 0. -1.
         21   -1    0    0  502  503 -0.00000000000E+00 -0.00000000000E+00 -0.30772846763E+03  0.30772846763E+03  0.00000000000E+00 0.  1.
         -6    2    1    2    0  503  0.86763888911E+02 -0.29883682125E+03 -0.78750790777E+01  0.35781454499E+03  0.17645909888E+03 0.  0.
        -24    2    3    3    0    0 -0.18292476604E+02 -0.13546534899E+03  0.27687669423E+02  0.16029523715E+03  0.79009369951E+02 0.  0.
          6    2    1    2  501    0 -0.86763888911E+02  0.29883682125E+03  0.12951452152E+03  0.37928183271E+03  0.17392319910E+03 0.  0.
         24    2    5    5    0    0 -0.33003597950E+02  0.11388928249E+03  0.74364465960E-01  0.14717710368E+03  0.87184219763E+02 0.  0.
          5    1    5    5  501    0 -0.53760290961E+02  0.18494753877E+03  0.12944015705E+03  0.23210472903E+03  0.47000000000E+01 0. -1.
        -13    1    6    6    0    0 -0.57189219953E+02  0.45098660284E+02  0.10258726612E+02  0.73550917805E+02  0.00000000000E+00 0.  1.
         14    1    6    6    0    0  0.24185622003E+02  0.68790622204E+02 -0.10184362146E+02  0.73626185880E+02  0.00000000000E+00 0. -1.
         -5    1    3    3    0  503  0.10505636552E+03 -0.16337147227E+03 -0.35562748501E+02  0.19751930783E+03  0.47000000000E+01 0.  1.
         13    1    4    4    0    0 -0.27733899201E+02 -0.90058155681E+02 -0.17157767366E+02  0.95781154464E+02  0.00000000000E+00 0. -1.
        -14    1    4    4    0    0  0.94414225968E+01 -0.45407193305E+02  0.44845436789E+02  0.64514082689E+02  0.00000000000E+00 0.  1.
</event>
<event>
12    1  0.8462562E-002  0.2030209E+03  0.7818608E-02  0.1147439E+00
         21   -1    0    0  501  502  0.00000000000E+00  0.00000000000E+00  0.10259449298E+04  0.10259449298E+04  0.00000000000E+00 0. -1.
         21   -1    0    0  502  503 -0.00000000000E+00 -0.00000000000E+00 -0.40312169879E+02  0.40312169879E+02  0.00000000000E+00 0.  1.
         -6    2    1    2    0  503  0.91755956803E+02 -0.54983868876E+02  0.44184554717E+03  0.48580726429E+03  0.17128581097E+03 0.  0.
        -24    2    3    3    0    0  0.89445290687E+02  0.12949437086E+02  0.35942254515E+03  0.37886842898E+03  0.78667480997E+02 0.  0.
          6    2    1    2  501    0 -0.91755956803E+02  0.54983868876E+02  0.54378721275E+03  0.58044983539E+03  0.17255462092E+03 0.  0.
         24    2    5    5    0    0 -0.69018687553E+02 -0.14677895820E+02  0.16963237159E+03  0.19915771635E+03  0.76874148019E+02 0.  0.
          5    1    5    5  501    0 -0.22737269250E+02  0.69661764696E+02  0.37415484116E+03  0.38129211903E+03  0.47000000000E+01 0. -1.
        -13    1    6    6    0    0 -0.70923825772E+02  0.72372597466E+01  0.81315113353E+02  0.10814210397E+03  0.00000000000E+00 0.  1.
         14    1    6    6    0    0  0.19051382188E+01 -0.21915155567E+02  0.88317258237E+02  0.91015612384E+02  0.00000000000E+00 0. -1.
         -5    1    3    3    0  503  0.23106661159E+01 -0.67933305962E+02  0.82423002015E+02  0.10693883531E+03  0.47000000000E+01 0.  1.
         11    1    4    4    0    0 -0.38200379094E+01 -0.11656280621E+02  0.12178460997E+03  0.12240078755E+03  0.00000000000E+00 0. -1.
        -12    1    4    4    0    0  0.93265328596E+02  0.24605717707E+02  0.23763793519E+03  0.25646764143E+03  0.00000000000E+00 0.  1.
</event>
<event>
12    1  0.8462562E-002  0.2006166E+03  0.7818608E-02  0.1150256E+00
         21   -1    0    0  503  502  0.00000000000E+00  0.00000000000E+00  0.37367020453E+03  0.37367020453E+03  0.00000000000E+00 0. -1.
         21   -1    0    0  501  503 -0.00000000000E+00 -0.00000000000E+00 -0.20626451121E+03  0.20626451121E+03  0.00000000000E+00 0. -1.
          6    2    1    2  501    0  0.60778006299E+02  0.73946991906E+02 -0.11882801599E+03  0.23316760931E+03  0.17630914039E+03 0.  0.
         24    2    3    3    0    0  0.45453494578E+02  0.40218619415E+02  0.76629432376E+01  0.10127941219E+03  0.80717043544E+02 0.  0.
         -6    2    1    2    0  502 -0.60778006299E+02 -0.73946991906E+02  0.28623370931E+03  0.34676710643E+03  0.17075001053E+03 0.  0.
        -24    2    5    5    0    0 -0.22928630148E+02  0.14187814300E+02  0.20187619002E+03  0.21894457164E+03  0.80347452975E+02 0.  0.
          5    1    3    3  501    0  0.15324511720E+02  0.33728372491E+02 -0.12649095923E+03  0.13188819711E+03  0.47000000000E+01 0. -1.
        -11    1    4    4    0    0  0.65646392176E+01  0.41545033383E+02 -0.26320674263E+02  0.49617156111E+02  0.00000000000E+00 0.  1.
         12    1    4    4    0    0  0.38888855361E+02 -0.13264139682E+01  0.33983617500E+02  0.51662256084E+02  0.00000000000E+00 0. -1.
         -5    1    5    5    0  502 -0.37849376151E+02 -0.88134806205E+02  0.84357519291E+02  0.12782253479E+03  0.47000000000E+01 0.  1.
         11    1    6    6    0    0 -0.45965703336E+02  0.12086862740E+01  0.65498849064E+02  0.80027532977E+02  0.00000000000E+00 0. -1.
        -12    1    6    6    0    0  0.23037073187E+02  0.12979128026E+02  0.13637734095E+03  0.13891703866E+03  0.00000000000E+00 0.  1.
</event>
<event>
12    1  0.8462562E-002  0.2266375E+03  0.7818608E-02  0.1129050E+00
         21   -1    0    0  501  502  0.00000000000E+00  0.00000000000E+00  0.11471603865E+04  0.11471603865E+04  0.00000000000E+00 0. -1.
         21   -1    0    0  502  503 -0.00000000000E+00 -0.00000000000E+00 -0.96485223025E+02  0.96485223025E+02  0.00000000000E+00 0.  1.
         -6    2    1    2    0  503 -0.11054757710E+02  0.14822280980E+03  0.70076913945E+02  0.23722417286E+03  0.17109156995E+03 0.  0.
        -24    2    3    3    0    0 -0.14157940869E+02  0.14889384911E+02  0.62502184623E+02  0.10355705476E+03  0.79971241297E+02 0.  0.
          6    2    1    2  501    0  0.11054757710E+02 -0.14822280980E+03  0.98059824951E+03  0.10064214366E+04  0.17093557904E+03 0.  0.
         24    2    5    5    0    0 -0.22537605304E+02 -0.12507895653E+03  0.44915876089E+03  0.47339788664E+03  0.78798969338E+02 0.  0.
          5    1    5    5  501    0  0.33592363014E+02 -0.23143853270E+02  0.53143948862E+03  0.53302355001E+03  0.47000000000E+01 0. -1.
        -13    1    6    6    0    0 -0.12248697610E+02 -0.12228661379E+03  0.44547722081E+03  0.46211903311E+03  0.00000000000E+00 0.  1.
         14    1    6    6    0    0 -0.10288907694E+02 -0.27923427445E+01  0.36815400848E+01  0.11278853529E+02  0.00000000000E+00 0. -1.
         -5    1    3    3    0  503  0.31031831589E+01  0.13333342489E+03  0.75747293223E+01  0.13366711810E+03  0.47000000000E+01 0.  1.
         13    1    4    4    0    0 -0.41098747337E+02  0.29759417857E+02  0.46716560168E+02  0.68972218884E+02  0.00000000000E+00 0. -1.
        -14    1    4    4    0    0  0.26940806468E+02 -0.14870032946E+02  0.15785624455E+02  0.34584835873E+02  0.00000000000E+00 0.  1.
</event>
<event>
12    1  0.8462562E-002  0.2629723E+03  0.7818608E-02  0.1105715E+00
         21   -1    0    0  503  502  0.00000000000E+00  0.00000000000E+00  0.11939095199E+04  0.11939095199E+04  0.00000000000E+00 0.  1.
         21   -1    0    0  501  503 -0.00000000000E+00 -0.00000000000E+00 -0.60855906001E+02  0.60855906001E+02  0.00000000000E+00 0.  1.
          6    2    1    2  501    0  0.19641691000E+03 -0.34667234459E+01  0.41967231418E+03  0.49525678497E+03  0.17482222703E+03 0.  0.
         24    2    3    3    0    0  0.20956002841E+03 -0.24037929142E+02  0.31257060429E+03  0.38530778621E+03  0.79173732420E+02 0.  0.
         -6    2    1    2    0  502 -0.19641691000E+03  0.34667234459E+01  0.71338129973E+03  0.75950864094E+03  0.17131513697E+03 0.  0.
        -24    2    5    5    0    0 -0.19516758033E+03  0.17000522613E+02  0.71432589355E+03  0.74509660424E+03  0.80796443438E+02 0.  0.
          5    1    3    3  501    0 -0.13143118414E+02  0.20571205696E+02  0.10710170989E+03  0.10994899876E+03  0.47000000000E+01 0. -1.
        -11    1    4    4    0    0  0.46292466390E+02  0.24356847582E+02  0.50070969607E+02  0.72410983048E+02  0.00000000000E+00 0.  1.
         12    1    4    4    0    0  0.16326756202E+03 -0.48394776724E+02  0.26249963468E+03  0.31289680316E+03  0.00000000000E+00 0. -1.
         -5    1    5    5    0  502 -0.12493296703E+01 -0.13533799167E+02 -0.94459381668E+00  0.14412036706E+02  0.47000000000E+01 0.  1.
         13    1    6    6    0    0 -0.16726798257E-01  0.11428132037E+02  0.14024475538E+02  0.18091113724E+02  0.00000000000E+00 0. -1.
        -14    1    6    6    0    0 -0.19515085353E+03  0.55723905763E+01  0.70030141801E+03  0.72700549051E+03  0.00000000000E+00 0.  1.
</event>
<event>
12    1  0.8462562E-002  0.1957100E+03  0.7818608E-02  0.1157383E+00
         21   -1    0    0  503  502  0.00000000000E+00  0.00000000000E+00  0.10518958211E+04  0.10518958211E+04  0.00000000000E+00 0. -1.
         21   -1    0    0  501  503 -0.00000000000E+00 -0.00000000000E+00 -0.48074341809E+02  0.48074341809E+02  0.00000000000E+00 0.  1.
          6    2    1    2  501    0 -0.25936044000E+02  0.89384344299E+02  0.18049247689E+03  0.25370009023E+03  0.15206565091E+03 0.  0.
         24    2    3    3    0    0 -0.56542596278E+02  0.16935138860E+02  0.93089169328E+02  0.13602648833E+03  0.79710400577E+02 0.  0.
         -6    2    1    2    0  502  0.25936044000E+02 -0.89384344299E+02  0.82332900236E+03  0.84627007264E+03  0.17216315032E+03 0.  0.
        -24    2    5    5    0    0 -0.36259409379E+02 -0.11902688973E+02  0.51295116331E+03  0.52034343318E+03  0.78625528550E+02 0.  0.
          5    1    3    3  501    0  0.30606552278E+02  0.72449205438E+02  0.87403307561E+02  0.11767360190E+03  0.47000000000E+01 0. -1.
        -11    1    4    4    0    0 -0.74199362708E+02  0.23180099357E+02  0.60760078675E+02  0.98664327866E+02  0.00000000000E+00 0.  1.
         12    1    4    4    0    0  0.17656766430E+02 -0.62449604972E+01  0.32329090653E+02  0.37362160468E+02  0.00000000000E+00 0. -1.
         -5    1    5    5    0  502  0.62195453379E+02 -0.77481655326E+02  0.31037783905E+03  0.32592663946E+03  0.47000000000E+01 0.  1.
         11    1    6    6    0    0  0.24012980657E+02 -0.62467181218E+01  0.20520275109E+03  0.20669739665E+03  0.00000000000E+00 0. -1.
        -12    1    6    6    0    0 -0.60272390036E+02 -0.56559708509E+01  0.30774841223E+03  0.31364603654E+03  0.00000000000E+00 0.  1.
</event>
<event>
12    1  0.8462562E-002  0.4769062E+03  0.7818608E-02  0.1020002E+00
         21   -1    0    0  503  502  0.00000000000E+00  0.00000000000E+00  0.92474451221E+03  0.92474451221E+03  0.00000000000E+00 0.  1.
         21   -1    0    0  501  503 -0.00000000000E+00 -0.00000000000E+00 -0.32407907795E+03  0.32407907795E+03  0.00000000000E+00 0. -1.
          6    2    1    2  501    0  0.26463785012E+03 -0.35755087858E+03  0.60706513251E+03  0.77187446313E+03  0.17142429591E+03 0.  0.
         24    2    3    3    0    0  0.18996577274E+03 -0.29183878370E+03  0.55293410378E+03  0.65853313428E+03  0.81687791843E+02 0.  0.
         -6    2    1    2    0  502 -0.26463785012E+03  0.35755087858E+03 -0.63996982472E+01  0.47694912704E+03  0.17194095251E+03 0.  0.
        -24    2    5    5    0    0 -0.22907173390E+03  0.22453491435E+03 -0.45495998617E+02  0.33374016759E+03  0.80142538874E+02 0.  0.
          5    1    3    3  501    0  0.74672077382E+02 -0.65712094880E+02  0.54131028733E+02  0.11334132885E+03  0.47000000000E+01 0. -1.
        -13    1    4    4    0    0  0.12823619109E+03 -0.19292258133E+03  0.29197467433E+03  0.37271014681E+03  0.00000000000E+00 0.  1.
         14    1    4    4    0    0  0.61729581653E+02 -0.98916202376E+02  0.26095942945E+03  0.28582298746E+03  0.00000000000E+00 0. -1.
         -5    1    5    5    0  502 -0.35566116225E+02  0.13301596423E+03  0.39096300370E+02  0.14320895945E+03  0.47000000000E+01 0.  1.
         11    1    6    6    0    0 -0.11886748149E+03  0.14408923452E+03 -0.60810652126E+02  0.19644113895E+03  0.00000000000E+00 0. -1.
        -12    1    6    6    0    0 -0.11020425241E+03  0.80445679827E+02  0.15314653509E+02  0.13729902863E+03  0.00000000000E+00 0.  1.
</event>
<event>
12    1  0.8462562E-002  0.2733629E+03  0.7818608E-02  0.1099413E+00
         21   -1    0    0  501  502  0.00000000000E+00  0.00000000000E+00  0.13835877366E+03  0.13835877366E+03  0.00000000000E+00 0.  1.
         21   -1    0    0  502  503 -0.00000000000E+00 -0.00000000000E+00 -0.90513133088E+03  0.90513133088E+03  0.00000000000E+00 0. -1.
         -6    2    1    2    0  503 -0.10176177191E+03  0.18743332464E+03 -0.71486862081E+03  0.76524325550E+03  0.17050919524E+03 0.  0.
        -24    2    3    3    0    0 -0.12096306435E+03  0.90608456685E+02 -0.40261112496E+03  0.43772138081E+03  0.81623121228E+02 0.  0.
          6    2    1    2  501    0  0.10176177191E+03 -0.18743332464E+03 -0.51903936419E+02  0.27824684905E+03  0.17099877479E+03 0.  0.
         24    2    5    5    0    0  0.13186970963E+03 -0.10879295937E+03 -0.29671427943E+02  0.19102776056E+03  0.79910470790E+02 0.  0.
          5    1    5    5  501    0 -0.30107937719E+02 -0.78640365267E+02 -0.22232508476E+02  0.87219088485E+02  0.47000000000E+01 0. -1.
        -13    1    6    6    0    0  0.33876465399E+01 -0.39519673768E+02  0.75794743925E+01  0.40382288145E+02  0.00000000000E+00 0.  1.
         14    1    6    6    0    0  0.12848206309E+03 -0.69273285603E+02 -0.37250902335E+02  0.15064547242E+03  0.00000000000E+00 0. -1.
         -5    1    3    3    0  503  0.19201292431E+02  0.96824867954E+02 -0.31225749585E+03  0.32752187469E+03  0.47000000000E+01 0.  1.
         13    1    4    4    0    0 -0.21080272578E+02  0.33756073802E+02 -0.20745707282E+03  0.21123988135E+03  0.00000000000E+00 0. -1.
        -14    1    4    4    0    0 -0.99882791768E+02  0.56852382883E+02 -0.19515405214E+03  0.22648149946E+03  0.00000000000E+00 0.  1.
</event>
<event>
12    1  0.8462562E-002  0.2133126E+03  0.7818608E-02  0.1139851E+00
         21   -1    0    0  501  502  0.00000000000E+00  0.00000000000E+00  0.37361885389E+03  0.37361885389E+03  0.00000000000E+00 0.  1.
         21   -1    0    0  502  503 -0.00000000000E+00 -0.00000000000E+00 -0.12070710516E+03  0.12070710516E+03  0.00000000000E+00 0. -1.
         -6    2    1    2    0  503  0.11558509745E+03  0.47867859118E+02  0.15506319607E+03  0.26371738464E+03  0.17277447004E+03 0.  0.
        -24    2    3    3    0    0  0.86425828746E+02  0.94434347886E+02  0.82907052218E+02  0.17290273867E+03  0.81452487967E+02 0.  0.
          6    2    1    2  501    0 -0.11558509745E+03 -0.47867859118E+02  0.97848552657E+02  0.23060857441E+03  0.16719667654E+03 0.  0.
         24    2    5    5    0    0 -0.24168378993E+02  0.22652519558E+02  0.20187794807E+02  0.91384210412E+02  0.82742248386E+02 0.  0.
          5    1    5    5  501    0 -0.91416718457E+02 -0.70520378676E+02  0.77660757849E+02  0.13922436400E+03  0.47000000000E+01 0. -1.
        -13    1    6    6    0    0  0.29164253890E+01  0.79593210691E+01  0.48682426725E+02  0.49414926902E+02  0.00000000000E+00 0.  1.
         14    1    6    6    0    0 -0.27084804382E+02  0.14693198489E+02 -0.28494631917E+02  0.41969283510E+02  0.00000000000E+00 0. -1.
         -5    1    3    3    0  503  0.29159268705E+02 -0.46566488768E+02  0.72156143851E+02  0.90814645972E+02  0.47000000000E+01 0.  1.
         11    1    4    4    0    0  0.82263088064E+01  0.30953204643E+02 -0.12296551417E+02  0.34307116040E+02  0.00000000000E+00 0. -1.
        -12    1    4    4    0    0  0.78199519939E+02  0.63481143244E+02  0.95203603635E+02  0.13859562263E+03  0.00000000000E+00 0.  1.
</event>
<event>
12    1  0.8462562E-002  0.1872139E+03  0.7818608E-02  0.1161534E+00
         21   -1    0    0  501  502  0.00000000000E+00  0.00000000000E+00  0.87269315227E+03  0.87269315227E+03  0.00000000000E+00 0.  1.
         21   -1    0    0  502  503 -0.00000000000E+00 -0.00000000000E+00 -0.83845034141E+02  0.83845034141E+02  0.00000000000E+00 0.  1.
         -6    2    1    2    0  503  0.69368414567E+02  0.15065281356E+02  0.46102541304E+02  0.19056167162E+03  0.17073185623E+03 0.  0.
        -24    2    3    3    0    0 -0.28256571035E+02  0.12976639711E+02  0.30675683025E+02  0.91591584247E+02  0.80505861843E+02 0.  0.
          6    2    1    2  501    0 -0.69368414567E+02 -0.15065281356E+02  0.74274557682E+03  0.76597651479E+03  0.17323420471E+03 0.  0.
         24    2    5    5    0    0 -0.10376098195E+03 -0.37520732303E+02  0.45082662674E+03  0.47114459761E+03  0.80984182144E+02 0.  0.
          5    1    5    5  501    0  0.34392567379E+02  0.22455450947E+02  0.29191895009E+03  0.29483191718E+03  0.47000000000E+01 0. -1.
        -11    1    6    6    0    0 -0.36601065465E+02  0.18385083171E+02  0.23070108115E+03  0.23430885198E+03  0.00000000000E+00 0.  1.
         12    1    6    6    0    0 -0.67159916482E+02 -0.55905815473E+02  0.22012554559E+03  0.23683574563E+03  0.00000000000E+00 0. -1.
         -5    1    3    3    0  503  0.97624985602E+02  0.20886416454E+01  0.15426858279E+02  0.98970087370E+02  0.47000000000E+01 0.  1.
         13    1    4    4    0    0  0.10670616493E+02  0.32847998089E+02  0.33074182150E+02  0.47820022581E+02  0.00000000000E+00 0. -1.
        -14    1    4    4    0    0 -0.38927187527E+02 -0.19871358379E+02 -0.23984991247E+01  0.43771561666E+02  0.00000000000E+00 0.  1.
</event>
<event>
12    1  0.8462562E-002  0.2277626E+03  0.7818608E-02  0.1128384E+00
         21   -1    0    0  501  502  0.00000000000E+00  0.00000000000E+00  0.32775743316E+02  0.32775743316E+02  0.00000000000E+00 0. -1.
         21   -1    0    0  502  503 -0.00000000000E+00 -0.00000000000E+00 -0.25955807215E+04  0.25955807215E+04  0.00000000000E+00 0.  1.
         -6    2    1    2    0  503  0.79968923873E+02  0.12414131694E+03 -0.21033094658E+04  0.21155095690E+04  0.17223220365E+03 0.  0.
        -24    2    3    3    0    0  0.34556434033E+02  0.14855785021E+03 -0.13851605766E+04  0.13954968063E+04  0.74013048652E+02 0.  0.
          6    2    1    2  501    0 -0.79968923873E+02 -0.12414131694E+03 -0.45949551233E+03  0.51284689583E+03  0.17340622063E+03 0.  0.
         24    2    5    5    0    0  0.19763817751E+02 -0.38227605970E+02 -0.13282720751E+03  0.16062245480E+03  0.79401181228E+02 0.  0.
          5    1    5    5  501    0 -0.99732741625E+02 -0.85913710967E+02 -0.32666830482E+03  0.35222444103E+03  0.47000000000E+01 0. -1.
        -11    1    6    6    0    0  0.17530220148E+02  0.52620833986E+01 -0.10989032929E+03  0.11140414091E+03  0.00000000000E+00 0.  1.
         12    1    6    6    0    0  0.22335976031E+01 -0.43489689368E+02 -0.22936878218E+02  0.49218313888E+02  0.00000000000E+00 0. -1.
         -5    1    3    3    0  503  0.45412489840E+02 -0.24416533274E+02 -0.71814888926E+03  0.72001276272E+03  0.47000000000E+01 0.  1.
         11    1    4    4    0    0 -0.17116720910E+02  0.75314771814E+02 -0.76553863528E+03  0.76942491452E+03  0.00000000000E+00 0. -1.
        -12    1    4    4    0    0  0.51673154943E+02  0.73243078396E+02 -0.61962194130E+03  0.62607189173E+03  0.00000000000E+00 0.  1.
</event>
<event>
12    1  0.8462562E-002  0.1860763E+03  0.7818608E-02  0.1162181E+00
         21   -1    0    0  503  502  0.00000000000E+00  0.00000000000E+00  0.44553655375E+02  0.44553655375E+02  0.00000000000E+00 0.  1.
         21   -1    0    0  501  503 -0.00000000000E+00 -0.00000000000E+00 -0.79546272191E+03  0.79546272191E+03  0.00000000000E+00 0. -1.
          6    2    1    2  501    0  0.12854560249E+02 -0.66530276245E+02 -0.30712381735E+03  0.35879942756E+03  0.17268605230E+03 0.  0.
         24    2    3    3    0    0  0.63627687147E+02 -0.84741302653E+02 -0.23262789464E+03  0.26670553853E+03  0.76069283996E+02 0.  0.
         -6    2    1    2    0  502 -0.12854560249E+02  0.66530276245E+02 -0.44378524918E+03  0.48121694972E+03  0.17329999402E+03 0.  0.
        -24    2    5    5    0    0  0.14379799221E+02 -0.25134623698E+02 -0.22706766334E+03  0.24429340460E+03  0.85328868874E+02 0.  0.
          5    1    3    3  501    0 -0.50773126898E+02  0.18211026408E+02 -0.74495922707E+02  0.92093889036E+02  0.47000000000E+01 0. -1.
        -13    1    4    4    0    0  0.38565517723E+02 -0.30634858729E+02 -0.35382997437E+02  0.60644457572E+02  0.00000000000E+00 0.  1.
         14    1    4    4    0    0  0.25062169424E+02 -0.54106443925E+02 -0.19724489721E+03  0.20606108095E+03  0.00000000000E+00 0. -1.
         -5    1    5    5    0  502 -0.27234359470E+02  0.91664899943E+02 -0.21671758585E+03  0.23692354512E+03  0.47000000000E+01 0.  1.
         11    1    6    6    0    0  0.16328338930E+02 -0.69320916567E+01 -0.22519362154E+03  0.22589120331E+03  0.00000000000E+00 0. -1.
        -12    1    6    6    0    0 -0.19485397092E+01 -0.18202532041E+02 -0.18740417903E+01  0.18402201291E+02  0.00000000000E+00 0.  1.
</event>
<event>
12    1  0.8462562E-002  0.1874830E+03  0.7818608E-02  0.1160905E+00
         21   -1    0    0  503  502  0.00000000000E+00  0.00000000000E+00  0.47423217909E+02  0.47423217909E+02  0.00000000000E+00 0. -1.
         21   -1    0    0  501  503 -0.00000000000E+00 -0.00000000000E+00 -0.17538301554E+04  0.17538301554E+04  0.00000000000E+00 0. -1.
          6    2    1    2  501    0  0.70447374722E+02  0.20243383710E+02 -0.15378018923E+04  0.15491074835E+04  0.17183337354E+03 0.  0.
         24    2    3    3    0    0 -0.22244518543E+02 -0.19210823554E+02 -0.64129202162E+03  0.64694316377E+03  0.80100722924E+02 0.  0.
         -6    2    1    2    0  502 -0.70447374722E+02 -0.20243383710E+02 -0.16860504515E+03  0.25214588977E+03  0.17256089155E+03 0.  0.
        -24    2    5    5    0    0  0.16865028759E+02 -0.29338682559E+02 -0.12574013961E+03  0.15434164452E+03  0.82858753519E+02 0.  0.
          5    1    3    3  501    0  0.92691893265E+02  0.39454207265E+02 -0.89650987068E+03  0.90216431972E+03  0.47000000000E+01 0. -1.
        -13    1    4    4    0    0 -0.25861394206E+02 -0.46112064515E+02 -0.51841632121E+03  0.52110518737E+03  0.00000000000E+00 0.  1.
         14    1    4    4    0    0  0.36168756633E+01  0.26901240960E+02 -0.12287570041E+03  0.12583797640E+03  0.00000000000E+00 0. -1.
         -5    1    5    5    0  502 -0.87312403481E+02  0.90952988487E+01 -0.42864905538E+02  0.97804245253E+02  0.47000000000E+01 0.  1.
         11    1    6    6    0    0  0.31723023808E+02 -0.10867703895E+02 -0.83160987919E+01  0.34548729739E+02  0.00000000000E+00 0. -1.
        -12    1    6    6    0    0 -0.14857995049E+02 -0.18470978664E+02 -0.11742404082E+03  0.11979291478E+03  0.00000000000E+00 0.  1.
</event>
<event>
12    1  0.8462562E-002  0.2097379E+03  0.7818608E-02  0.1141978E+00
         21   -1    0    0  501  502  0.00000000000E+00  0.00000000000E+00  0.62155829852E+03  0.62155829852E+03  0.00000000000E+00 0.  1.
         21   -1    0    0  502  503 -0.00000000000E+00 -0.00000000000E+00 -0.71914434485E+02  0.71914434485E+02  0.00000000000E+00 0.  1.
         -6    2    1    2    0  503 -0.14066046080E+02  0.11505970182E+03  0.32534050724E+03  0.38708708565E+03  0.17479524477E+03 0.  0.
        -24    2    3    3    0    0  0.12984055390E+02  0.16477063681E+02  0.58553996673E+02  0.10134703464E+03  0.80016070774E+02 0.  0.
          6    2    1    2  501    0  0.14066046080E+02 -0.11505970182E+03  0.22430335680E+03  0.30638564735E+03  0.17356146000E+03 0.  0.
         24    2    5    5    0    0 -0.37442528134E+02 -0.73942843859E+01  0.76573015827E+02  0.11640849354E+03  0.78936001038E+02 0.  0.
          5    1    5    5  501    0  0.51508574214E+02 -0.10766541744E+03  0.14773034097E+03  0.18997715382E+03  0.47000000000E+01 0. -1.
        -11    1    6    6    0    0  0.17614051414E+02  0.14072738877E+02  0.41305706842E+01  0.22920698089E+02  0.00000000000E+00 0.  1.
         12    1    6    6    0    0 -0.55056579548E+02 -0.21467023263E+02  0.72442445143E+02  0.93487795447E+02  0.00000000000E+00 0. -1.
         -5    1    3    3    0  503 -0.27050101470E+02  0.98582638140E+02  0.26678651056E+03  0.28574005101E+03  0.47000000000E+01 0.  1.
         13    1    4    4    0    0  0.45535972348E+02  0.20432630975E+02  0.34275850804E+02  0.60546272673E+02  0.00000000000E+00 0. -1.
        -14    1    4    4    0    0 -0.32551916958E+02 -0.39555672935E+01  0.24278145869E+02  0.40800761968E+02  0.00000000000E+00 0.  1.
</event>
<event>
12    1  0.8462562E-002  0.1847927E+03  0.7818608E-02  0.1163478E+00
         21   -1    0    0  503  502  0.00000000000E+00  0.00000000000E+00  0.14349081761E+03  0.14349081761E+03  0.00000000000E+00 0. -1.
         21   -1    0    0  501  503 -0.00000000000E+00 -0.00000000000E+00 -0.51452648018E+03  0.51452648018E+03  0.00000000000E+00 0.  1.
          6    2    1    2  501    0  0.64317018885E+02 -0.12309176884E+02 -0.42705053460E+03  0.46492145199E+03  0.17173119306E+03 0.  0.
         24    2    3    3    0    0  0.59139740661E+01 -0.30663721519E+02 -0.37077349390E+03  0.38163279573E+03  0.84825515558E+02 0.  0.
         -6    2    1    2    0  502 -0.64317018885E+02  0.12309176884E+02  0.56014872027E+02  0.19309584580E+03  0.17280088258E+03 0.  0.
        -24    2    5    5    0    0 -0.60443940868E+02 -0.10603522476E+02  0.10149955336E+03  0.14180316834E+03  0.77717916487E+02 0.  0.
          5    1    3    3  501    0  0.58403044819E+02  0.18354544635E+02 -0.56277040699E+02  0.83288656267E+02  0.47000000000E+01 0. -1.
        -13    1    4    4    0    0  0.40594437909E+02 -0.28115275275E+02 -0.14453645218E+03  0.15273887227E+03  0.00000000000E+00 0.  1.
         14    1    4    4    0    0 -0.34680463843E+02 -0.25484462437E+01 -0.22623704172E+03  0.22889392346E+03  0.00000000000E+00 0. -1.
         -5    1    5    5    0  502 -0.38730780164E+01  0.22912699359E+02 -0.45484681328E+02  0.51292677457E+02  0.47000000000E+01 0.  1.
         13    1    6    6    0    0  0.16778971640E+02 -0.12659483765E+02  0.29348928079E+02  0.36099252040E+02  0.00000000000E+00 0. -1.
        -14    1    6    6    0    0 -0.77222912508E+02  0.20559612892E+01  0.72150625276E+02  0.10570391630E+03  0.00000000000E+00 0.  1.
</event>
<event>
12    1  0.8462562E-002  0.2922686E+03  0.7818608E-02  0.1089300E+00
         21   -1    0    0  501  502  0.00000000000E+00  0.00000000000E+00  0.34660446879E+03  0.34660446879E+03  0.00000000000E+00 0. -1.
         21   -1    0    0  502  503 -0.00000000000E+00 -0.00000000000E+00 -0.28081670462E+03  0.28081670462E+03  0.00000000000E+00 0.  1.
         -6    2    1    2    0  503 -0.14956472706E+03 -0.18238181929E+03 -0.78139589395E+02  0.30253380774E+03  0.17259250796E+03 0.  0.
        -24    2    3    3    0    0 -0.14943570263E+03 -0.82688753659E+02 -0.73853117663E+02  0.20263792283E+03  0.80245782317E+02 0.  0.
          6    2    1    2  501    0  0.14956472706E+03  0.18238181929E+03  0.14392735357E+03  0.32488736568E+03  0.17089172504E+03 0.  0.
         24    2    5    5    0    0  0.15450774287E+03  0.18924070989E+03  0.93226762163E+02  0.27327227337E+03  0.79383986573E+02 0.  0.
          5    1    5    5  501    0 -0.49430158056E+01 -0.68588906061E+01  0.50700591402E+02  0.51615092310E+02  0.47000000000E+01 0. -1.
        -11    1    6    6    0    0  0.53093238350E+01  0.24340777012E+02 -0.11533731863E+02  0.27453402627E+02  0.00000000000E+00 0.  1.
         12    1    6    6    0    0  0.14919841903E+03  0.16489993288E+03  0.10476049403E+03  0.24581887075E+03  0.00000000000E+00 0. -1.
         -5    1    3    3    0  503 -0.12902443719E+00 -0.99693065627E+02 -0.42864717319E+01  0.99895884907E+02  0.47000000000E+01 0.  1.
         13    1    4    4    0    0 -0.48831948512E+02 -0.66320366320E+02 -0.11515530344E+02  0.83159831791E+02  0.00000000000E+00 0. -1.
        -14    1    4    4    0    0 -0.10060375411E+03 -0.16368387339E+02 -0.62337587318E+02  0.11947809104E+03  0.00000000000E+00 0.  1.
</event>
<event>
12    1  0.8462562E-002  0.1983443E+03  0.7818608E-02  0.1151537E+00
         21   -1    0    0  501  502  0.00000000000E+00  0.00000000000E+00  0.12600615138E+03  0.12600615138E+03  0.00000000000E+00 0.  1.
         21   -1    0    0  502  503 -0.00000000000E+00 -0.00000000000E+00 -0.33114477881E+03  0.33114477881E+03  0.00000000000E+00 0. -1.
         -6    2    1    2    0  503  0.88092242234E+02 -0.36148989524E+02 -0.16079513543E+03  0.25391016113E+03  0.17189619474E+03 0.  0.
        -24    2    3    3    0    0  0.65708998895E+02  0.17882328499E+02 -0.16557456987E+03  0.19504314233E+03  0.77391465772E+02 0.  0.
          6    2    1    2  501    0 -0.88092242234E+02  0.36148989524E+02 -0.44343492005E+02  0.20324076905E+03  0.17399273644E+03 0.  0.
         24    2    5    5    0    0 -0.32311861640E+02  0.76818817741E+02 -0.62930355763E+02  0.13159548106E+03  0.80074676383E+02 0.  0.
          5    1    5    5  501    0 -0.55780380593E+02 -0.40669828217E+02  0.18586863758E+02  0.71645287987E+02  0.47000000000E+01 0. -1.
        -11    1    6    6    0    0  0.24863648516E+02  0.36731618274E+02 -0.34533924501E+02  0.56213919450E+02  0.00000000000E+00 0.  1.
         12    1    6    6    0    0 -0.57175510156E+02  0.40087199467E+02 -0.28396431263E+02  0.75381561613E+02  0.00000000000E+00 0. -1.
         -5    1    3    3    0  503  0.22383243339E+02 -0.54031318023E+02  0.47794344399E+01  0.58867018807E+02  0.47000000000E+01 0.  1.
         13    1    4    4    0    0 -0.15480670806E+02  0.30137500222E+01 -0.92974701671E+01  0.18307834643E+02  0.00000000000E+00 0. -1.
        -14    1    4    4    0    0  0.81189669701E+02  0.14868578477E+02 -0.15627709970E+03  0.17673530768E+03  0.00000000000E+00 0.  1.
</event>
<event>
12    1  0.8462562E-002  0.2597115E+03  0.7818608E-02  0.1109452E+00
         21   -1    0    0  503  502  0.00000000000E+00  0.00000000000E+00  0.55135418976E+03  0.55135418976E+03  0.00000000000E+00 0.  1.
         21   -1    0    0  501  503 -0.00000000000E+00 -0.00000000000E+00 -0.13013499498E+03  0.13013499498E+03  0.00000000000E+00 0. -1.
          6    2    1    2  501    0 -0.12440325909E+03  0.12321991726E+03  0.10316986608E+03  0.27945317796E+03  0.19180912001E+03 0.  0.
         24    2    3    3    0    0 -0.15243959515E+03  0.75546795849E+02  0.12278328918E+03  0.22058434910E+03  0.68092366933E+02 0.  0.
         -6    2    1    2    0  502  0.12440325909E+03 -0.12321991726E+03  0.31804932870E+03  0.40203600679E+03  0.17267963513E+03 0.  0.
        -24    2    5    5    0    0  0.10762725010E+03 -0.13760370498E+03  0.32552184124E+03  0.37823986696E+03  0.81132750763E+02 0.  0.
          5    1    3    3  501    0  0.28036336061E+02  0.47673121410E+02 -0.19613423101E+02  0.58868828852E+02  0.47000000000E+01 0. -1.
        -11    1    4    4    0    0 -0.88246949900E+02  0.22683604910E+02  0.97996710045E+02  0.13381115528E+03  0.00000000000E+00 0.  1.
         12    1    4    4    0    0 -0.64192645252E+02  0.52863190939E+02  0.24786579135E+02  0.86773193821E+02  0.00000000000E+00 0. -1.
         -5    1    5    5    0  502  0.16776008992E+02  0.14383787726E+02 -0.74725125404E+01  0.23796139828E+02  0.47000000000E+01 0.  1.
         13    1    6    6    0    0 -0.88857105157E+01 -0.20742871642E+02  0.16630863270E+02  0.28032270483E+02  0.00000000000E+00 0. -1.
        -14    1    6    6    0    0  0.11651296062E+03 -0.11686083334E+03  0.30889097797E+03  0.35020759648E+03  0.00000000000E+00 0.  1.
</event>
<event>
12    1  0.8462562E-002  0.2728426E+03  0.7818608E-02  0.1100019E+00
         21   -1    0    0  501  502  0.00000000000E+00  0.00000000000E+00  0.66499802414E+02  0.66499802414E+02  0.00000000000E+00 0. -1.
         21   -1    0    0  502  503 -0.00000000000E+00 -0.00000000000E+00 -0.11206175628E+04  0.11206175628E+04  0.00000000000E+00 0. -1.
         -6    2    1    2    0  503 -0.13709203906E+03 -0.15833625913E+03 -0.58935475284E+03  0.64944755749E+03  0.17486711270E+03 0.  0.
        -24    2    3    3    0    0 -0.28946675392E+02 -0.88380347662E+01 -0.17296869821E+03  0.19398671915E+03  0.82441832648E+02 0.  0.
          6    2    1    2  501    0  0.13709203906E+03  0.15833625913E+03 -0.46476300758E+03  0.53766980776E+03  0.17093733013E+03 0.  0.
         24    2    5    5    0    0  0.49050879356E+01  0.91086008482E+02 -0.21013816456E+03  0.24296336578E+03  0.80947069610E+02 0.  0.
          5    1    5    5  501    0  0.13218695113E+03  0.67250250651E+02 -0.25462484302E+03  0.29470644198E+03  0.47000000000E+01 0. -1.
        -11    1    6    6    0    0  0.23471361543E+02  0.28509672348E+02 -0.14907556036E+03  0.15358134303E+03  0.00000000000E+00 0.  1.
         12    1    6    6    0    0 -0.18566273607E+02  0.62576336134E+02 -0.61062604200E+02  0.89382022753E+02  0.00000000000E+00 0. -1.
         -5    1    3    3    0  503 -0.10814536367E+03 -0.14949822437E+03 -0.41638605462E+03  0.45546083834E+03  0.47000000000E+01 0.  1.
         13    1    4    4    0    0 -0.34029368357E+02 -0.21091824180E+02 -0.17590166767E+03  0.18040027618E+03  0.00000000000E+00 0. -1.
        -14    1    4    4    0    0  0.50826929644E+01  0.12253789414E+02  0.29329694533E+01  0.13586442970E+02  0.00000000000E+00 0.  1.
</event>
<event>
12    1  0.8462562E-002  0.1866205E+03  0.7818608E-02  0.1161937E+00
         21   -1    0    0  503  502  0.00000000000E+00  0.00000000000E+00  0.71038313630E+02  0.71038313630E+02  0.00000000000E+00 0.  1.
         21   -1    0    0  501  503 -0.00000000000E+00 -0.00000000000E+00 -0.74469347963E+03  0.74469347963E+03  0.00000000000E+00 0.  1.
          6    2    1    2  501    0 -0.26233115859E+02 -0.65515602346E+02 -0.57829648061E+03  0.60766275027E+03  0.17276205619E+03 0.  0.
         24    2    3    3    0    0 -0.81243906609E+02 -0.52667408327E+02 -0.45277333156E+03  0.46993325402E+03  0.80368807412E+02 0.  0.
         -6    2    1    2    0  502  0.26233115859E+02  0.65515602346E+02 -0.95358685384E+02  0.20806904299E+03  0.17093559387E+03 0.  0.
        -24    2    5    5    0    0 -0.30636022292E+02  0.72933672809E+02 -0.22005054240E+02  0.11483829781E+03  0.80285277239E+02 0.  0.
          5    1    3    3  501    0  0.55010790751E+02 -0.12848194018E+02 -0.12552314905E+03  0.13772949625E+03  0.47000000000E+01 0. -1.
        -11    1    4    4    0    0 -0.10242676056E+02 -0.15686888525E+02 -0.26685722576E+03  0.26751405537E+03  0.00000000000E+00 0.  1.
         12    1    4    4    0    0 -0.71001230553E+02 -0.36980519802E+02 -0.18591610580E+03  0.20241919865E+03  0.00000000000E+00 0. -1.
         -5    1    5    5    0  502  0.56869138150E+02 -0.74180704637E+01 -0.73353631144E+02  0.93230745172E+02  0.47000000000E+01 0.  1.
         13    1    6    6    0    0 -0.15865411604E+02  0.59681316791E+02 -0.50734067231E+02  0.79921939648E+02  0.00000000000E+00 0. -1.
        -14    1    6    6    0    0 -0.14770610688E+02  0.13252356018E+02  0.28729012991E+02  0.34916358166E+02  0.00000000000E+00 0.  1.
</event>
<event>
12    1  0.8462562E-002  0.2061183E+03  0.7818608E-02  0.1144737E+00
         21   -1    0    0  503  502  0.00000000000E+00  0.00000000000E+00  0.68163608815E+02  0.68163608815E+02  0.00000000000E+00 0. -1.
         21   -1    0    0  501  503 -0.00000000000E+00 -0.00000000000E+00 -0.10033422039E+04  0.10033422039E+04  0.00000000000E+00 0. -1.
          6    2    1    2  501    0  0.43705477647E+02  0.10420288144E+03 -0.79792320702E+03  0.82411540542E+03  0.17238430285E+03 0.  0.
         24    2    3    3    0    0  0.59639276884E+02  0.12361441299E+03 -0.76968344487E+03  0.78603302522E+03  0.81227735299E+02 0.  0.
         -6    2    1    2    0  502 -0.43705477647E+02 -0.10420288144E+03 -0.13725538806E+03  0.24739040729E+03  0.17203070305E+03 0.  0.
        -24    2    5    5    0    0  0.20106721223E+02 -0.15965802521E+02 -0.82259433710E+02  0.12530673182E+03  0.90972388764E+02 0.  0.
          5    1    3    3  501    0 -0.15933799238E+02 -0.19411531551E+02 -0.28239762147E+02  0.38082380197E+02  0.47000000000E+01 0. -1.
        -11    1    4    4    0    0 -0.19557183035E+02  0.26146239052E+02 -0.12248901086E+03  0.12676619031E+03  0.00000000000E+00 0.  1.
         12    1    4    4    0    0  0.79196459919E+02  0.97468173941E+02 -0.64719443401E+03  0.65926683491E+03  0.00000000000E+00 0. -1.
         -5    1    5    5    0  502 -0.63812198870E+02 -0.88237078922E+02 -0.54995954353E+02  0.12208367547E+03  0.47000000000E+01 0.  1.
         13    1    6    6    0    0  0.13055947944E+02 -0.54145191482E+02 -0.47905374928E+02  0.73464852034E+02  0.00000000000E+00 0. -1.
        -14    1    6    6    0    0  0.70507732795E+01  0.38179388961E+02 -0.34354058783E+02  0.51841879790E+02  0.00000000000E+00 0.  1.
</event>
<event>
12    1  0.8462562E-002  0.1839307E+03  0.7818608E-02  0.1165111E+00
         21   -1    0    0  503  502  0.00000000000E+00  0.00000000000E+00  0.29833658301E+03  0.29833658301E+03  0.00000000000E+00 0. -1.
         21   -1    0    0  501  503 -0.00000000000E+00 -0.00000000000E+00 -0.13309190338E+03  0.13309190338E+03  0.00000000000E+00 0. -1.
          6    2    1    2  501    0  0.53259563027E+02  0.39251248790E+02 -0.67432732141E+01  0.17961437806E+03  0.16684906798E+03 0.  0.
         24    2    3    3    0    0 -0.17490919612E+02 -0.21875925791E+02 -0.15391804508E+02  0.85598159458E+02  0.79408115823E+02 0.  0.
         -6    2    1    2    0  502 -0.53259563027E+02 -0.39251248790E+02  0.17198795285E+03  0.25181410834E+03  0.17161948505E+03 0.  0.
        -24    2    5    5    0    0 -0.10205989647E+03 -0.25226036961E+02  0.11526641530E+03  0.17554090248E+03  0.80471650521E+02 0.  0.
          5    1    3    3  501    0  0.70750482639E+02  0.61127174582E+02  0.86485312934E+01  0.94016218598E+02  0.47000000000E+01 0. -1.
        -11    1    4    4    0    0 -0.61714087492E+01  0.28555241080E+02 -0.17161002052E+02  0.33881972648E+02  0.00000000000E+00 0.  1.
         12    1    4    4    0    0 -0.11319510862E+02 -0.50431166872E+02  0.17691975446E+01  0.51716186810E+02  0.00000000000E+00 0. -1.
         -5    1    5    5    0  502  0.48800333446E+02 -0.14025211829E+02  0.56721537546E+02  0.76273205864E+02  0.47000000000E+01 0.  1.
         13    1    6    6    0    0 -0.15003858788E+02 -0.46287557953E+01  0.76411040390E+02  0.78007616630E+02  0.00000000000E+00 0. -1.
        -14    1    6    6    0    0 -0.87056037685E+02 -0.20597281166E+02  0.38855374909E+02  0.97533285848E+02  0.00000000000E+00 0.  1.
</event>
<event>
12    1  0.8462562E-002  0.2203659E+03  0.7818608E-02  0.1133725E+00
         21   -1    0    0  501  502  0.00000000000E+00  0.00000000000E+00  0.15064017197E+03  0.15064017197E+03  0.00000000000E+00 0. -1.
         21   -1    0    0  502  503 -0.00000000000E+00 -0.00000000000E+00 -0.35915191700E+03  0.35915191700E+03  0.00000000000E+00 0. -1.
         -6    2    1    2    0  503 -0.53604196184E+02  0.12664976954E+03 -0.18695343990E+03  0.28898563849E+03  0.17218460032E+03 0.  0.
        -24    2    3    3    0    0 -0.59355813961E+02  0.10422590228E+03 -0.21074902495E+03  0.25545608738E+03  0.80352409449E+02 0.  0.
          6    2    1    2  501    0  0.53604196184E+02 -0.12664976954E+03 -0.21558305133E+02  0.22080645048E+03  0.17139764899E+03 0.  0.
         24    2    5    5    0    0 -0.34847052245E+02 -0.53191020683E+02 -0.27568451598E+02  0.10557614634E+03  0.79641078723E+02 0.  0.
          5    1    5    5  501    0  0.88451248429E+02 -0.73458748859E+02  0.60101464652E+01  0.11523030414E+03  0.47000000000E+01 0. -1.
        -11    1    6    6    0    0  0.20907950789E+01 -0.18012829417E+02 -0.47475110289E+02  0.50820463837E+02  0.00000000000E+00 0.  1.
         12    1    6    6    0    0 -0.36937847324E+02 -0.35178191266E+02  0.19906658691E+02  0.54755682499E+02  0.00000000000E+00 0. -1.
         -5    1    3    3    0  503  0.57516177762E+01  0.22423867260E+02  0.23795585045E+02  0.33529551109E+02  0.47000000000E+01 0.  1.
         13    1    4    4    0    0 -0.37000765411E+02  0.10901999476E+03 -0.19862129301E+03  0.22957533391E+03  0.00000000000E+00 0. -1.
        -14    1    4    4    0    0 -0.22355048550E+02 -0.47940924824E+01 -0.12127731933E+02  0.25880753471E+02  0.00000000000E+00 0.  1.
</event>
<event>
12    1  0.8462562E-002  0.2271886E+03  0.7818608E-02  0.1128993E+00
         21   -1    0    0  501  502  0.00000000000E+00  0.00000000000E+00  0.32457255805E+03  0.32457255805E+03  0.00000000000E+00 0.  1.
         21   -1    0    0  502  503 -0.00000000000E+00 -0.00000000000E+00 -0.15935762386E+03  0.15935762386E+03  0.00000000000E+00 0. -1.
         -6    2    1    2    0  503  0.13517583561E+02 -0.14683206361E+03  0.10744286237E+03  0.24951119941E+03  0.17020425960E+03 0.  0.
        -24    2    3    3    0    0  0.57002960839E+01 -0.88713100990E+02 -0.84631502193E+01  0.11952959474E+03  0.79455594160E+02 0.  0.
          6    2    1    2  501    0 -0.13517583561E+02  0.14683206361E+03  0.57772071821E+02  0.23441898250E+03  0.17283595431E+03 0.  0.
         24    2    5    5    0    0 -0.52818792842E+02  0.93844693187E+02 -0.14843580153E+02  0.13619795936E+03  0.82054256104E+02 0.  0.
          5    1    5    5  501    0  0.39301209281E+02  0.52987370426E+02  0.72615651974E+02  0.98221023143E+02  0.47000000000E+01 0. -1.
        -13    1    6    6    0    0 -0.35590922215E+02  0.10354971078E+03  0.30389925282E+01  0.10953762743E+03  0.00000000000E+00 0.  1.
         14    1    6    6    0    0 -0.17227870626E+02 -0.97050175949E+01 -0.17882572681E+02  0.26660331929E+02  0.00000000000E+00 0. -1.
         -5    1    3    3    0  503  0.78172874769E+01 -0.58118962623E+02  0.11590601259E+03  0.12998160467E+03  0.47000000000E+01 0.  1.
         13    1    4    4    0    0 -0.42491753059E+00 -0.16872424069E+02 -0.38025710710E+02  0.41603051857E+02  0.00000000000E+00 0. -1.
        -14    1    4    4    0    0  0.61252136145E+01 -0.71840676921E+02  0.29562560490E+02  0.77926542879E+02  0.00000000000E+00 0.  1.
</event>
<event>
12    1  0.8462562E-002  0.2149954E+03  0.7818608E-02  0.1138700E+00
         21   -1    0    0  503  502  0.00000000000E+00  0.00000000000E+00  0.14657712361E+03  0.14657712361E+03  0.00000000000E+00 0. -1.
         21   -1    0    0  501  503 -0.00000000000E+00 -0.00000000000E+00 -0.30830573545E+03  0.30830573545E+03  0.00000000000E+00 0. -1.
          6    2    1    2  501    0 -0.10309971924E+03 -0.76903114727E+02 -0.69278584070E+02  0.22085287281E+03  0.16562858466E+03 0.  0.
         24    2    3    3    0    0 -0.38867267619E+01  0.28222715392E+01 -0.51469893965E+02  0.92250405746E+02  0.76406253108E+02 0.  0.
         -6    2    1    2    0  502  0.10309971924E+03  0.76903114727E+02 -0.92450027774E+02  0.23402998625E+03  0.17227706077E+03 0.  0.
        -24    2    5    5    0    0  0.11360564344E+03  0.63919755197E+02 -0.13123538902E+02  0.15282823809E+03  0.78690950917E+02 0.  0.
          5    1    3    3  501    0 -0.99212992474E+02 -0.79725386266E+02 -0.17808690105E+02  0.12860246706E+03  0.47000000000E+01 0. -1.
        -11    1    4    4    0    0 -0.40890567983E+00 -0.13613186640E+02  0.16981172654E+02  0.21768010452E+02  0.00000000000E+00 0.  1.
         12    1    4    4    0    0 -0.34778210820E+01  0.16435458179E+02 -0.68451066619E+02  0.70482395294E+02  0.00000000000E+00 0. -1.
         -5    1    5    5    0  502 -0.10505924209E+02  0.12983359530E+02 -0.79326488873E+02  0.81201748165E+02  0.47000000000E+01 0.  1.
         13    1    6    6    0    0  0.88774748200E+02  0.80868321244E+02 -0.15349094572E+00  0.12008607271E+03  0.00000000000E+00 0. -1.
        -14    1    6    6    0    0  0.24830895244E+02 -0.16948566047E+02 -0.12970047956E+02  0.32742165378E+02  0.00000000000E+00 0.  1.
</event>
<event>
12    1  0.8462562E-002  0.1760509E+03  0.7818608E-02  0.1171771E+00
         21   -1    0    0  503  502  0.00000000000E+00  0.00000000000E+00  0.11598210954E+03  0.11598210954E+03  0.00000000000E+00 0. -1.
         21   -1    0    0  501  503 -0.00000000000E+00 -0.00000000000E+00 -0.32868522347E+03  0.32868522347E+03  0.00000000000E+00 0. -1.
          6    2    1    2  501    0 -0.34861260346E+02 -0.13034116858E+02 -0.20300599022E+03  0.26871055008E+03  0.17207188029E+03 0.  0.
         24    2    3    3    0    0 -0.46030804316E+02 -0.16600011823E+02 -0.33409105936E+02  0.98643894102E+02  0.78867319884E+02 0.  0.
         -6    2    1    2    0  502  0.34861260346E+02  0.13034116858E+02 -0.96971237143E+01  0.17595678293E+03  0.17170194983E+03 0.  0.
        -24    2    5    5    0    0  0.57880322101E+02 -0.46975956187E+02  0.17868554437E+01  0.11049642967E+03  0.81543828531E+02 0.  0.
          5    1    3    3  501    0  0.11169543970E+02  0.35658949646E+01 -0.16959688428E+03  0.17006665598E+03  0.47000000000E+01 0. -1.
        -13    1    4    4    0    0  0.15366022645E+02  0.16227506037E+02 -0.13984027703E+02  0.26362845728E+02  0.00000000000E+00 0.  1.
         14    1    4    4    0    0 -0.61396826961E+02 -0.32827517860E+02 -0.19425078233E+02  0.72281048374E+02  0.00000000000E+00 0. -1.
         -5    1    5    5    0  502 -0.23019061756E+02  0.60010073045E+02 -0.11483979158E+02  0.65460353255E+02  0.47000000000E+01 0.  1.
         13    1    6    6    0    0  0.35428462560E+02 -0.23843608165E+02  0.41363181179E+02  0.59452555596E+02  0.00000000000E+00 0. -1.
        -14    1    6    6    0    0  0.22451859542E+02 -0.23132348022E+02 -0.39576325735E+02  0.51043874075E+02  0.00000000000E+00 0.  1.
</event>
<event>
12    1  0.8462562E-002  0.2301232E+03  0.7818608E-02  0.1126636E+00
         21   -1    0    0  503  502  0.00000000000E+00  0.00000000000E+00  0.16256923476E+03  0.16256923476E+03  0.00000000000E+00 0. -1.
         21   -1    0    0  501  503 -0.00000000000E+00 -0.00000000000E+00 -0.32678951785E+03  0.32678951785E+03  0.00000000000E+00 0. -1.
          6    2    1    2  501    0 -0.14062461565E+03  0.61201849877E+02 -0.64495862656E+02  0.23899038079E+03  0.17156846113E+03 0.  0.
         24    2    3    3    0    0 -0.35439326431E+02 -0.84130714829E+01 -0.73634074965E+02  0.11243691672E+03  0.76768207065E+02 0.  0.
         -6    2    1    2    0  502  0.14062461565E+03 -0.61201849877E+02 -0.99724420426E+02  0.25036837182E+03  0.17093394228E+03 0.  0.
        -24    2    5    5    0    0  0.10287954538E+03  0.59950490706E+01 -0.11298666455E+03  0.17202240398E+03  0.78775501484E+02 0.  0.
          5    1    3    3  501    0 -0.10518528922E+03  0.69614921360E+02  0.91382123085E+01  0.12655346407E+03  0.47000000000E+01 0. -1.
        -11    1    4    4    0    0  0.10336881188E+02  0.20304064389E+02 -0.46912988013E+02  0.52152992126E+02  0.00000000000E+00 0.  1.
         12    1    4    4    0    0 -0.45776207619E+02 -0.28717135872E+02 -0.26721086952E+02  0.60283924595E+02  0.00000000000E+00 0. -1.
         -5    1    5    5    0  502  0.37745070268E+02 -0.67196898948E+02  0.13262244121E+02  0.78345967840E+02  0.47000000000E+01 0.  1.
         11    1    6    6    0    0  0.87563764195E+02  0.22583990611E+02 -0.46250576036E+02  0.10157049382E+03  0.00000000000E+00 0. -1.
        -12    1    6    6    0    0  0.15315781186E+02 -0.16588941541E+02 -0.66736088511E+02  0.70451910155E+02  0.00000000000E+00 0.  1.
</event>
<event>
12    1  0.8462562E-002  0.2637183E+03  0.7818608E-02  0.1104961E+00
         21   -1    0    0  503  502  0.00000000000E+00  0.00000000000E+00  0.17244407807E+03  0.17244407807E+03  0.00000000000E+00 0.  1.
         21   -1    0    0  501  503 -0.00000000000E+00 -0.00000000000E+00 -0.87073539767E+03  0.87073539767E+03  0.00000000000E+00 0. -1.
          6    2    1    2  501    0 -0.64611561947E+02 -0.18911308401E+03 -0.73150352349E+03  0.77758905817E+03  0.17207244413E+03 0.  0.
         24    2    3    3    0    0  0.40787695518E+01 -0.10484040286E+03 -0.23963489917E+03  0.27382613772E+03  0.80917997784E+02 0.  0.
         -6    2    1    2    0  502  0.64611561947E+02  0.18911308401E+03  0.33212203889E+02  0.26559041756E+03  0.17174634475E+03 0.  0.
        -24    2    5    5    0    0  0.23100808310E+02  0.19237769218E+03  0.57187316430E+02  0.21731313144E+03  0.80073617025E+02 0.  0.
          5    1    3    3  501    0 -0.68690331499E+02 -0.84272681142E+02 -0.49186862432E+03  0.50376292045E+03  0.47000000000E+01 0. -1.
        -13    1    4    4    0    0  0.34692756546E+01 -0.26936125405E+02 -0.63704497053E+01  0.27895758725E+02  0.00000000000E+00 0.  1.
         14    1    4    4    0    0  0.60949389711E+00 -0.77904277459E+02 -0.23326444946E+03  0.24593037899E+03  0.00000000000E+00 0. -1.
         -5    1    5    5    0  502  0.41510753637E+02 -0.32646081740E+01 -0.23975112541E+02  0.48277286123E+02  0.47000000000E+01 0.  1.
         13    1    6    6    0    0  0.34008776048E+02  0.68500170105E+02 -0.80199688628E+01  0.76897269479E+02  0.00000000000E+00 0. -1.
        -14    1    6    6    0    0 -0.10907967738E+02  0.12387752207E+03  0.65207285292E+02  0.14041586196E+03  0.00000000000E+00 0.  1.
</event>
<event>
12    1  0.8462562E-002  0.2062979E+03  0.7818608E-02  0.1144688E+00
         21   -1    0    0  503  502  0.00000000000E+00  0.00000000000E+00  0.12458115903E+03  0.12458115903E+03  0.00000000000E+00 0.  1.
         21   -1    0    0  501  503 -0.00000000000E+00 -0.00000000000E+00 -0.12006783384E+04  0.12006783384E+04  0.00000000000E+00 0.  1.
          6    2    1    2  501    0  0.50261635145E+02  0.99776994599E+02 -0.10986712267E+04  0.11177302124E+04  0.17251284820E+03 0.  0.
         24    2    3    3    0    0 -0.17125984102E+02  0.11010526882E+03 -0.72810605596E+03  0.74091673040E+03  0.80016892662E+02 0.  0.
         -6    2    1    2    0  502 -0.50261635145E+02 -0.99776994599E+02  0.22574047285E+02  0.20752928504E+03  0.17342761003E+03 0.  0.
        -24    2    5    5    0    0 -0.68956711742E+02 -0.10313953803E+03 -0.32271977905E+02  0.14929708548E+03  0.76520237684E+02 0.  0.
          5    1    3    3  501    0  0.67387619247E+02 -0.10328274219E+02 -0.37056517074E+03  0.37681348203E+03  0.47000000000E+01 0. -1.
        -13    1    4    4    0    0 -0.14052113191E+02  0.70435070257E+02 -0.64265651693E+03  0.64665752896E+03  0.00000000000E+00 0.  1.
         14    1    4    4    0    0 -0.30738709112E+01  0.39670198560E+02 -0.85449539032E+02  0.94259201444E+02  0.00000000000E+00 0. -1.
         -5    1    5    5    0  502  0.18695076597E+02  0.33625434270E+01  0.54846025191E+02  0.58232199568E+02  0.47000000000E+01 0.  1.
         11    1    6    6    0    0 -0.78785827535E+01 -0.13259915725E+02 -0.37453340987E+02  0.40504940222E+02  0.00000000000E+00 0. -1.
        -12    1    6    6    0    0 -0.61078128988E+02 -0.89879622300E+02  0.51813630818E+01  0.10879214525E+03  0.00000000000E+00 0.  1.
</event>
<event>
12    1  0.8462562E-002  0.1815091E+03  0.7818608E-02  0.1166566E+00
         21   -1    0    0  503  502  0.00000000000E+00  0.00000000000E+00  0.30174037808E+03  0.30174037808E+03  0.00000000000E+00 0. -1.
         21   -1    0    0  501  503 -0.00000000000E+00 -0.00000000000E+00 -0.10894346114E+03  0.10894346114E+03  0.00000000000E+00 0. -1.
          6    2    1    2  501    0 -0.35226313589E+02  0.50684154909E+02  0.10690656816E+03  0.20987866626E+03  0.16973586394E+03 0.  0.
         24    2    3    3    0    0  0.39242811669E+02  0.55717904235E+02  0.52541613683E+02  0.11741987802E+03  0.79889445264E+02 0.  0.
         -6    2    1    2    0  502  0.35226313589E+02 -0.50684154909E+02  0.85890348775E+02  0.20080517295E+03  0.17069208752E+03 0.  0.
        -24    2    5    5    0    0  0.25435619935E+02  0.66158309590E+01  0.10870161410E+03  0.13818257409E+03  0.81164295677E+02 0.  0.
          5    1    3    3  501    0 -0.74469125259E+02 -0.50337493267E+01  0.54364954479E+02  0.92458788249E+02  0.47000000000E+01 0. -1.
        -13    1    4    4    0    0  0.50479424411E+02  0.45673561411E+02  0.58155134244E+01  0.68323251512E+02  0.00000000000E+00 0.  1.
         14    1    4    4    0    0 -0.11236612741E+02  0.10044342825E+02  0.46726100258E+02  0.49096626503E+02  0.00000000000E+00 0. -1.
         -5    1    5    5    0  502  0.97906936545E+01 -0.57299985867E+02 -0.22811265325E+02  0.62622598863E+02  0.47000000000E+01 0.  1.
         13    1    6    6    0    0 -0.31341730207E+01  0.30100642090E+02  0.93361505743E+02  0.98143988350E+02  0.00000000000E+00 0. -1.
        -14    1    6    6    0    0  0.28569792955E+02 -0.23484811131E+02  0.15340108356E+02  0.40038585736E+02  0.00000000000E+00 0.  1.
</event>
<event>
12    1  0.8462562E-002  0.2149184E+03  0.7818608E-02  0.1138228E+00
         21   -1    0    0  503  502  0.00000000000E+00  0.00000000000E+00  0.96131683080E+03  0.96131683080E+03  0.00000000000E+00 0.  1.
         21   -1    0    0  501  503 -0.00000000000E+00 -0.00000000000E+00 -0.72140770959E+02  0.72140770959E+02  0.00000000000E+00 0.  1.
          6    2    1    2  501    0  0.11637157229E+03 -0.45125418062E+02  0.14067421163E+03  0.25471185372E+03  0.17178547207E+03 0.  0.
         24    2    3    3    0    0  0.11347525290E+03  0.27069332070E+02  0.90519434668E+02  0.16663199072E+03  0.77220920227E+02 0.  0.
         -6    2    1    2    0  502 -0.11637157229E+03  0.45125418062E+02  0.74850184821E+03  0.77874574804E+03  0.17496078739E+03 0.  0.
        -24    2    5    5    0    0 -0.11514367256E+03 -0.25633133286E+02  0.51950709559E+03  0.53901888878E+03  0.82089081088E+02 0.  0.
          5    1    3    3  501    0  0.28963193920E+01 -0.72194750131E+02  0.50154776962E+02  0.88079862992E+02  0.47000000000E+01 0. -1.
        -11    1    4    4    0    0  0.31446381280E+02  0.18357815881E+02 -0.88623145261E+01  0.37475657676E+02  0.00000000000E+00 0.  1.
         12    1    4    4    0    0  0.82028871621E+02  0.87115161887E+01  0.99381749194E+02  0.12915633305E+03  0.00000000000E+00 0. -1.
         -5    1    5    5    0  502 -0.12278997303E+01  0.70758551348E+02  0.22899475262E+03  0.23972685926E+03  0.47000000000E+01 0.  1.
         13    1    6    6    0    0 -0.16546596113E+02  0.24883325144E+02  0.71005937016E+02  0.77037736238E+02  0.00000000000E+00 0. -1.
        -14    1    6    6    0    0 -0.98597076448E+02 -0.50516458430E+02  0.44850115858E+03  0.46198115254E+03  0.00000000000E+00 0.  1.
</event>
<event>
12    1  0.8462562E-002  0.1802020E+03  0.7818608E-02  0.1167639E+00
         21   -1    0    0  501  502  0.00000000000E+00  0.00000000000E+00  0.49308406217E+03  0.49308406217E+03  0.00000000000E+00 0. -1.
         21   -1    0    0  502  503 -0.00000000000E+00 -0.00000000000E+00 -0.30813287462E+03  0.30813287462E+03  0.00000000000E+00 0. -1.
         -6    2    1    2    0  503 -0.35616355171E+02  0.41088580873E+02 -0.26277963955E+03  0.31863131654E+03  0.17180215564E+03 0.  0.
        -24    2    3    3    0    0 -0.12410559591E+01  0.90054596252E+02 -0.16856404141E+03  0.20692634445E+03  0.79330356371E+02 0.  0.
          6    2    1    2  501    0  0.35616355171E+02 -0.41088580873E+02  0.44773082710E+03  0.48258562025E+03  0.17166592877E+03 0.  0.
         24    2    5    5    0    0  0.47542793944E+02 -0.89381825955E+02  0.33643881103E+03  0.36059184867E+03  0.81154049158E+02 0.  0.
          5    1    5    5  501    0 -0.11926438773E+02  0.48293245082E+02  0.11129201607E+03  0.12199377158E+03  0.47000000000E+01 0. -1.
        -11    1    6    6    0    0 -0.10361561257E+02  0.78135092508E+01  0.15057309898E+02  0.19878014485E+02  0.00000000000E+00 0.  1.
         12    1    6    6    0    0  0.57904355201E+02 -0.97195335206E+02  0.32138150113E+03  0.34071383418E+03  0.00000000000E+00 0. -1.
         -5    1    3    3    0  503 -0.34375299212E+02 -0.48966015379E+02 -0.94215598138E+02  0.11170497209E+03  0.47000000000E+01 0.  1.
         11    1    4    4    0    0 -0.22396359472E+02  0.79974130897E+02 -0.16285119874E+03  0.18280582994E+03  0.00000000000E+00 0. -1.
        -12    1    4    4    0    0  0.21155303513E+02  0.10080465355E+02 -0.57128426765E+01  0.24120514504E+02  0.00000000000E+00 0.  1.
</event>
<event>
12    1  0.8462562E-002  0.2242244E+03  0.7818608E-02  0.1130936E+00
         21   -1    0    0  501  502  0.00000000000E+00  0.00000000000E+00  0.12253496301E+04  0.12253496301E+04  0.00000000000E+00 0.  1.
         21   -1    0    0  502  503 -0.00000000000E+00 -0.00000000000E+00 -0.56477470471E+02  0.56477470471E+02  0.00000000000E+00 0.  1.
         -6    2    1    2    0  503  0.93190341713E+02 -0.10953534904E+03  0.24832022839E+03  0.33457362919E+03  0.17202948888E+03 0.  0.
        -24    2    3    3    0    0  0.74061415322E+00 -0.30562573399E+02  0.16734883453E+03  0.18841581023E+03  0.80995467314E+02 0.  0.
          6    2    1    2  501    0 -0.93190341713E+02  0.10953534904E+03  0.92055193120E+03  0.94725347134E+03  0.17085329510E+03 0.  0.
         24    2    5    5    0    0 -0.28644992080E+02  0.10771657881E+03  0.41206290608E+03  0.43465949093E+03  0.81912377369E+02 0.  0.
          5    1    5    5  501    0 -0.64545349633E+02  0.18187702374E+01  0.50848902512E+03  0.51259398041E+03  0.47000000000E+01 0. -1.
        -11    1    6    6    0    0 -0.12751049830E+02  0.52539785758E+02  0.33061141082E+03  0.33500287062E+03  0.00000000000E+00 0.  1.
         12    1    6    6    0    0 -0.15893942250E+02  0.55176793048E+02  0.81451495263E+02  0.99656620312E+02  0.00000000000E+00 0. -1.
         -5    1    3    3    0  503  0.92449727560E+02 -0.78972775644E+02  0.80971393855E+02  0.14615781896E+03  0.47000000000E+01 0.  1.
         13    1    4    4    0    0 -0.22277889382E+02 -0.51085583002E+02  0.10710299173E+03  0.12073562848E+03  0.00000000000E+00 0. -1.
        -14    1    4    4    0    0  0.23018503535E+02  0.20523009603E+02  0.60245842801E+02  0.67680181759E+02  0.00000000000E+00 0.  1.
</event>
<event>
12    1  0.8462562E-002  0.2291259E+03  0.7818608E-02  0.1127455E+00
         21   -1    0    0  501  502  0.00000000000E+00  0.00000000000E+00  0.58515825771E+02  0.58515825771E+02  0.00000000000E+00 0. -1.
         21   -1    0    0  502  503 -0.00000000000E+00 -0.00000000000E+00 -0.89661690572E+03  0.89661690572E+03  0.00000000000E+00 0. -1.
         -6    2    1    2    0  503 -0.15163736229E+03  0.35601564826E+01 -0.38680184398E+03  0.44900066094E+03  0.17023325955E+03 0.  0.
        -24    2    3    3    0    0 -0.43891376148E+02 -0.35112280179E+02 -0.26150139950E+03  0.27921536630E+03  0.80118123534E+02 0.  0.
          6    2    1    2  501    0  0.15163736229E+03 -0.35601564826E+01 -0.45129923597E+03  0.50613207055E+03  0.17173266463E+03 0.  0.
         24    2    5    5    0    0  0.13774240988E+03  0.20123530870E+02 -0.21357343007E+03  0.26677953654E+03  0.78611596541E+02 0.  0.
          5    1    5    5  501    0  0.13894952417E+02 -0.23683687352E+02 -0.23772580590E+03  0.23935253401E+03  0.47000000000E+01 0. -1.
        -13    1    6    6    0    0  0.70301455888E+01 -0.16042160957E+02 -0.54070861621E+01  0.18330587987E+02  0.00000000000E+00 0.  1.
         14    1    6    6    0    0  0.13071226429E+03  0.36165691827E+02 -0.20816634391E+03  0.24844894855E+03  0.00000000000E+00 0. -1.
         -5    1    3    3    0  503 -0.10774598614E+03  0.38672436662E+02 -0.12530044448E+03  0.16978529463E+03  0.47000000000E+01 0.  1.
         11    1    4    4    0    0 -0.57981541362E+02 -0.62862612146E+01 -0.21463891629E+03  0.22242131328E+03  0.00000000000E+00 0. -1.
        -12    1    4    4    0    0  0.14090165214E+02 -0.28826018965E+02 -0.46862483217E+02  0.56794053019E+02  0.00000000000E+00 0.  1.
</event>
<event>
12    1  0.8462562E-002  0.1920216E+03  0.7818608E-02  0.1156733E+00
         21   -1    0    0  501  502  0.00000000000E+00  0.00000000000E+00  0.22491935273E+03  0.22491935273E+03  0.00000000000E+00 0. -1.
         21   -1    0    0  502  503 -0.00000000000E+00 -0.00000000000E+00 -0.17451731499E+03  0.17451731499E+03  0.00000000000E+00 0. -1.
         -6    2    1    2    0  503  0.40979940241E+01 -0.84316399595E+02 -0.24733865558E+02  0.19323848727E+03  0.17205609568E+03 0.  0.
        -24    2    3    3    0    0  0.29035880328E+02  0.13105037806E+02 -0.32608345952E+02  0.92258627493E+02  0.80209262301E+02 0.  0.
          6    2    1    2  501    0 -0.40979940241E+01  0.84316399595E+02  0.75135903304E+02  0.20619818045E+03  0.17247097396E+03 0.  0.
         24    2    5    5    0    0  0.40772377557E+02  0.37208942880E+02  0.97187700115E+02  0.13734446257E+03  0.79819547366E+02 0.  0.
          5    1    5    5  501    0 -0.44870371582E+02  0.47107456715E+02 -0.22051796811E+02  0.68853717885E+02  0.47000000000E+01 0. -1.
        -11    1    6    6    0    0 -0.23034784210E+02  0.13891762285E+00  0.27151380771E+02  0.35606432839E+02  0.00000000000E+00 0.  1.
         12    1    6    6    0    0  0.63807161768E+02  0.37070025257E+02  0.70036319344E+02  0.10173802973E+03  0.00000000000E+00 0. -1.
         -5    1    3    3    0  503 -0.24937886304E+02 -0.97421437401E+02  0.78744803937E+01  0.10097985977E+03  0.47000000000E+01 0.  1.
         13    1    4    4    0    0  0.17311463295E+02 -0.17639502058E+02 -0.49459145376E+02  0.55290558467E+02  0.00000000000E+00 0. -1.
        -14    1    4    4    0    0  0.11724417034E+02  0.30744539865E+02  0.16850799425E+02  0.36968069026E+02  0.00000000000E+00 0.  1.
</event>
<event>
12    1  0.8462562E-002  0.2028134E+03  0.7818608E-02  0.1147513E+00
         21   -1    0    0  501  502  0.00000000000E+00  0.00000000000E+00  0.15814442085E+03  0.15814442085E+03  0.00000000000E+00 0.  1.
         21   -1    0    0  502  503 -0.00000000000E+00 -0.00000000000E+00 -0.13900320699E+04  0.13900320699E+04  0.00000000000E+00 0.  1.
         -6    2    1    2    0  503 -0.40187474939E+02  0.99984669723E+02 -0.13139297251E+04  0.13293976235E+04  0.17109865996E+03 0.  0.
        -24    2    3    3    0    0  0.99984185749E+01 -0.47692553732E+01 -0.67959375360E+03  0.68449745795E+03  0.81033239126E+02 0.  0.
          6    2    1    2  501    0  0.40187474939E+02 -0.99984669723E+02  0.82042076047E+02  0.21877886728E+03  0.17181770341E+03 0.  0.
         24    2    5    5    0    0  0.68654007910E+02 -0.11875806158E+03  0.92429455610E+02  0.18282373698E+03  0.77874672037E+02 0.  0.
          5    1    5    5  501    0 -0.28466532970E+02  0.18773391858E+02 -0.10387379563E+02  0.35955130307E+02  0.47000000000E+01 0. -1.
        -13    1    6    6    0    0  0.44428703550E+02 -0.93233170572E+01  0.21975012984E+02  0.50435455145E+02  0.00000000000E+00 0.  1.
         14    1    6    6    0    0  0.24225304360E+02 -0.10943474452E+03  0.70454442626E+02  0.13238828183E+03  0.00000000000E+00 0. -1.
         -5    1    3    3    0  503 -0.50185893514E+02  0.10475392510E+03 -0.63433597152E+03  0.64490016553E+03  0.47000000000E+01 0.  1.
         11    1    4    4    0    0  0.34555579449E+01  0.25425316035E+02 -0.78023448962E+02  0.82134317822E+02  0.00000000000E+00 0. -1.
        -12    1    4    4    0    0  0.65428606299E+01 -0.30194571409E+02 -0.60157030464E+03  0.60236314013E+03  0.00000000000E+00 0.  1.
</event>
<event>
12    1  0.8462562E-002  0.2157870E+03  0.7818608E-02  0.1137191E+00
         21   -1    0    0  503  502  0.00000000000E+00  0.00000000000E+00  0.36042369364E+03  0.36042369364E+03  0.00000000000E+00 0. -1.
         21   -1    0    0  501  503 -0.00000000000E+00 -0.00000000000E+00 -0.12915493155E+03  0.12915493155E+03  0.00000000000E+00 0.  1.
          6    2    1    2  501    0  0.76064543485E+02 -0.10525379677E+03  0.10285032969E+03  0.23904440442E+03  0.17233647454E+03 0.  0.
         24    2    3    3    0    0  0.95315701906E+02 -0.17931326301E+02  0.47778120600E+02  0.13392133766E+03  0.79028857901E+02 0.  0.
         -6    2    1    2    0  502 -0.76064543485E+02  0.10525379677E+03  0.12841843240E+03  0.25053422077E+03  0.17149905390E+03 0.  0.
        -24    2    5    5    0    0 -0.85043634281E+02  0.15841607225E+02  0.91503789406E+02  0.15327197436E+03  0.87384085490E+02 0.  0.
          5    1    3    3  501    0 -0.19251158420E+02 -0.87322470469E+02  0.55072209092E+02  0.10512306675E+03  0.47000000000E+01 0. -1.
        -11    1    4    4    0    0  0.41519288784E+02  0.31448262641E+02  0.19721465151E+02  0.55693632957E+02  0.00000000000E+00 0.  1.
         12    1    4    4    0    0  0.53796413122E+02 -0.49379588942E+02  0.28056655449E+02  0.78227704708E+02  0.00000000000E+00 0. -1.
         -5    1    5    5    0  502  0.89790907957E+01  0.89412189544E+02  0.36914642989E+02  0.97262246415E+02  0.47000000000E+01 0.  1.
         13    1    6    6    0    0  0.12016762860E+02  0.20449668744E+02  0.76470536457E+01  0.24921255402E+02  0.00000000000E+00 0. -1.
        -14    1    6    6    0    0 -0.97060397141E+02 -0.46080615186E+01  0.83856735760E+02  0.12835071896E+03  0.00000000000E+00 0.  1.
</event>
<event>
12    1  0.8462562E-002  0.3564243E+03  0.7818608E-02  0.1060115E+00
         21   -1    0    0  501  502  0.00000000000E+00  0.00000000000E+00  0.23421015008E+04  0.23421015008E+04  0.00000000000E+00 0. -1.
         21   -1    0    0  502  503 -0.00000000000E+00 -0.00000000000E+00 -0.70057662351E+02  0.70057662351E+02  0.00000000000E+00 0. -1.
         -6    2    1    2    0  503  0.31199869411E+03 -0.54067205216E+01  0.55872680661E+03  0.66216101745E+03  0.17002691216E+03 0.  0.
        -24    2    3    3    0    0  0.32078176911E+03 -0.19703708689E+02  0.55108508731E+03  0.64313387497E+03  0.81469185293E+02 0.  0.
          6    2    1    2  501    0 -0.31199869411E+03  0.54067205216E+01  0.17133170318E+04  0.17499981457E+04  0.17223774441E+03 0.  0.
         24    2    5    5    0    0 -0.17634749332E+03 -0.14626569657E+02  0.13216635571E+04  0.13350076455E+04  0.64331022026E+02 0.  0.
          5    1    5    5  501    0 -0.13565120079E+03  0.20033290179E+02  0.39165347472E+03  0.41499050019E+03  0.47000000000E+01 0. -1.
        -13    1    6    6    0    0 -0.84353893542E+02 -0.38980255107E+02  0.62250485140E+03  0.62940235911E+03  0.00000000000E+00 0.  1.
         14    1    6    6    0    0 -0.91993599779E+02  0.24353685450E+02  0.69915870568E+03  0.70560528635E+03  0.00000000000E+00 0. -1.
         -5    1    3    3    0  503 -0.87830749982E+01  0.14296988168E+02  0.76417192931E+01  0.19027142477E+02  0.47000000000E+01 0.  1.
         11    1    4    4    0    0  0.17464186779E+03  0.28202518112E+02  0.27167247535E+03  0.32419299480E+03  0.00000000000E+00 0. -1.
        -12    1    4    4    0    0  0.14613990131E+03 -0.47906226802E+02  0.27941261196E+03  0.31894088018E+03  0.00000000000E+00 0.  1.
</event>
<event>
12    1  0.8462562E-002  0.2019039E+03  0.7818608E-02  0.1148227E+00
         21   -1    0    0  501  502  0.00000000000E+00  0.00000000000E+00  0.54522608949E+03  0.54522608949E+03  0.00000000000E+00 0.  1.
         21   -1    0    0  502  503 -0.00000000000E+00 -0.00000000000E+00 -0.31814515183E+03  0.31814515183E+03  0.00000000000E+00 0.  1.
         -6    2    1    2    0  503 -0.57577088483E+02  0.84188904782E+02 -0.26411730468E+03  0.33245021279E+03  0.17424781361E+03 0.  0.
        -24    2    3    3    0    0 -0.59179561922E+02  0.96281093696E+02 -0.10947438048E+03  0.17725577682E+03  0.81625369099E+02 0.  0.
          6    2    1    2  501    0  0.57577088483E+02 -0.84188904782E+02  0.49119824234E+03  0.53092102852E+03  0.17377724951E+03 0.  0.
         24    2    5    5    0    0  0.10562052556E+01 -0.10014532603E+03  0.23620102884E+03  0.26920575096E+03  0.81551262577E+02 0.  0.
          5    1    5    5  501    0  0.56520883227E+02  0.15956421251E+02  0.25499721350E+03  0.26171527757E+03  0.47000000000E+01 0. -1.
        -11    1    6    6    0    0  0.32233495732E+02 -0.28786726393E+02  0.43285877405E+02  0.61166502648E+02  0.00000000000E+00 0.  1.
         12    1    6    6    0    0 -0.31177290476E+02 -0.71358599640E+02  0.19291515143E+03  0.20803924831E+03  0.00000000000E+00 0. -1.
         -5    1    3    3    0  503  0.16024734394E+01 -0.12092188914E+02 -0.15464292420E+03  0.15519443598E+03  0.47000000000E+01 0.  1.
         11    1    4    4    0    0 -0.54418892493E+02  0.37323464418E+02 -0.18131516301E+02  0.68433973579E+02  0.00000000000E+00 0. -1.
        -12    1    4    4    0    0 -0.47606694286E+01  0.58957629278E+02 -0.91342864178E+02  0.10882180324E+03  0.00000000000E+00 0.  1.
</event>
<event>
12    1  0.8462562E-002  0.2068050E+03  0.7818608E-02  0.1146757E+00
         21   -1    0    0  503  502  0.00000000000E+00  0.00000000000E+00  0.92002569320E+02  0.92002569320E+02  0.00000000000E+00 0. -1.
         21   -1    0    0  501  503 -0.00000000000E+00 -0.00000000000E+00 -0.47178614556E+03  0.47178614556E+03  0.00000000000E+00 0.  1.
          6    2    1    2  501    0 -0.43708619949E+02  0.10533427896E+03 -0.10776508316E+03  0.22208362187E+03  0.15716891605E+03 0.  0.
         24    2    3    3    0    0 -0.79746131641E+02  0.50303992208E+02 -0.94344961756E+02  0.15478410948E+03  0.78531596164E+02 0.  0.
         -6    2    1    2    0  502  0.43708619949E+02 -0.10533427896E+03 -0.27201849308E+03  0.34170509301E+03  0.17251827796E+03 0.  0.
        -24    2    5    5    0    0  0.65268185809E+02 -0.12629214433E+03 -0.26393747570E+03  0.31021795527E+03  0.79765574646E+02 0.  0.
          5    1    3    3  501    0  0.36037511692E+02  0.55030286750E+02 -0.13420121404E+02  0.67299512385E+02  0.47000000000E+01 0. -1.
        -11    1    4    4    0    0 -0.34653746605E+02  0.58777628307E+02 -0.27186919311E+02  0.73449440602E+02  0.00000000000E+00 0.  1.
         12    1    4    4    0    0 -0.45092385037E+02 -0.84736360986E+01 -0.67158042446E+02  0.81334668882E+02  0.00000000000E+00 0. -1.
         -5    1    5    5    0  502 -0.21559565860E+02  0.20957865370E+02 -0.80810173816E+01  0.31487137737E+02  0.47000000000E+01 0.  1.
         13    1    6    6    0    0 -0.18101988960E+02 -0.30829646631E+02 -0.68769532098E+02  0.77507403909E+02  0.00000000000E+00 0. -1.
        -14    1    6    6    0    0  0.83370174769E+02 -0.95462497697E+02 -0.19516794360E+03  0.23271055136E+03  0.00000000000E+00 0.  1.
</event>
<event>
12    1  0.8462562E-002  0.2061279E+03  0.7818608E-02  0.1144989E+00
         21   -1    0    0  501  502  0.00000000000E+00  0.00000000000E+00  0.21647746179E+03  0.21647746179E+03  0.00000000000E+00 0.  1.
         21   -1    0    0  502  503 -0.00000000000E+00 -0.00000000000E+00 -0.20994253551E+03  0.20994253551E+03  0.00000000000E+00 0.  1.
         -6    2    1    2    0  503 -0.54048685452E+02 -0.97561621504E+02 -0.54038841908E+02  0.21157614674E+03  0.17147810077E+03 0.  0.
        -24    2    3    3    0    0 -0.57006289640E+02 -0.10152948603E+03  0.17071248939E+02  0.14013927676E+03  0.76089656054E+02 0.  0.
          6    2    1    2  501    0  0.54048685452E+02  0.97561621504E+02  0.60573768198E+02  0.21484385056E+03  0.17334695942E+03 0.  0.
         24    2    5    5    0    0  0.24847944200E+02 -0.11342540400E+02  0.57539574691E+02  0.10195409859E+03  0.79610062244E+02 0.  0.
          5    1    5    5  501    0  0.29200741252E+02  0.10890416190E+03  0.30341935071E+01  0.11288975197E+03  0.47000000000E+01 0. -1.
        -11    1    6    6    0    0  0.57005815367E+01  0.26282386743E+02 -0.41400670592E+01  0.27210303895E+02  0.00000000000E+00 0.  1.
         12    1    6    6    0    0  0.19147362663E+02 -0.37624927143E+02  0.61679641750E+02  0.74743794698E+02  0.00000000000E+00 0. -1.
         -5    1    3    3    0  503  0.29576041881E+01  0.39678645291E+01 -0.71110090848E+02  0.71436869975E+02  0.47000000000E+01 0.  1.
         13    1    4    4    0    0 -0.44084676887E+02 -0.25925617703E+02 -0.20044610519E+02  0.54930709083E+02  0.00000000000E+00 0. -1.
        -14    1    4    4    0    0 -0.12921612753E+02 -0.75603868331E+02  0.37115859458E+02  0.85208567680E+02  0.00000000000E+00 0.  1.
</event>
<event>
12    1  0.8462562E-002  0.2582434E+03  0.7818608E-02  0.1109219E+00
         21   -1    0    0  501  502  0.00000000000E+00  0.00000000000E+00  0.56179901011E+03  0.56179901011E+03  0.00000000000E+00 0. -1.
         21   -1    0    0  502  503 -0.00000000000E+00 -0.00000000000E+00 -0.18444849546E+03  0.18444849546E+03  0.00000000000E+00 0. -1.
         -6    2    1    2    0  503 -0.15913621427E+02 -0.18579481927E+03 -0.40662361317E+02  0.25489789199E+03  0.16895724163E+03 0.  0.
        -24    2    3    3    0    0  0.75264695530E+01 -0.20360683791E+03 -0.21959567216E+02  0.21970427921E+03  0.79217141577E+02 0.  0.
          6    2    1    2  501    0  0.15913621427E+02  0.18579481927E+03  0.41801287596E+03  0.49134961358E+03  0.17865251212E+03 0.  0.
         24    2    5    5    0    0 -0.16801618934E+02  0.12255239554E+03  0.38533540140E+03  0.41286523008E+03  0.81688081042E+02 0.  0.
          5    1    5    5  501    0  0.32715240361E+02  0.63242423724E+02  0.32677474561E+02  0.78484383504E+02  0.47000000000E+01 0. -1.
        -13    1    6    6    0    0  0.30547435889E+02  0.38840351671E+02  0.96111842735E+02  0.10807037092E+03  0.00000000000E+00 0.  1.
         14    1    6    6    0    0 -0.47349054823E+02  0.83712043873E+02  0.28922355867E+03  0.30479485916E+03  0.00000000000E+00 0. -1.
         -5    1    3    3    0  503 -0.23440090980E+02  0.17812018646E+02 -0.18702794101E+02  0.35193612781E+02  0.47000000000E+01 0.  1.
         13    1    4    4    0    0 -0.17355586767E+02 -0.40412421280E+02 -0.31888652807E+02  0.54325559026E+02  0.00000000000E+00 0. -1.
        -14    1    4    4    0    0  0.24882056320E+02 -0.16319441664E+03  0.99290855912E+01  0.16537872018E+03  0.00000000000E+00 0.  1.
</event>
<event>
12    1  0.8462562E-002  0.1831964E+03  0.7818608E-02  0.1166742E+00
         21   -1    0    0  503  502  0.00000000000E+00  0.00000000000E+00  0.23059541084E+03  0.23059541084E+03  0.00000000000E+00 0. -1.
         21   -1    0    0  501  503 -0.00000000000E+00 -0.00000000000E+00 -0.26860070893E+03  0.26860070893E+03  0.00000000000E+00 0. -1.
          6    2    1    2  501    0  0.25419807181E+02  0.40910168782E+02 -0.19208507828E+03  0.25981881802E+03  0.16819432924E+03 0.  0.
         24    2    3    3    0    0 -0.25798119576E+02 -0.12999399087E+02 -0.16100816844E+03  0.17908851482E+03  0.72900881237E+02 0.  0.
         -6    2    1    2    0  502 -0.25419807181E+02 -0.40910168782E+02  0.15407978019E+03  0.23937730176E+03  0.17675153585E+03 0.  0.
        -24    2    5    5    0    0 -0.77065668088E+02 -0.10820343754E+02  0.13831216973E+03  0.17738214018E+03  0.79233643876E+02 0.  0.
          5    1    3    3  501    0  0.51217926758E+02  0.53909567869E+02 -0.31076909843E+02  0.80730303198E+02  0.47000000000E+01 0. -1.
        -11    1    4    4    0    0 -0.45456730562E+00 -0.12021097664E+01  0.78385940879E+01  0.79432522685E+01  0.00000000000E+00 0.  1.
         12    1    4    4    0    0 -0.25343552271E+02 -0.11797289320E+02 -0.16884676253E+03  0.17114526255E+03  0.00000000000E+00 0. -1.
         -5    1    5    5    0  502  0.51645860907E+02 -0.30089825028E+02  0.15767610460E+02  0.61995161574E+02  0.47000000000E+01 0.  1.
         13    1    6    6    0    0 -0.15798128109E+01 -0.11220303166E+02  0.83074073648E+02  0.83843262843E+02  0.00000000000E+00 0. -1.
        -14    1    6    6    0    0 -0.75485855277E+02  0.39995941245E+00  0.55238096086E+02  0.93538877338E+02  0.00000000000E+00 0.  1.
</event>
<event>
12    1  0.8462562E-002  0.2003340E+03  0.7818608E-02  0.1150106E+00
         21   -1    0    0  503  502  0.00000000000E+00  0.00000000000E+00  0.18348201307E+04  0.18348201307E+04  0.00000000000E+00 0.  1.
         21   -1    0    0  501  503 -0.00000000000E+00 -0.00000000000E+00 -0.21696507074E+02  0.21696507074E+02  0.00000000000E+00 0.  1.
          6    2    1    2  501    0  0.98484056650E+02  0.11356491702E+02  0.99206556520E+03  0.10120908020E+04  0.17408511257E+03 0.  0.
         24    2    3    3    0    0  0.74355027560E+02  0.58378245140E+02  0.46028866900E+03  0.47767335026E+03  0.85845681941E+02 0.  0.
         -6    2    1    2    0  502 -0.98484056650E+02 -0.11356491702E+02  0.82105805846E+03  0.84442583585E+03  0.17055960127E+03 0.  0.
        -24    2    5    5    0    0 -0.12940544337E+03 -0.31374200250E+02  0.53979232085E+03  0.56071939257E+03  0.72803697260E+02 0.  0.
          5    1    3    3  501    0  0.24129029090E+02 -0.47021753438E+02  0.53177689620E+03  0.53441745169E+03  0.47000000000E+01 0. -1.
        -13    1    4    4    0    0  0.42141933451E+02 -0.13065144916E+02  0.23595466531E+03  0.24004425561E+03  0.00000000000E+00 0.  1.
         14    1    4    4    0    0  0.32213094108E+02  0.71443390056E+02  0.22433400369E+03  0.23762909466E+03  0.00000000000E+00 0. -1.
         -5    1    5    5    0  502  0.30921386723E+02  0.20017708548E+02  0.28126573761E+03  0.28370644329E+03  0.47000000000E+01 0.  1.
         13    1    6    6    0    0 -0.10494731319E+03 -0.23619019904E+02  0.28478561398E+03  0.30442510176E+03  0.00000000000E+00 0. -1.
        -14    1    6    6    0    0 -0.24458130177E+02 -0.77551803460E+01  0.25500670687E+03  0.25629429081E+03  0.00000000000E+00 0.  1.
</event>
<event>
12    1  0.8462562E-002  0.1850842E+03  0.7818608E-02  0.1163084E+00
         21   -1    0    0  503  502  0.00000000000E+00  0.00000000000E+00  0.15431680597E+03  0.15431680597E+03  0.00000000000E+00 0.  1.
         21   -1    0    0  501  503 -0.00000000000E+00 -0.00000000000E+00 -0.10507744834E+04  0.10507744834E+04  0.00000000000E+00 0.  1.
          6    2    1    2  501    0  0.46554302420E+02  0.48762933190E+02 -0.98366596194E+03  0.10009270109E+04  0.17236887679E+03 0.  0.
         24    2    3    3    0    0  0.28412851221E+02 -0.35136709391E+02 -0.64970662792E+03  0.65608039416E+03  0.79252146846E+02 0.  0.
         -6    2    1    2    0  502 -0.46554302420E+02 -0.48762933190E+02  0.87208284496E+02  0.20416427851E+03  0.17185063575E+03 0.  0.
        -24    2    5    5    0    0 -0.40032129840E+02 -0.78395914648E+02  0.11301351342E+03  0.16405627227E+03  0.79961962222E+02 0.  0.
          5    1    3    3  501    0  0.18141451199E+02  0.83899642581E+02 -0.33395933402E+03  0.34484661671E+03  0.47000000000E+01 0. -1.
        -13    1    4    4    0    0  0.13344561739E+01  0.23766880363E+02 -0.11353322727E+03  0.11600189252E+03  0.00000000000E+00 0.  1.
         14    1    4    4    0    0  0.27078395047E+02 -0.58903589754E+02 -0.53617340065E+03  0.54007850164E+03  0.00000000000E+00 0. -1.
         -5    1    5    5    0  502 -0.65221725805E+01  0.29632981458E+02 -0.25805228922E+02  0.40108006245E+02  0.47000000000E+01 0.  1.
         11    1    6    6    0    0  0.19021472809E+01 -0.37940601330E+02  0.12418103920E+01  0.38008544916E+02  0.00000000000E+00 0. -1.
        -12    1    6    6    0    0 -0.41934277121E+02 -0.40455313317E+02  0.11177170303E+03  0.12604772735E+03  0.00000000000E+00 0.  1.
</event>
<event>
12    1  0.8462562E-002  0.1840702E+03  0.7818608E-02  0.1164832E+00
         21   -1    0    0  501  502  0.00000000000E+00  0.00000000000E+00  0.30776750820E+04  0.30776750820E+04  0.00000000000E+00 0. -1.
         21   -1    0    0  502  503 -0.00000000000E+00 -0.00000000000E+00 -0.11287790020E+02  0.11287790020E+02  0.00000000000E+00 0. -1.
         -6    2    1    2    0  503  0.40406092493E+02  0.60512694388E+02  0.11905291339E+04  0.12040953273E+04  0.16489845365E+03 0.  0.
        -24    2    3    3    0    0  0.83448220615E+00 -0.19644778110E+02  0.40853993883E+03  0.41699919341E+03  0.81220884142E+02 0.  0.
          6    2    1    2  501    0 -0.40406092493E+02 -0.60512694388E+02  0.18758581581E+04  0.18848675447E+04  0.16907806922E+03 0.  0.
         24    2    5    5    0    0  0.26287563828E+02 -0.41722863566E+02  0.63287162752E+03  0.63994236358E+03  0.81042571707E+02 0.  0.
          5    1    5    5  501    0 -0.66693656320E+02 -0.18789830822E+02  0.12429865306E+04  0.12449251812E+04  0.47000000000E+01 0. -1.
        -11    1    6    6    0    0 -0.29154736533E+01 -0.41069447487E+02  0.55886586771E+03  0.56038045790E+03  0.00000000000E+00 0.  1.
         12    1    6    6    0    0  0.29203037481E+02 -0.65341607947E+00  0.74005759813E+02  0.79561905685E+02  0.00000000000E+00 0. -1.
         -5    1    3    3    0  503  0.39571610286E+02  0.80157472497E+02  0.78198919506E+03  0.78709613385E+03  0.47000000000E+01 0.  1.
         11    1    4    4    0    0 -0.20310526995E+02 -0.27419653639E+02  0.37527491312E+03  0.37682305573E+03  0.00000000000E+00 0. -1.
        -12    1    4    4    0    0  0.21145009201E+02  0.77748755292E+01  0.33265025705E+02  0.40176137679E+02  0.00000000000E+00 0.  1.
</event>
<event>
12    1  0.8462562E-002  0.1759456E+03  0.7818608E-02  0.1171864E+00
         21   -1    0    0  503  502  0.00000000000E+00  0.00000000000E+00  0.84421123524E+03  0.84421123524E+03  0.00000000000E+00 0. -1.
         21   -1    0    0  501  503 -0.00000000000E+00 -0.00000000000E+00 -0.10308414386E+03  0.10308414386E+03  0.00000000000E+00 0. -1.
          6    2    1    2  501    0  0.16062578872E+02  0.26194333217E+02 -0.96882177757E+01  0.17621213021E+03  0.17324174940E+03 0.  0.
         24    2    3    3    0    0 -0.93102203718E+01  0.73804123590E+02  0.26088365968E+02  0.11130816249E+03  0.78582283857E+02 0.  0.
         -6    2    1    2    0  502 -0.16062578872E+02 -0.26194333217E+02  0.75081530916E+03  0.77108324889E+03  0.17292078741E+03 0.  0.
        -24    2    5    5    0    0 -0.66399581803E+02 -0.49654479695E+02  0.42211030841E+03  0.43768669844E+03  0.80734513714E+02 0.  0.
          5    1    3    3  501    0  0.25372799244E+02 -0.47609790372E+02 -0.35776583743E+02  0.64903967715E+02  0.47000000000E+01 0. -1.
        -11    1    4    4    0    0 -0.71854147122E+01 -0.51330924766E+01  0.30957554285E+02  0.32192374723E+02  0.00000000000E+00 0.  1.
         12    1    4    4    0    0 -0.21248056597E+01  0.78937216066E+02 -0.48691883178E+01  0.79115787769E+02  0.00000000000E+00 0. -1.
         -5    1    5    5    0  502  0.50337002931E+02  0.23460146478E+02  0.32870500074E+03  0.33339655045E+03  0.47000000000E+01 0.  1.
         13    1    6    6    0    0  0.12272332840E+02 -0.28616358217E+02  0.16751334956E+03  0.17038259415E+03  0.00000000000E+00 0. -1.
        -14    1    6    6    0    0 -0.78671914642E+02 -0.21038121478E+02  0.25459695886E+03  0.26730410429E+03  0.00000000000E+00 0.  1.
</event>
<event>
12    1  0.8462562E-002  0.2001801E+03  0.7818608E-02  0.1149893E+00
         21   -1    0    0  501  502  0.00000000000E+00  0.00000000000E+00  0.21817031072E+04  0.21817031072E+04  0.00000000000E+00 0.  1.
         21   -1    0    0  502  503 -0.00000000000E+00 -0.00000000000E+00 -0.29819210989E+02  0.29819210989E+02  0.00000000000E+00 0.  1.
         -6    2    1    2    0  503  0.59356445301E+02  0.82330830074E+02  0.38912525996E+03  0.43759630350E+03  0.17254131018E+03 0.  0.
        -24    2    3    3    0    0  0.29280667925E+02 -0.17062317947E+02  0.12041162328E+03  0.14947712886E+03  0.81828924120E+02 0.  0.
          6    2    1    2  501    0 -0.59356445301E+02 -0.82330830074E+02  0.17627586363E+04  0.17739260147E+04  0.17086235025E+03 0.  0.
         24    2    5    5    0    0 -0.73929352183E+02  0.24331950926E+01  0.97491363483E+03  0.98138633376E+03  0.84800183774E+02 0.  0.
          5    1    5    5  501    0  0.14572906882E+02 -0.84764025167E+02  0.78784500146E+03  0.79253968096E+03  0.47000000000E+01 0. -1.
        -13    1    6    6    0    0  0.67145807348E+01  0.42315982833E+01  0.47023655003E+03  0.47030352434E+03  0.00000000000E+00 0.  1.
         14    1    6    6    0    0 -0.80643932918E+02 -0.17984031907E+01  0.50467708480E+03  0.51108280942E+03  0.00000000000E+00 0. -1.
         -5    1    3    3    0  503  0.30075777376E+02  0.99393148022E+02  0.26871363668E+03  0.28811917464E+03  0.47000000000E+01 0.  1.
         13    1    4    4    0    0 -0.23968888032E+02 -0.23841883211E+02  0.58212800235E+02  0.67317702722E+02  0.00000000000E+00 0. -1.
        -14    1    4    4    0    0  0.53249555957E+02  0.67795652636E+01  0.62198823046E+02  0.82159426136E+02  0.00000000000E+00 0.  1.
</event>
<event>
12    1  0.8462562E-002  0.2309011E+03  0.7818608E-02  0.1126215E+00
         21   -1    0    0  501  502  0.00000000000E+00  0.00000000000E+00  0.31402696154E+03  0.31402696154E+03  0.00000000000E+00 0.  1.
         21   -1    0    0  502  503 -0.00000000000E+00 -0.00000000000E+00 -0.18727535154E+03  0.18727535154E+03  0.00000000000E+00 0. -1.
         -6    2    1    2    0  503 -0.13752777658E+03  0.70099912142E+02  0.14172204891E+03  0.26991641603E+03  0.17012303043E+03 0.  0.
        -24    2    3    3    0    0 -0.50120211202E+02  0.47986315475E+02  0.14503602861E+03  0.17957170891E+03  0.79973914516E+02 0.  0.
          6    2    1    2  501    0  0.13752777658E+03 -0.70099912142E+02 -0.14970438913E+02  0.23138589705E+03  0.17171905049E+03 0.  0.
         24    2    5    5    0    0  0.10841941868E+03 -0.10704111666E+03  0.19250984740E+02  0.17303227739E+03  0.79730782037E+02 0.  0.
          5    1    5    5  501    0  0.29108357897E+02  0.36941204515E+02 -0.34221423653E+02  0.58353619659E+02  0.47000000000E+01 0. -1.
        -11    1    6    6    0    0  0.36297893358E+02 -0.21104142009E+02  0.41076780808E+02  0.58738605650E+02  0.00000000000E+00 0.  1.
         12    1    6    6    0    0  0.72121525321E+02 -0.85936974648E+02 -0.21825796069E+02  0.11429367174E+03  0.00000000000E+00 0. -1.
         -5    1    3    3    0  503 -0.87407565375E+02  0.22113596668E+02 -0.33139797037E+01  0.90344707115E+02  0.47000000000E+01 0.  1.
         11    1    4    4    0    0 -0.22989455034E+01  0.78155776926E+01 -0.97235463229E+01  0.12685257514E+02  0.00000000000E+00 0. -1.
        -12    1    4    4    0    0 -0.47821265698E+02  0.40170737782E+02  0.15475957493E+03  0.16688645140E+03  0.00000000000E+00 0.  1.
</event>
<event>
12    1  0.8462562E-002  0.2511453E+03  0.7818608E-02  0.1112633E+00
         21   -1    0    0  501  502  0.00000000000E+00  0.00000000000E+00  0.18649947025E+04  0.18649947025E+04  0.00000000000E+00 0. -1.
         21   -1    0    0  502  503 -0.00000000000E+00 -0.00000000000E+00 -0.91908759318E+02  0.91908759318E+02  0.00000000000E+00 0.  1.
         -6    2    1    2    0  503 -0.28769551962E+02  0.18101537370E+03  0.10818165338E+03  0.27316350064E+03  0.17123310229E+03 0.  0.
        -24    2    3    3    0    0 -0.70858143143E+02  0.16761879626E+03  0.11273480008E+03  0.22851219674E+03  0.79948430908E+02 0.  0.
          6    2    1    2  501    0  0.28769551962E+02 -0.18101537370E+03  0.16649042898E+04  0.16837399612E+04  0.17169656381E+03 0.  0.
         24    2    5    5    0    0  0.39976421398E+02 -0.27106662541E+02  0.50680916245E+03  0.51539930054E+03  0.80299604199E+02 0.  0.
          5    1    5    5  501    0 -0.11206869436E+02 -0.15390871116E+03  0.11580951273E+04  0.11683406606E+04  0.47000000000E+01 0. -1.
        -13    1    6    6    0    0  0.53760851085E+02 -0.30375504791E+02  0.22750001874E+03  0.23573111574E+03  0.00000000000E+00 0.  1.
         14    1    6    6    0    0 -0.13784429687E+02  0.32688422498E+01  0.27930914371E+03  0.27966818480E+03  0.00000000000E+00 0. -1.
         -5    1    3    3    0  503  0.42088591181E+02  0.13396577441E+02 -0.45531466987E+01  0.44651303896E+02  0.47000000000E+01 0.  1.
         11    1    4    4    0    0  0.17398457386E+02  0.18499179641E+02  0.12117520763E+02  0.28138235131E+02  0.00000000000E+00 0. -1.
        -12    1    4    4    0    0 -0.88256600529E+02  0.14911961661E+03  0.10061727931E+03  0.20037396161E+03  0.00000000000E+00 0.  1.
</event>
<event>
12    1  0.8462562E-002  0.2051062E+03  0.7818608E-02  0.1145860E+00
         21   -1    0    0  501  502  0.00000000000E+00  0.00000000000E+00  0.24157354241E+04  0.24157354241E+04  0.00000000000E+00 0.  1.
         21   -1    0    0  502  503 -0.00000000000E+00 -0.00000000000E+00 -0.17833908178E+02  0.17833908178E+02  0.00000000000E+00 0.  1.
         -6    2    1    2    0  503 -0.11067316741E+03 -0.12124326697E+02  0.98678947774E+03  0.10078799605E+04  0.17225850351E+03 0.  0.
        -24    2    3    3    0    0 -0.11805591237E+02  0.20989188001E+02  0.65780489057E+03  0.66273614830E+03  0.77019544346E+02 0.  0.
          6    2    1    2  501    0  0.11067316741E+03  0.12124326697E+02  0.14111120382E+04  0.14256893718E+04  0.17016889063E+03 0.  0.
         24    2    5    5    0    0  0.10862279975E+03 -0.43230131125E+02  0.11456327950E+04  0.11544521351E+04  0.81347860814E+02 0.  0.
          5    1    5    5  501    0  0.20503676637E+01  0.55354457822E+02  0.26547924319E+03  0.27123723670E+03  0.47000000000E+01 0. -1.
        -11    1    6    6    0    0  0.11729663472E+03 -0.36863297265E+02  0.11189003103E+04  0.11256355127E+04  0.00000000000E+00 0.  1.
         12    1    6    6    0    0 -0.86738349685E+01 -0.63668338593E+01  0.26732484730E+02  0.28816622395E+02  0.00000000000E+00 0. -1.
         -5    1    3    3    0  503 -0.98867576175E+02 -0.33113514698E+02  0.32898458717E+03  0.34514381216E+03  0.47000000000E+01 0.  1.
         11    1    4    4    0    0 -0.28095899324E+02 -0.21076866840E+02  0.25323724718E+03  0.25566133308E+03  0.00000000000E+00 0. -1.
        -12    1    4    4    0    0  0.16290308087E+02  0.42066054840E+02  0.40456764339E+03  0.40707481522E+03  0.00000000000E+00 0.  1.
</event>
<event>
12    1  0.8462562E-002  0.1914878E+03  0.7818608E-02  0.1158837E+00
         21   -1    0    0  501  502  0.00000000000E+00  0.00000000000E+00  0.85373679628E+03  0.85373679628E+03  0.00000000000E+00 0.  1.
         21   -1    0    0  502  503 -0.00000000000E+00 -0.00000000000E+00 -0.53910377604E+02  0.53910377604E+02  0.00000000000E+00 0.  1.
         -6    2    1    2    0  503 -0.55405038143E+02 -0.38391467582E+02  0.17419675589E+03  0.25336891336E+03  0.17119484063E+03 0.  0.
        -24    2    3    3    0    0  0.20303290449E+02  0.10515620707E+02  0.89920134749E+02  0.12988493394E+03  0.90893693667E+02 0.  0.
          6    2    1    2  501    0  0.55405038143E+02  0.38391467582E+02  0.62562966278E+03  0.65427826052E+03  0.17923153797E+03 0.  0.
         24    2    5    5    0    0  0.54153343579E+02 -0.42393727851E+02  0.31307374877E+03  0.33141435122E+03  0.84205031023E+02 0.  0.
          5    1    5    5  501    0  0.12516945636E+01  0.80785195433E+02  0.31255591401E+03  0.32286390930E+03  0.47000000000E+01 0. -1.
        -11    1    6    6    0    0  0.61525143549E+01  0.16911662471E+02  0.14108807485E+02  0.22867361218E+02  0.00000000000E+00 0.  1.
         12    1    6    6    0    0  0.48000829224E+02 -0.59305390322E+02  0.29896494128E+03  0.30854699001E+03  0.00000000000E+00 0. -1.
         -5    1    3    3    0  503 -0.75708328592E+02 -0.48907088289E+02  0.84276621143E+02  0.12348397942E+03  0.47000000000E+01 0.  1.
         13    1    4    4    0    0  0.55081717146E+01  0.48301736904E+02  0.28753108606E+02  0.56481315478E+02  0.00000000000E+00 0. -1.
        -14    1    4    4    0    0  0.14795118734E+02 -0.37786116197E+02  0.61167026143E+02  0.73403618458E+02  0.00000000000E+00 0.  1.
</event>
<event>
12    1  0.8462562E-002  0.2737806E+03  0.7818608E-02  0.1099139E+00
         21   -1    0    0  503  502  0.00000000000E+00  0.00000000000E+00  0.52595183640E+02  0.52595183640E+02  0.00000000000E+00 0.  1.
         21   -1    0    0  501  503 -0.00000000000E+00 -0.00000000000E+00 -0.14313177792E+04  0.14313177792E+04  0.00000000000E+00 0.  1.
          6    2    1    2  501    0 -0.14696901633E+03 -0.15439445190E+03 -0.73863616452E+03  0.78774311883E+03  0.17180890314E+03 0.  0.
         24    2    3    3    0    0 -0.14671433557E+03 -0.89166051581E+02 -0.39644553850E+03  0.43935924492E+03  0.79948734091E+02 0.  0.
         -6    2    1    2    0  502  0.14696901633E+03  0.15439445190E+03 -0.64008643106E+03  0.69616984403E+03  0.17176808191E+03 0.  0.
        -24    2    5    5    0    0  0.89009165939E+02  0.11354241661E+03 -0.24603689695E+03  0.29576335260E+03  0.78277034227E+02 0.  0.
          5    1    3    3  501    0 -0.25468076414E+00 -0.65228400322E+02 -0.34219062601E+03  0.34838387391E+03  0.47000000000E+01 0. -1.
        -11    1    4    4    0    0 -0.97200234272E+02 -0.72869278209E+02 -0.18307854514E+03  0.21971702469E+03  0.00000000000E+00 0.  1.
         12    1    4    4    0    0 -0.49514101295E+02 -0.16296773371E+02 -0.21336699337E+03  0.21964222023E+03  0.00000000000E+00 0. -1.
         -5    1    5    5    0  502  0.57959850393E+02  0.40852035292E+02 -0.39404953411E+03  0.40040649143E+03  0.47000000000E+01 0.  1.
         11    1    6    6    0    0  0.30671342707E+02  0.91450291861E+02 -0.11126161454E+03  0.14725160106E+03  0.00000000000E+00 0. -1.
        -12    1    6    6    0    0  0.58337823231E+02  0.22092124750E+02 -0.13477528241E+03  0.14851175154E+03  0.00000000000E+00 0.  1.
</event>
<event>
12    1  0.8462562E-002  0.2252598E+03  0.7818608E-02  0.1130503E+00
         21   -1    0    0  503  502  0.00000000000E+00  0.00000000000E+00  0.10176155408E+03  0.10176155408E+03  0.00000000000E+00 0.  1.
         21   -1    0    0  501  503 -0.00000000000E+00 -0.00000000000E+00 -0.49311179775E+03  0.49311179775E+03  0.00000000000E+00 0.  1.
          6    2    1    2  501    0  0.11318801362E+03  0.86731495526E+02 -0.20206623651E+03  0.30064484734E+03  0.17094642889E+03 0.  0.
         24    2    3    3    0    0  0.99349490107E+02  0.12646818407E+03 -0.15147613261E+03  0.23467547746E+03  0.79139359397E+02 0.  0.
         -6    2    1    2    0  502 -0.11318801362E+03 -0.86731495526E+02 -0.18928400716E+03  0.29422850449E+03  0.17437918094E+03 0.  0.
        -24    2    5    5    0    0 -0.16145123589E+02 -0.87000447654E+02 -0.14329257593E+03  0.18673572991E+03  0.80670487795E+02 0.  0.
          5    1    3    3  501    0  0.13838523513E+02 -0.39736688543E+02 -0.50590103903E+02  0.65969369879E+02  0.47000000000E+01 0. -1.
        -13    1    4    4    0    0  0.18695549899E+02  0.83367786269E+02 -0.92181577684E+02  0.12568673215E+03  0.00000000000E+00 0.  1.
         14    1    4    4    0    0  0.80653940209E+02  0.43100397800E+02 -0.59294554922E+02  0.10898874531E+03  0.00000000000E+00 0. -1.
         -5    1    5    5    0  502 -0.97042890031E+02  0.26895212769E+00 -0.45991431237E+02  0.10749277459E+03  0.47000000000E+01 0.  1.
         11    1    6    6    0    0  0.17958830722E+02 -0.34354232558E+02 -0.10803382142E+03  0.11477821861E+03  0.00000000000E+00 0. -1.
        -12    1    6    6    0    0 -0.34103954311E+02 -0.52646215096E+02 -0.35258754506E+02  0.71957511303E+02  0.00000000000E+00 0.  1.
</event>
<event>
12    1  0.8462562E-002  0.1854323E+03  0.7818608E-02  0.1162778E+00
         21   -1    0    0  501  502  0.00000000000E+00  0.00000000000E+00  0.51924811982E+03  0.51924811982E+03  0.00000000000E+00 0. -1.
         21   -1    0    0  502  503 -0.00000000000E+00 -0.00000000000E+00 -0.14606998077E+03  0.14606998077E+03  0.00000000000E+00 0.  1.
         -6    2    1    2    0  503  0.67534289730E+02  0.12712308454E+02 -0.59545300715E+02  0.19475830503E+03  0.17222854428E+03 0.  0.
        -24    2    3    3    0    0  0.91336327536E+02  0.57711361314E+02 -0.50376291946E+02  0.14281975977E+03  0.78656131600E+02 0.  0.
          6    2    1    2  501    0 -0.67534289730E+02 -0.12712308454E+02  0.43272343977E+03  0.47055979556E+03  0.17162302527E+03 0.  0.
         24    2    5    5    0    0 -0.11488152776E+02  0.26831726105E+02  0.36242824075E+03  0.37223174696E+03  0.79688923789E+02 0.  0.
          5    1    5    5  501    0 -0.56046136955E+02 -0.39544034559E+02  0.70295199021E+02  0.98328048603E+02  0.47000000000E+01 0. -1.
        -11    1    6    6    0    0 -0.56680439141E+01 -0.43390855841E+01 -0.11872057759E+01  0.72362865527E+01  0.00000000000E+00 0.  1.
         12    1    6    6    0    0 -0.58201088618E+01  0.31170811689E+02  0.36361544652E+03  0.36499546041E+03  0.00000000000E+00 0. -1.
         -5    1    3    3    0  503 -0.23802037805E+02 -0.44999052859E+02 -0.91690087688E+01  0.51938545260E+02  0.47000000000E+01 0.  1.
         11    1    4    4    0    0  0.56155400960E+02  0.28007251761E+02  0.13392643590E+02  0.64165396520E+02  0.00000000000E+00 0. -1.
        -12    1    4    4    0    0  0.35180926575E+02  0.29704109553E+02 -0.63768935536E+02  0.78654363251E+02  0.00000000000E+00 0.  1.
</event>
<event>
12    1  0.8462562E-002  0.2624683E+03  0.7818608E-02  0.1105945E+00
         21   -1    0    0  503  502  0.00000000000E+00  0.00000000000E+00  0.80925421150E+03  0.80925421150E+03  0.00000000000E+00 0.  1.
         21   -1    0    0  501  503 -0.00000000000E+00 -0.00000000000E+00 -0.11019136263E+03  0.11019136263E+03  0.00000000000E+00 0. -1.
          6    2    1    2  501    0 -0.17196987474E+03  0.97110831907E+02  0.12671751661E+03  0.28978790398E+03  0.17004572557E+03 0.  0.
         24    2    3    3    0    0 -0.19406656903E+03  0.90612332087E+02  0.87278289670E+02  0.24387453969E+03  0.77361898353E+02 0.  0.
         -6    2    1    2    0  502  0.17196987474E+03 -0.97110831907E+02  0.57234533225E+03  0.62965767016E+03  0.17287408928E+03 0.  0.
        -24    2    5    5    0    0  0.12727649324E+03 -0.53876683474E+02  0.53184874795E+03  0.55530208341E+03  0.79970684550E+02 0.  0.
          5    1    3    3  501    0  0.22096694295E+02  0.64984998203E+01  0.39439226943E+02  0.45913364291E+02  0.47000000000E+01 0. -1.
        -13    1    4    4    0    0 -0.97871013862E+02  0.72546736470E+01  0.55235861047E+02  0.11261601125E+03  0.00000000000E+00 0.  1.
         14    1    4    4    0    0 -0.96195555172E+02  0.83357658440E+02  0.32042428622E+02  0.13125852844E+03  0.00000000000E+00 0. -1.
         -5    1    5    5    0  502  0.44693381498E+02 -0.43234148433E+02  0.40496584298E+02  0.74355586745E+02  0.47000000000E+01 0.  1.
         13    1    6    6    0    0 -0.20824432044E+01  0.11078525759E+02  0.81139476133E+02  0.81918770070E+02  0.00000000000E+00 0. -1.
        -14    1    6    6    0    0  0.12935893645E+03 -0.64955209233E+02  0.45070927182E+03  0.47338331334E+03  0.00000000000E+00 0.  1.
</event>
<event>
12    1  0.8462562E-002  0.2248894E+03  0.7818608E-02  0.1130530E+00
         21   -1    0    0  503  502  0.00000000000E+00  0.00000000000E+00  0.43393125362E+02  0.43393125362E+02  0.00000000000E+00 0. -1.
         21   -1    0    0  501  503 -0.00000000000E+00 -0.00000000000E+00 -0.17332447608E+04  0.17332447608E+04  0.00000000000E+00 0. -1.
          6    2    1    2  501    0 -0.39758379385E+02 -0.13915543964E+03 -0.13580609552E+04  0.13765554179E+04  0.17213452683E+03 0.  0.
         24    2    3    3    0    0 -0.18882224830E+02 -0.16265742260E+03 -0.12695396112E+04  0.12825007775E+04  0.79141925267E+02 0.  0.
         -6    2    1    2    0  502  0.39758379385E+02  0.13915543964E+03 -0.33179068023E+03  0.40008246828E+03  0.17039941557E+03 0.  0.
        -24    2    5    5    0    0  0.11657366020E+02  0.11189136142E+02 -0.18989662328E+03  0.20689588702E+03  0.80523844801E+02 0.  0.
          5    1    3    3  501    0 -0.20876154555E+02  0.23501982967E+02 -0.88521343986E+02  0.94054640362E+02  0.47000000000E+01 0. -1.
        -13    1    4    4    0    0 -0.15613422690E+02 -0.56363632938E+01 -0.28776955257E+03  0.28824791924E+03  0.00000000000E+00 0.  1.
         14    1    4    4    0    0 -0.32688021402E+01 -0.15702105931E+03 -0.98177005864E+03  0.99425285827E+03  0.00000000000E+00 0. -1.
         -5    1    5    5    0  502  0.28101013365E+02  0.12796630350E+03 -0.14189405695E+03  0.19318658126E+03  0.47000000000E+01 0.  1.
         13    1    6    6    0    0 -0.10984396697E+02  0.24857247024E+02 -0.17146958707E+02  0.32133438865E+02  0.00000000000E+00 0. -1.
        -14    1    6    6    0    0  0.22641762717E+02 -0.13668110882E+02 -0.17274966458E+03  0.17476244816E+03  0.00000000000E+00 0.  1.
</event>
<event>
12    1  0.8462562E-002  0.1733903E+03  0.7818608E-02  0.1174447E+00
         21   -1    0    0  501  502  0.00000000000E+00  0.00000000000E+00  0.70907113708E+03  0.70907113708E+03  0.00000000000E+00 0.  1.
         21   -1    0    0  502  503 -0.00000000000E+00 -0.00000000000E+00 -0.25246788570E+03  0.25246788570E+03  0.00000000000E+00 0.  1.
         -6    2    1    2    0  503 -0.23257890573E+02  0.57691340322E+01 -0.21029447531E+03  0.27255816538E+03  0.17172645337E+03 0.  0.
        -24    2    3    3    0    0 -0.14737148784E+02  0.56112973164E+02 -0.19568458816E+03  0.21924171406E+03  0.80053868291E+02 0.  0.
          6    2    1    2  501    0  0.23257890573E+02 -0.57691340322E+01  0.66689772669E+03  0.68898085740E+03  0.17137045143E+03 0.  0.
         24    2    5    5    0    0 -0.12356176164E+02 -0.30899859932E+02  0.61525332583E+03  0.62123759741E+03  0.79322260840E+02 0.  0.
          5    1    5    5  501    0  0.35614066737E+02  0.25130725900E+02  0.51644400864E+02  0.67743259993E+02  0.47000000000E+01 0. -1.
        -13    1    6    6    0    0  0.21343002026E+02  0.16593631498E+02  0.23519261397E+03  0.23674128919E+03  0.00000000000E+00 0.  1.
         14    1    6    6    0    0 -0.33699178190E+02 -0.47493491430E+02  0.38006071186E+03  0.38449630822E+03  0.00000000000E+00 0. -1.
         -5    1    3    3    0  503 -0.85207417890E+01 -0.50343839132E+02 -0.14609887157E+02  0.53316451325E+02  0.47000000000E+01 0.  1.
         13    1    4    4    0    0  0.69021288822E+01 -0.13707695511E+02 -0.69526873611E+01  0.16848743599E+02  0.00000000000E+00 0. -1.
        -14    1    4    4    0    0 -0.21639277666E+02  0.69820668675E+02 -0.18873190080E+03  0.20239297046E+03  0.00000000000E+00 0.  1.
</event>
<event>
12    1  0.8462562E-002  0.2295931E+03  0.7818608E-02  0.1126938E+00
         21   -1    0    0  503  502  0.00000000000E+00  0.00000000000E+00  0.15768594223E+03  0.15768594223E+03  0.00000000000E+00 0. -1.
         21   -1    0    0  501  503 -0.00000000000E+00 -0.00000000000E+00 -0.33515420129E+03  0.33515420129E+03  0.00000000000E+00 0.  1.
          6    2    1    2  501    0  0.12637452730E+03  0.84749973463E+02 -0.75580148499E+02  0.24171332355E+03  0.17192990660E+03 0.  0.
         24    2    3    3    0    0  0.61382758147E+02  0.76033201835E+02 -0.10980596515E+03  0.16759579060E+03  0.80511541180E+02 0.  0.
         -6    2    1    2    0  502 -0.12637452730E+03 -0.84749973463E+02 -0.10188811056E+03  0.25112681998E+03  0.17184415464E+03 0.  0.
        -24    2    5    5    0    0 -0.13478298343E+03 -0.17757142104E+02 -0.95235999746E+02  0.18311886334E+03  0.77335979617E+02 0.  0.
          5    1    3    3  501    0  0.64991769154E+02  0.87167716288E+01  0.34225816655E+02  0.74117532954E+02  0.47000000000E+01 0. -1.
        -13    1    4    4    0    0  0.14076333324E+02  0.59587900725E+02 -0.98931201395E+02  0.11634536382E+03  0.00000000000E+00 0.  1.
         14    1    4    4    0    0  0.47306424823E+02  0.16445301110E+02 -0.10874763760E+02  0.51250426778E+02  0.00000000000E+00 0. -1.
         -5    1    5    5    0  502  0.84084561313E+01 -0.66992831359E+02 -0.66521108114E+01  0.68007956639E+02  0.47000000000E+01 0.  1.
         13    1    6    6    0    0  0.58130820130E+01  0.99010463716E+01 -0.15011526029E+02  0.18898903552E+02  0.00000000000E+00 0. -1.
        -14    1    6    6    0    0 -0.14059606545E+03 -0.27658188476E+02 -0.80224473717E+02  0.16421995978E+03  0.00000000000E+00 0.  1.
</event>
<event>
12    1  0.8462562E-002  0.2767031E+03  0.7818608E-02  0.1097689E+00
         21   -1    0    0  501  502  0.00000000000E+00  0.00000000000E+00  0.88204868271E+03  0.88204868271E+03  0.00000000000E+00 0.  1.
         21   -1    0    0  502  503 -0.00000000000E+00 -0.00000000000E+00 -0.89443684680E+02  0.89443684680E+02  0.00000000000E+00 0. -1.
         -6    2    1    2    0  503  0.16111005377E+03 -0.14261783632E+03  0.48704583359E+03  0.56015913096E+03  0.17397790471E+03 0.  0.
        -24    2    3    3    0    0  0.12443942394E+03 -0.79178747973E+02  0.44512514999E+03  0.47560922419E+03  0.79456218240E+02 0.  0.
          6    2    1    2  501    0 -0.16111005377E+03  0.14261783632E+03  0.30555916444E+03  0.41133323643E+03  0.17184973596E+03 0.  0.
         24    2    5    5    0    0 -0.42911852028E+02  0.59659843068E+01  0.13823678834E+03  0.16503380261E+03  0.79055210698E+02 0.  0.
          5    1    5    5  501    0 -0.11819820174E+03  0.13665185202E+03  0.16732237610E+03  0.24629943382E+03  0.47000000000E+01 0. -1.
        -11    1    6    6    0    0 -0.64823142629E+02  0.89945966725E+01  0.11858723910E+03  0.13544694853E+03  0.00000000000E+00 0.  1.
         12    1    6    6    0    0  0.21911290600E+02 -0.30286123657E+01  0.19649549247E+02  0.29586854078E+02  0.00000000000E+00 0. -1.
         -5    1    3    3    0  503  0.36670629834E+02 -0.63439088350E+02  0.41920683596E+02  0.84549906779E+02  0.47000000000E+01 0.  1.
         11    1    4    4    0    0  0.68655336052E+02 -0.10862020010E+01  0.14344921529E+03  0.15903588391E+03  0.00000000000E+00 0. -1.
        -12    1    4    4    0    0  0.55784087887E+02 -0.78092545972E+02  0.30167593470E+03  0.31657334028E+03  0.00000000000E+00 0.  1.
</event>
<event>
12    1  0.8462562E-002  0.2051850E+03  0.7818608E-02  0.1145521E+00
         21   -1    0    0  501  502  0.00000000000E+00  0.00000000000E+00  0.85828733752E+02  0.85828733752E+02  0.00000000000E+00 0.  1.
         21   -1    0    0  502  503 -0.00000000000E+00 -0.00000000000E+00 -0.48956811460E+03  0.48956811460E+03  0.00000000000E+00 0. -1.
         -6    2    1    2    0  503  0.45534398625E+02 -0.10306340605E+03 -0.20444456267E+03  0.28965231201E+03  0.17148013157E+03 0.  0.
        -24    2    3    3    0    0 -0.63896375574E+01 -0.19560514068E+02 -0.27362066824E+02  0.87046441323E+02  0.80030988169E+02 0.  0.
          6    2    1    2  501    0 -0.45534398625E+02  0.10306340605E+03 -0.19929481818E+03  0.28574453635E+03  0.17098557943E+03 0.  0.
         24    2    5    5    0    0 -0.47634697365E+02  0.11895431334E+03 -0.21473883588E+03  0.26299503367E+03  0.81451992274E+02 0.  0.
          5    1    5    5  501    0  0.21002987402E+01 -0.15890907294E+02  0.15444017696E+02  0.22749502676E+02  0.47000000000E+01 0. -1.
        -13    1    6    6    0    0  0.21241099813E+02  0.11399254794E+02 -0.33041319741E+02  0.40900564072E+02  0.00000000000E+00 0.  1.
         14    1    6    6    0    0 -0.68875797179E+02  0.10755505855E+03 -0.18169751614E+03  0.22209446960E+03  0.00000000000E+00 0. -1.
         -5    1    3    3    0  503  0.51924036183E+02 -0.83502891977E+02 -0.17708249584E+03  0.20260587068E+03  0.47000000000E+01 0.  1.
         11    1    4    4    0    0 -0.26442022121E+02  0.18694037727E+02 -0.29495574025E+02  0.43802242721E+02  0.00000000000E+00 0. -1.
        -12    1    4    4    0    0  0.20052384563E+02 -0.38254551795E+02  0.21335072010E+01  0.43244198602E+02  0.00000000000E+00 0.  1.
</event>
<event>
12    1  0.8462562E-002  0.2115858E+03  0.7818608E-02  0.1140419E+00
         21   -1    0    0  503  502  0.00000000000E+00  0.00000000000E+00  0.24559610077E+03  0.24559610077E+03  0.00000000000E+00 0.  1.
         21   -1    0    0  501  503 -0.00000000000E+00 -0.00000000000E+00 -0.18285213151E+03  0.18285213151E+03  0.00000000000E+00 0. -1.
          6    2    1    2  501    0  0.10386801400E+03  0.65609329337E+02  0.47389269282E+02  0.21682775710E+03  0.17226544917E+03 0.  0.
         24    2    3    3    0    0  0.11430584491E+03  0.86139698039E+02  0.75272752999E+02  0.18035827647E+03  0.79857665806E+02 0.  0.
         -6    2    1    2    0  502 -0.10386801400E+03 -0.65609329337E+02  0.15354699975E+02  0.21162047518E+03  0.17162258090E+03 0.  0.
        -24    2    5    5    0    0 -0.10042476854E+03 -0.24657726367E+01  0.51650295677E+02  0.13855594918E+03  0.80242032869E+02 0.  0.
          5    1    3    3  501    0 -0.10437830911E+02 -0.20530368702E+02 -0.27883483716E+02  0.36469480628E+02  0.47000000000E+01 0. -1.
        -11    1    4    4    0    0  0.14209100864E+02  0.55077381609E+02  0.12655320136E+02  0.58271550863E+02  0.00000000000E+00 0.  1.
         12    1    4    4    0    0  0.10009674405E+03  0.31062316430E+02  0.62617432863E+02  0.12208672561E+03  0.00000000000E+00 0. -1.
         -5    1    5    5    0  502 -0.34432454580E+01 -0.63143556700E+02 -0.36295595702E+02  0.73064525998E+02  0.47000000000E+01 0.  1.
         11    1    6    6    0    0 -0.56293963238E+02 -0.55723032490E+01 -0.15032508137E+02  0.58532359951E+02  0.00000000000E+00 0. -1.
        -12    1    6    6    0    0 -0.44130805306E+02  0.31065306123E+01  0.66682803813E+02  0.80023589233E+02  0.00000000000E+00 0.  1.
</event>
<event>
12    1  0.8462562E-002  0.3175891E+03  0.7818608E-02  0.1077190E+00
         21   -1    0    0  501  502  0.00000000000E+00  0.00000000000E+00  0.18383639742E+03  0.18383639742E+03  0.00000000000E+00 0. -1.
         21   -1    0    0  502  503 -0.00000000000E+00 -0.00000000000E+00 -0.62018281400E+03  0.62018281400E+03  0.00000000000E+00 0.  1.
         -6    2    1    2    0  503  0.22655267988E+03  0.13357985949E+03 -0.35946106587E+03  0.47725603108E+03  0.17143910201E+03 0.  0.
        -24    2    3    3    0    0  0.11746561756E+03  0.14591175127E+03 -0.23470682603E+03  0.31100990908E+03  0.80941082857E+02 0.  0.
          6    2    1    2  501    0 -0.22655267988E+03 -0.13357985949E+03 -0.76885350709E+02  0.32676318035E+03  0.17802562528E+03 0.  0.
         24    2    5    5    0    0 -0.19031598529E+03 -0.11417502728E+03  0.34940907446E+01  0.23636080120E+03  0.81228742199E+02 0.  0.
          5    1    5    5  501    0 -0.36236694582E+02 -0.19404832210E+02 -0.80379441453E+02  0.90402379148E+02  0.47000000000E+01 0. -1.
        -13    1    6    6    0    0 -0.11925849347E+03 -0.48300193909E+02 -0.32980795283E+02  0.13282782033E+03  0.00000000000E+00 0.  1.
         14    1    6    6    0    0 -0.71057491821E+02 -0.65874833374E+02  0.36474886027E+02  0.10353298086E+03  0.00000000000E+00 0. -1.
         -5    1    3    3    0  503  0.10908706232E+03 -0.12331891777E+02 -0.12475423984E+03  0.16624612199E+03  0.47000000000E+01 0.  1.
         11    1    4    4    0    0  0.12904208138E+03  0.12675506982E+03 -0.21677575962E+03  0.28233036757E+03  0.00000000000E+00 0. -1.
        -12    1    4    4    0    0 -0.11576463822E+02  0.19156681446E+02 -0.17931066409E+02  0.28679541510E+02  0.00000000000E+00 0.  1.
</event>
<event>
12    1  0.8462562E-002  0.2050263E+03  0.7818608E-02  0.1146634E+00
         21   -1    0    0  503  502  0.00000000000E+00  0.00000000000E+00  0.38846751677E+03  0.38846751677E+03  0.00000000000E+00 0.  1.
         21   -1    0    0  501  503 -0.00000000000E+00 -0.00000000000E+00 -0.11123371860E+03  0.11123371860E+03  0.00000000000E+00 0. -1.
          6    2    1    2  501    0  0.78437526876E+02  0.78975998539E+02  0.83589242380E+02  0.22141122008E+03  0.17218046628E+03 0.  0.
         24    2    3    3    0    0  0.67551524755E+02  0.24691378551E+02  0.11474631558E+03  0.15770738802E+03  0.80820978859E+02 0.  0.
         -6    2    1    2    0  502 -0.78437526876E+02 -0.78975998539E+02  0.19364455579E+03  0.27829001529E+03  0.16600441155E+03 0.  0.
        -24    2    5    5    0    0 -0.47927686021E+00 -0.87943236397E+02  0.94933084953E+02  0.15209990246E+03  0.79924008755E+02 0.  0.
          5    1    3    3  501    0  0.10886002122E+02  0.54284619988E+02 -0.31157073202E+02  0.63703832066E+02  0.47000000000E+01 0. -1.
        -13    1    4    4    0    0 -0.79562082115E+01 -0.90656221932E+01 -0.42511014032E+01  0.12789003792E+02  0.00000000000E+00 0.  1.
         14    1    4    4    0    0  0.75507732966E+02  0.33757000745E+02  0.11899741699E+03  0.14491838422E+03  0.00000000000E+00 0. -1.
         -5    1    5    5    0  502 -0.77958250016E+02  0.89672378577E+01  0.98711470835E+02  0.12619011282E+03  0.47000000000E+01 0.  1.
         13    1    6    6    0    0 -0.22483375833E+02 -0.78582319022E+02  0.37578586480E+02  0.89960175709E+02  0.00000000000E+00 0. -1.
        -14    1    6    6    0    0  0.22004098973E+02 -0.93609173751E+01  0.57354498473E+02  0.62139726752E+02  0.00000000000E+00 0.  1.
</event>
<event>
12    1  0.8462562E-002  0.3164329E+03  0.7818608E-02  0.1077353E+00
         21   -1    0    0  503  502  0.00000000000E+00  0.00000000000E+00  0.13214324810E+03  0.13214324810E+03  0.00000000000E+00 0. -1.
         21   -1    0    0  501  503 -0.00000000000E+00 -0.00000000000E+00 -0.11168332356E+04  0.11168332356E+04  0.00000000000E+00 0.  1.
          6    2    1    2  501    0  0.21985067072E+03 -0.14961438758E+03 -0.84718540841E+03  0.90435219149E+03  0.17149631963E+03 0.  0.
         24    2    3    3    0    0  0.92895126636E+02 -0.15851548461E+02 -0.17891766442E+03  0.21108883968E+03  0.60549083034E+02 0.  0.
         -6    2    1    2    0  502 -0.21985067072E+03  0.14961438758E+03 -0.13750457911E+03  0.34462429223E+03  0.17070328390E+03 0.  0.
        -24    2    5    5    0    0 -0.61682776500E+02  0.10746106985E+03 -0.34285247589E+02  0.15105181135E+03  0.79300221053E+02 0.  0.
          5    1    3    3  501    0  0.12695554408E+03 -0.13376283912E+03 -0.66826774399E+03  0.69326335181E+03  0.47000000000E+01 0. -1.
        -13    1    4    4    0    0  0.68965925846E+02 -0.38148087559E+02 -0.13513234800E+03  0.15643633526E+03  0.00000000000E+00 0.  1.
         14    1    4    4    0    0  0.23929200790E+02  0.22296539099E+02 -0.43785316412E+02  0.54652504421E+02  0.00000000000E+00 0. -1.
         -5    1    5    5    0  502 -0.15816789422E+03  0.42153317732E+02 -0.10321933152E+03  0.19357248089E+03  0.47000000000E+01 0.  1.
         13    1    6    6    0    0 -0.41813738475E+02  0.49862180039E+01 -0.16172074927E+02  0.45108614507E+02  0.00000000000E+00 0. -1.
        -14    1    6    6    0    0 -0.19869038025E+02  0.10247485185E+03 -0.18113172662E+02  0.10594319684E+03  0.00000000000E+00 0.  1.
</event>
<event>
12    1  0.8462562E-002  0.2193756E+03  0.7818608E-02  0.1134394E+00
         21   -1    0    0  501  502  0.00000000000E+00  0.00000000000E+00  0.14083286825E+04  0.14083286825E+04  0.00000000000E+00 0.  1.
         21   -1    0    0  502  503 -0.00000000000E+00 -0.00000000000E+00 -0.15445076343E+03  0.15445076343E+03  0.00000000000E+00 0. -1.
         -6    2    1    2    0  503 -0.12516323663E+03 -0.53510398594E+02 -0.62796247650E+02  0.22795491942E+03  0.17172908317E+03 0.  0.
        -24    2    3    3    0    0 -0.14401124359E+03 -0.17710936447E+02 -0.17654230836E+02  0.16715409263E+03  0.81091943301E+02 0.  0.
          6    2    1    2  501    0  0.12516323663E+03  0.53510398594E+02  0.13166741667E+04  0.13348245265E+04  0.17203620758E+03 0.  0.
         24    2    5    5    0    0 -0.12363079378E+01  0.16354107719E+01  0.58942084354E+03  0.59483307703E+03  0.80032841447E+02 0.  0.
          5    1    5    5  501    0  0.12639954457E+03  0.51874987822E+02  0.72725332317E+03  0.73999144947E+03  0.47000000000E+01 0. -1.
        -11    1    6    6    0    0 -0.11445019826E+02 -0.19881908660E+02  0.53423613614E+03  0.53472846186E+03  0.00000000000E+00 0.  1.
         12    1    6    6    0    0  0.10208711888E+02  0.21517319432E+02  0.55184707401E+02  0.60104615171E+02  0.00000000000E+00 0. -1.
         -5    1    3    3    0  503  0.18848006956E+02 -0.35799462147E+02 -0.45142016814E+02  0.60800826789E+02  0.47000000000E+01 0.  1.
         11    1    4    4    0    0 -0.64089600418E+02 -0.20043820153E+02 -0.47019989697E+02  0.81976283395E+02  0.00000000000E+00 0. -1.
        -12    1    4    4    0    0 -0.79921643168E+02  0.23328837053E+01  0.29365758861E+02  0.85177809238E+02  0.00000000000E+00 0.  1.
</event>
<event>
12    1  0.8462562E-002  0.1906181E+03  0.7818608E-02  0.1157942E+00
         21   -1    0    0  503  502  0.00000000000E+00  0.00000000000E+00  0.69133480165E+03  0.69133480165E+03  0.00000000000E+00 0. -1.
         21   -1    0    0  501  503 -0.00000000000E+00 -0.00000000000E+00 -0.59376570705E+02  0.59376570705E+02  0.00000000000E+00 0.  1.
          6    2    1    2  501    0 -0.36429827059E+02 -0.72736830198E+02  0.18823486023E+03  0.26777692375E+03  0.17220435396E+03 0.  0.
         24    2    3    3    0    0 -0.32035867547E+02 -0.11018233650E+03  0.99809271890E+02  0.17153427471E+03  0.79345274330E+02 0.  0.
         -6    2    1    2    0  502  0.36429827059E+02  0.72736830198E+02  0.44372337072E+03  0.48293444860E+03  0.17238756671E+03 0.  0.
        -24    2    5    5    0    0  0.27313252958E+02  0.65686475088E+02  0.12982204771E+03  0.16878647389E+03  0.81082568401E+02 0.  0.
          5    1    3    3  501    0 -0.43939595119E+01  0.37445506305E+02  0.88425588335E+02  0.96242649044E+02  0.47000000000E+01 0. -1.
        -13    1    4    4    0    0 -0.46640848232E+02 -0.31293335832E+02  0.23747054711E+02  0.60980031147E+02  0.00000000000E+00 0.  1.
         14    1    4    4    0    0  0.14604980684E+02 -0.78889000671E+02  0.76062217180E+02  0.11055424356E+03  0.00000000000E+00 0. -1.
         -5    1    5    5    0  502  0.91165741014E+01  0.70503551102E+01  0.31390132301E+03  0.31414797471E+03  0.47000000000E+01 0.  1.
         13    1    6    6    0    0  0.26187288236E+02  0.82314210866E+02  0.12402542299E+03  0.15114135411E+03  0.00000000000E+00 0. -1.
        -14    1    6    6    0    0  0.11259647223E+01 -0.16627735778E+02  0.57966247241E+01  0.17645119774E+02  0.00000000000E+00 0.  1.
</event>
<event>
12    1  0.8462562E-002  0.1822135E+03  0.7818608E-02  0.1166787E+00
         21   -1    0    0  501  502  0.00000000000E+00  0.00000000000E+00  0.15261074053E+04  0.15261074053E+04  0.00000000000E+00 0.  1.
         21   -1    0    0  502  503 -0.00000000000E+00 -0.00000000000E+00 -0.23347030381E+02  0.23347030381E+02  0.00000000000E+00 0.  1.
         -6    2    1    2    0  503 -0.40534136502E+02  0.16475049359E+02  0.52575569900E+03  0.55643581371E+03  0.17688221018E+03 0.  0.
        -24    2    3    3    0    0 -0.62131552753E+01  0.29657042716E+02  0.50852151642E+03  0.51556037181E+03  0.79310912514E+02 0.  0.
          6    2    1    2  501    0  0.40534136502E+02 -0.16475049359E+02  0.97700467591E+03  0.99301862196E+03  0.17214355444E+03 0.  0.
         24    2    5    5    0    0  0.15855162050E+02 -0.18179025465E+02  0.95749198455E+03  0.96116284637E+03  0.80381923484E+02 0.  0.
          5    1    5    5  501    0  0.24678974452E+02  0.17039761062E+01  0.19512691356E+02  0.31855775591E+02  0.47000000000E+01 0. -1.
        -13    1    6    6    0    0 -0.60388985136E+01  0.24845753203E+02  0.14493943828E+03  0.14717751363E+03  0.00000000000E+00 0.  1.
         14    1    6    6    0    0  0.21894060564E+02 -0.43024778667E+02  0.81255254627E+03  0.81398533274E+03  0.00000000000E+00 0. -1.
         -5    1    3    3    0  503 -0.34320981227E+02 -0.13181993357E+02  0.17234182585E+02  0.40875441901E+02  0.47000000000E+01 0.  1.
         11    1    4    4    0    0 -0.35926711158E+02  0.25213120871E+02  0.16534810983E+03  0.17107433315E+03  0.00000000000E+00 0. -1.
        -12    1    4    4    0    0  0.29713555883E+02  0.44439218450E+01  0.34317340658E+03  0.34448603866E+03  0.00000000000E+00 0.  1.
</event>
<event>
12    1  0.8462562E-002  0.1730355E+03  0.7818608E-02  0.1174739E+00
         21   -1    0    0  501  502  0.00000000000E+00  0.00000000000E+00  0.17910037354E+03  0.17910037354E+03  0.00000000000E+00 0.  1.
         21   -1    0    0  502  503 -0.00000000000E+00 -0.00000000000E+00 -0.52625802602E+03  0.52625802602E+03  0.00000000000E+00 0.  1.
         -6    2    1    2    0  503 -0.28260139033E+02 -0.27403002101E+01 -0.46494721780E+03  0.49610200834E+03  0.17069019490E+03 0.  0.
        -24    2    3    3    0    0  0.45476778588E+02 -0.12028718851E+01 -0.32639678491E+03  0.33907395620E+03  0.79791617847E+02 0.  0.
          6    2    1    2  501    0  0.28260139033E+02  0.27403002101E+01  0.11778956532E+03  0.20925639122E+03  0.17060982054E+03 0.  0.
         24    2    5    5    0    0  0.74903084944E+02  0.37563011142E+02  0.78073937717E+02  0.13863340151E+03  0.78116760833E+02 0.  0.
          5    1    5    5  501    0 -0.46642945911E+02 -0.34822710932E+02  0.39715627604E+02  0.70622989712E+02  0.47000000000E+01 0. -1.
        -13    1    6    6    0    0  0.17191616362E+02  0.49926017096E+01  0.69552936603E+02  0.71819835248E+02  0.00000000000E+00 0.  1.
         14    1    6    6    0    0  0.57711468582E+02  0.32570409433E+02  0.85210011146E+01  0.66813566261E+02  0.00000000000E+00 0. -1.
         -5    1    3    3    0  503 -0.73736917620E+02 -0.15374283250E+01 -0.13855043289E+03  0.15702805214E+03  0.47000000000E+01 0.  1.
         13    1    4    4    0    0  0.58396068123E+02  0.14831940844E+02 -0.29780632006E+03  0.30383991099E+03  0.00000000000E+00 0. -1.
        -14    1    4    4    0    0 -0.12919289535E+02 -0.16034812729E+02 -0.28590464852E+02  0.35234045209E+02  0.00000000000E+00 0.  1.
</event>
<event>
12    1  0.8462562E-002  0.1767206E+03  0.7818608E-02  0.1171094E+00
         21   -1    0    0  501  502  0.00000000000E+00  0.00000000000E+00  0.96197683760E+03  0.96197683760E+03  0.00000000000E+00 0. -1.
         21   -1    0    0  502  503 -0.00000000000E+00 -0.00000000000E+00 -0.40907023635E+02  0.40907023635E+02  0.00000000000E+00 0. -1.
         -6    2    1    2    0  503 -0.37940559667E+02  0.25625413356E+01  0.23162021427E+03  0.29114591159E+03  0.17225552384E+03 0.  0.
        -24    2    3    3    0    0  0.36935005077E+02  0.11848246463E+02  0.17337197373E+03  0.19571257338E+03  0.82103559989E+02 0.  0.
          6    2    1    2  501    0  0.37940559667E+02 -0.25625413356E+01  0.68944959969E+03  0.71173794964E+03  0.17258072242E+03 0.  0.
         24    2    5    5    0    0 -0.43555548023E+02 -0.55589098678E+01  0.46895574195E+03  0.47659921379E+03  0.72796534511E+02 0.  0.
          5    1    5    5  501    0  0.81496107690E+02  0.29963685322E+01  0.22049385775E+03  0.23513873585E+03  0.47000000000E+01 0. -1.
        -13    1    6    6    0    0 -0.61092835072E+02 -0.15267012270E+02  0.30577155516E+03  0.31218850091E+03  0.00000000000E+00 0.  1.
         14    1    6    6    0    0  0.17537287049E+02  0.97081024024E+01  0.16318418679E+03  0.16441071287E+03  0.00000000000E+00 0. -1.
         -5    1    3    3    0  503 -0.74875564744E+02 -0.92857051276E+01  0.58248240544E+02  0.95433338210E+02  0.47000000000E+01 0.  1.
         13    1    4    4    0    0  0.36288143127E+02 -0.89514893043E-01  0.19156219749E+02  0.41034108978E+02  0.00000000000E+00 0. -1.
        -14    1    4    4    0    0  0.64686194988E+00  0.11937761356E+02  0.15421575398E+03  0.15467846441E+03  0.00000000000E+00 0.  1.
</event>
<event>
12    1  0.8462562E-002  0.1807278E+03  0.7818608E-02  0.1167150E+00
         21   -1    0    0  501  502  0.00000000000E+00  0.00000000000E+00  0.18156444041E+03  0.18156444041E+03  0.00000000000E+00 0.  1.
         21   -1    0    0  502  503 -0.00000000000E+00 -0.00000000000E+00 -0.18045742028E+03  0.18045742028E+03  0.00000000000E+00 0.  1.
         -6    2    1    2    0  503 -0.37693028348E+02 -0.39385014204E+02  0.12363100880E+02  0.18094388537E+03  0.17209270659E+03 0.  0.
        -24    2    3    3    0    0  0.16450199375E+02 -0.48540368924E+02  0.51581437240E+02  0.11330160913E+03  0.86889777816E+02 0.  0.
          6    2    1    2  501    0  0.37693028348E+02  0.39385014204E+02 -0.11256080750E+02  0.18107797532E+03  0.17230957623E+03 0.  0.
         24    2    5    5    0    0  0.48317911260E+02 -0.90085960948E+01 -0.60031169982E+02  0.11139347930E+03  0.79931161070E+02 0.  0.
          5    1    5    5  501    0 -0.10624882912E+02  0.48393610299E+02  0.48775089232E+02  0.69684496011E+02  0.47000000000E+01 0. -1.
        -13    1    6    6    0    0  0.21461211030E+02  0.22649648967E+02 -0.62446401949E+02  0.69807902801E+02  0.00000000000E+00 0.  1.
         14    1    6    6    0    0  0.26856700230E+02 -0.31658245062E+02  0.24152319664E+01  0.41585576503E+02  0.00000000000E+00 0. -1.
         -5    1    3    3    0  503 -0.54143227723E+02  0.91553547200E+01 -0.39218336361E+02  0.67642276242E+02  0.47000000000E+01 0.  1.
         11    1    4    4    0    0  0.95551735900E+00  0.61768868756E+01 -0.20532153545E+02  0.21462438680E+02  0.00000000000E+00 0. -1.
        -12    1    4    4    0    0  0.15494682016E+02 -0.54717255800E+02  0.72113590785E+02  0.91839170450E+02  0.00000000000E+00 0.  1.
</event>
<event>
12    1  0.8462562E-002  0.1844447E+03  0.7818608E-02  0.1166803E+00
         21   -1    0    0  503  502  0.00000000000E+00  0.00000000000E+00  0.13899957909E+02  0.13899957909E+02  0.00000000000E+00 0.  1.
         21   -1    0    0  501  503 -0.00000000000E+00 -0.00000000000E+00 -0.33672924157E+04  0.33672924157E+04  0.00000000000E+00 0.  1.
          6    2    1    2  501    0 -0.68173905463E+02  0.12380975231E+02 -0.75637983338E+03  0.77854370699E+03  0.17093531355E+03 0.  0.
         24    2    3    3    0    0 -0.94549577866E+02 -0.28214597120E+02 -0.62080948319E+03  0.63451216031E+03  0.86403593648E+02 0.  0.
         -6    2    1    2    0  502  0.68173905463E+02 -0.12380975231E+02 -0.25970126244E+04  0.26026486666E+04  0.15653926203E+03 0.  0.
        -24    2    5    5    0    0  0.96709909473E+00  0.15564513289E+02 -0.19234403822E+04  0.19251389909E+04  0.79334993702E+02 0.  0.
          5    1    3    3  501    0  0.26375672403E+02  0.40595572351E+02 -0.13557035019E+03  0.14403154668E+03  0.47000000000E+01 0. -1.
        -11    1    4    4    0    0 -0.34368731748E+02  0.31312540285E+02 -0.21599258879E+03  0.22093999935E+03  0.00000000000E+00 0.  1.
         12    1    4    4    0    0 -0.60180846118E+02 -0.59527137405E+02 -0.40481689440E+03  0.41357216096E+03  0.00000000000E+00 0. -1.
         -5    1    5    5    0  502  0.67206806368E+02 -0.27945488520E+02 -0.67357224217E+03  0.67750967564E+03  0.47000000000E+01 0.  1.
         13    1    6    6    0    0  0.20975353868E+02 -0.11073653652E+02 -0.20375260765E+03  0.20512853628E+03  0.00000000000E+00 0. -1.
        -14    1    6    6    0    0 -0.20008254773E+02  0.26638166941E+02 -0.17196877746E+04  0.17200104547E+04  0.00000000000E+00 0.  1.
</event>
<event>
12    1  0.8462562E-002  0.2233792E+03  0.7818608E-02  0.1131785E+00
         21   -1    0    0  503  502  0.00000000000E+00  0.00000000000E+00  0.11835015066E+03  0.11835015066E+03  0.00000000000E+00 0.  1.
         21   -1    0    0  501  503 -0.00000000000E+00 -0.00000000000E+00 -0.43439759381E+03  0.43439759381E+03  0.00000000000E+00 0.  1.
          6    2    1    2  501    0  0.93266453379E+01  0.14259545088E+03 -0.21318434233E+03  0.30878123408E+03  0.17169111154E+03 0.  0.
         24    2    3    3    0    0 -0.87300584172E+01  0.97157482283E+01 -0.42250459357E+02  0.91471449959E+02  0.80070688508E+02 0.  0.
         -6    2    1    2    0  502 -0.93266453379E+01 -0.14259545088E+03 -0.10286310083E+03  0.24396651039E+03  0.16887389305E+03 0.  0.
        -24    2    5    5    0    0  0.17903983781E+02 -0.87630281862E+01 -0.85227391776E+02  0.10617778530E+03  0.60105494633E+02 0.  0.
          5    1    3    3  501    0  0.18056703755E+02  0.13287970265E+03 -0.17093388297E+03  0.21730978412E+03  0.47000000000E+01 0. -1.
        -13    1    4    4    0    0  0.58836614080E+01  0.31691055151E+02 -0.53758167815E+02  0.62680786969E+02  0.00000000000E+00 0.  1.
         14    1    4    4    0    0 -0.14613719825E+02 -0.21975306923E+02  0.11507708458E+02  0.28790662991E+02  0.00000000000E+00 0. -1.
         -5    1    5    5    0  502 -0.27230629119E+02 -0.13383242269E+03 -0.17635709052E+02  0.13778872508E+03  0.47000000000E+01 0.  1.
         11    1    6    6    0    0  0.19129476162E+02  0.23153325080E+02 -0.52261964909E+02  0.60277079363E+02  0.00000000000E+00 0. -1.
        -12    1    6    6    0    0 -0.12254923813E+01 -0.31916353266E+02 -0.32965426868E+02  0.45900705942E+02  0.00000000000E+00 0.  1.
</event>
<event>
12    1  0.8462562E-002  0.2213947E+03  0.7818608E-02  0.1135293E+00
         21   -1    0    0  503  502  0.00000000000E+00  0.00000000000E+00  0.42342535440E+03  0.42342535440E+03  0.00000000000E+00 0.  1.
         21   -1    0    0  501  503 -0.00000000000E+00 -0.00000000000E+00 -0.11149422267E+03  0.11149422267E+03  0.00000000000E+00 0.  1.
          6    2    1    2  501    0 -0.10918227793E+03  0.55914296600E+02  0.12180667663E+03  0.25269049226E+03  0.18430529028E+03 0.  0.
         24    2    3    3    0    0  0.22382853969E+02  0.13937235350E+02  0.39779334051E+02  0.91998138564E+02  0.78651277171E+02 0.  0.
         -6    2    1    2    0  502  0.10918227793E+03 -0.55914296600E+02  0.19012445510E+03  0.28222908480E+03  0.16869727177E+03 0.  0.
        -24    2    5    5    0    0  0.72646896529E+02  0.32105904800E+02  0.11224792091E+03  0.15906563842E+03  0.79961996461E+02 0.  0.
          5    1    3    3  501    0 -0.13156513190E+03  0.41977061250E+02  0.82027342581E+02  0.16069235369E+03  0.47000000000E+01 0. -1.
        -11    1    4    4    0    0  0.33226515919E+01  0.42039698136E+00  0.60605262139E+02  0.60697730980E+02  0.00000000000E+00 0.  1.
         12    1    4    4    0    0  0.19060202377E+02  0.13516838369E+02 -0.20825928088E+02  0.31300407583E+02  0.00000000000E+00 0. -1.
         -5    1    5    5    0  502  0.36535381406E+02 -0.88020201400E+02  0.77876534187E+02  0.12316344639E+03  0.47000000000E+01 0.  1.
         11    1    6    6    0    0  0.38475808979E+02  0.34772172164E+01  0.37111862464E+00  0.38634397176E+02  0.00000000000E+00 0. -1.
        -12    1    6    6    0    0  0.34171087550E+02  0.28628687584E+02  0.11187680229E+03  0.12043124124E+03  0.00000000000E+00 0.  1.
</event>
<event>
12    1  0.8462562E-002  0.2702204E+03  0.7818608E-02  0.1101307E+00
         21   -1    0    0  501  502  0.00000000000E+00  0.00000000000E+00  0.76472331779E+03  0.76472331779E+03  0.00000000000E+00 0. -1.
         21   -1    0    0  502  503 -0.00000000000E+00 -0.00000000000E+00 -0.98070717479E+02  0.98070717479E+02  0.00000000000E+00 0.  1.
         -6    2    1    2    0  503  0.15754025240E+03  0.13640017196E+03  0.25769423635E+03  0.37262467753E+03  0.17034932586E+03 0.  0.
        -24    2    3    3    0    0  0.11611061114E+03  0.18401081362E+02  0.15593529308E+03  0.21132627986E+03  0.80763278252E+02 0.  0.
          6    2    1    2  501    0 -0.15754025240E+03 -0.13640017196E+03  0.40895836397E+03  0.49016935774E+03  0.17203231608E+03 0.  0.
         24    2    5    5    0    0 -0.15882678282E+02 -0.86170950021E+02  0.19887420506E+03  0.23181439483E+03  0.80680060198E+02 0.  0.
          5    1    5    5  501    0 -0.14165757411E+03 -0.50229221941E+02  0.21008415890E+03  0.25835496291E+03  0.47000000000E+01 0. -1.
        -11    1    6    6    0    0  0.16267090164E+01 -0.23954386111E+02  0.14206123508E+01  0.24051547468E+02  0.00000000000E+00 0.  1.
         12    1    6    6    0    0 -0.17509387299E+02 -0.62216563910E+02  0.19745359271E+03  0.20776284736E+03  0.00000000000E+00 0. -1.
         -5    1    3    3    0  503  0.41429641252E+02  0.11799909060E+03  0.10175894326E+03  0.16129839767E+03  0.47000000000E+01 0.  1.
         11    1    4    4    0    0  0.76569478729E+02  0.17299448382E+02  0.15262802600E+03  0.17163178700E+03  0.00000000000E+00 0. -1.
        -12    1    4    4    0    0  0.39541132415E+02  0.11016329799E+01  0.33072670833E+01  0.39694492860E+02  0.00000000000E+00 0.  1.
</event>
<event>
12    1  0.8462562E-002  0.1812475E+03  0.7818608E-02  0.1167124E+00
         21   -1    0    0  503  502  0.00000000000E+00  0.00000000000E+00  0.90451167149E+02  0.90451167149E+02  0.00000000000E+00 0. -1.
         21   -1    0    0  501  503 -0.00000000000E+00 -0.00000000000E+00 -0.37996235340E+03  0.37996235340E+03  0.00000000000E+00 0. -1.
          6    2    1    2  501    0  0.44456746628E+02 -0.35633202033E+02 -0.20101433727E+03  0.27066109407E+03  0.17205968919E+03 0.  0.
         24    2    3    3    0    0 -0.22919340370E+02  0.84279022654E+01 -0.15790200046E+03  0.17921886314E+03  0.81179021045E+02 0.  0.
         -6    2    1    2    0  502 -0.44456746628E+02  0.35633202033E+02 -0.88496848978E+02  0.19975242648E+03  0.16977400330E+03 0.  0.
        -24    2    5    5    0    0 -0.77217151685E+02  0.29039416341E+01 -0.10222877773E+03  0.15122300764E+03  0.80291678590E+02 0.  0.
          5    1    3    3  501    0  0.67376086998E+02 -0.44061104299E+02 -0.43112336813E+02  0.91442230926E+02  0.47000000000E+01 0. -1.
        -11    1    4    4    0    0 -0.76017079627E+01  0.17852842770E+02  0.87782024053E+00  0.19423710441E+02  0.00000000000E+00 0.  1.
         12    1    4    4    0    0 -0.15317632408E+02 -0.94249405042E+01 -0.15877982070E+03  0.15979515270E+03  0.00000000000E+00 0. -1.
         -5    1    5    5    0  502  0.32760405057E+02  0.32729260399E+02  0.13731928754E+02  0.48529418841E+02  0.47000000000E+01 0.  1.
         11    1    6    6    0    0 -0.89506191960E+02 -0.91003678196E+01 -0.67488447593E+02  0.11246717589E+03  0.00000000000E+00 0. -1.
        -12    1    6    6    0    0  0.12289040276E+02  0.12004309454E+02 -0.34740330139E+02  0.38755831749E+02  0.00000000000E+00 0.  1.
</event>
<event>
12    1  0.8462562E-002  0.2106297E+03  0.7818608E-02  0.1141075E+00
         21   -1    0    0  503  502  0.00000000000E+00  0.00000000000E+00  0.14804635120E+03  0.14804635120E+03  0.00000000000E+00 0. -1.
         21   -1    0    0  501  503 -0.00000000000E+00 -0.00000000000E+00 -0.29980150744E+03  0.29980150744E+03  0.00000000000E+00 0.  1.
          6    2    1    2  501    0  0.48243093741E+02  0.11459070175E+03 -0.81337478433E+02  0.22578892954E+03  0.17001891155E+03 0.  0.
         24    2    3    3    0    0  0.13809964403E+02  0.55241047986E+02  0.23790813410E+02  0.10016222242E+03  0.78893469293E+02 0.  0.
         -6    2    1    2    0  502 -0.48243093741E+02 -0.11459070175E+03 -0.70417677816E+02  0.22205892910E+03  0.16997968591E+03 0.  0.
        -24    2    5    5    0    0 -0.92428228776E+02 -0.10500877850E+03 -0.71936983744E+02  0.17657774945E+03  0.80218145919E+02 0.  0.
          5    1    3    3  501    0  0.34433129338E+02  0.59349653765E+02 -0.10512829184E+03  0.12562670713E+03  0.47000000000E+01 0. -1.
        -13    1    4    4    0    0  0.14252826806E+02  0.49585325779E+01 -0.25575346984E+02  0.29695597159E+02  0.00000000000E+00 0.  1.
         14    1    4    4    0    0 -0.44286240296E+00  0.50282515408E+02  0.49366160395E+02  0.70466625256E+02  0.00000000000E+00 0. -1.
         -5    1    5    5    0  502  0.44185135035E+02 -0.95819232512E+01  0.15193059287E+01  0.45481179644E+02  0.47000000000E+01 0.  1.
         11    1    6    6    0    0 -0.25660702979E+01 -0.36288026979E+02  0.90040183634E+01  0.37476365426E+02  0.00000000000E+00 0. -1.
        -12    1    6    6    0    0 -0.89862158479E+02 -0.68720751520E+02 -0.80941002108E+02  0.13910138403E+03  0.00000000000E+00 0.  1.
</event>
<event>
12    1  0.8462562E-002  0.1787963E+03  0.7818608E-02  0.1169127E+00
         21   -1    0    0  503  502  0.00000000000E+00  0.00000000000E+00  0.14968769324E+04  0.14968769324E+04  0.00000000000E+00 0. -1.
         21   -1    0    0  501  503 -0.00000000000E+00 -0.00000000000E+00 -0.39697715123E+02  0.39697715123E+02  0.00000000000E+00 0. -1.
          6    2    1    2  501    0 -0.43207681555E+02 -0.20166174219E+02  0.20461270125E+03  0.27131144263E+03  0.17166817719E+03 0.  0.
         24    2    3    3    0    0  0.19750393086E+02 -0.62799954325E+02  0.96775498481E+02  0.13927996657E+03  0.75495030910E+02 0.  0.
         -6    2    1    2    0  502  0.43207681555E+02  0.20166174219E+02  0.12525665161E+04  0.12652632049E+04  0.17232098613E+03 0.  0.
        -24    2    5    5    0    0 -0.92963208603E+01 -0.14696550648E+01  0.26924750524E+03  0.28029460318E+03  0.77345096994E+02 0.  0.
          5    1    3    3  501    0 -0.62958074641E+02  0.42633780106E+02  0.10783720277E+03  0.13203147606E+03  0.47000000000E+01 0. -1.
        -13    1    4    4    0    0  0.19125636889E+02 -0.48607513482E+02  0.10878621568E+03  0.12067692851E+03  0.00000000000E+00 0.  1.
         14    1    4    4    0    0  0.62475619679E+00 -0.14192440843E+02 -0.12010717200E+02  0.18603038059E+02  0.00000000000E+00 0. -1.
         -5    1    5    5    0  502  0.52504002415E+02  0.21635829283E+02  0.98331901082E+03  0.98496860174E+03  0.47000000000E+01 0.  1.
         11    1    6    6    0    0 -0.69106109208E+01 -0.20336481242E+02  0.25650597209E+03  0.25740365718E+03  0.00000000000E+00 0. -1.
        -12    1    6    6    0    0 -0.23857099395E+01  0.18866826177E+02  0.12741533149E+02  0.22890946003E+02  0.00000000000E+00 0.  1.
</event>
<event>
12    1  0.8462562E-002  0.2198074E+03  0.7818608E-02  0.1134500E+00
         21   -1    0    0  501  502  0.00000000000E+00  0.00000000000E+00  0.10852914894E+03  0.10852914894E+03  0.00000000000E+00 0.  1.
         21   -1    0    0  502  503 -0.00000000000E+00 -0.00000000000E+00 -0.44399852422E+03  0.44399852422E+03  0.00000000000E+00 0.  1.
         -6    2    1    2    0  503 -0.46801352735E+01  0.13623129886E+03 -0.19267659442E+03  0.29041112788E+03  0.16921430998E+03 0.  0.
        -24    2    3    3    0    0  0.49692961652E+02  0.87332236687E+02 -0.65731661912E+02  0.14383467056E+03  0.79192493807E+02 0.  0.
          6    2    1    2  501    0  0.46801352735E+01 -0.13623129886E+03 -0.14279278086E+03  0.26211654528E+03  0.17243675533E+03 0.  0.
         24    2    5    5    0    0 -0.31267611387E+02 -0.15584361258E+03 -0.10361669964E+03  0.20525057409E+03  0.78271850727E+02 0.  0.
          5    1    5    5  501    0  0.35947746660E+02  0.19612313719E+02 -0.39176081229E+02  0.56865971194E+02  0.47000000000E+01 0. -1.
        -11    1    6    6    0    0 -0.38339261142E+02 -0.25450136362E+02 -0.19909516308E+02  0.50139776878E+02  0.00000000000E+00 0.  1.
         12    1    6    6    0    0  0.70716497550E+01 -0.13039347622E+03 -0.83707183328E+02  0.15511079721E+03  0.00000000000E+00 0. -1.
         -5    1    3    3    0  503 -0.54373096925E+02  0.48899062175E+02 -0.12694493251E+03  0.14657645732E+03  0.47000000000E+01 0.  1.
         11    1    4    4    0    0  0.79399337146E+00 -0.19919439332E+01  0.14210682467E+02  0.14371560885E+02  0.00000000000E+00 0. -1.
        -12    1    4    4    0    0  0.48898968280E+02  0.89324180620E+02 -0.79942344379E+02  0.12946310968E+03  0.00000000000E+00 0.  1.
</event>
<event>
12    1  0.8462562E-002  0.2115612E+03  0.7818608E-02  0.1140795E+00
         21   -1    0    0  501  502  0.00000000000E+00  0.00000000000E+00  0.94902442961E+02  0.94902442961E+02  0.00000000000E+00 0. -1.
         21   -1    0    0  502  503 -0.00000000000E+00 -0.00000000000E+00 -0.60482745856E+03  0.60482745856E+03  0.00000000000E+00 0.  1.
         -6    2    1    2    0  503 -0.11115212649E+03 -0.53354623822E+02 -0.42122169865E+03  0.47032545714E+03  0.16904675422E+03 0.  0.
        -24    2    3    3    0    0 -0.26952864139E+01  0.21059487125E+02 -0.16475028134E+03  0.18205470946E+03  0.74501647427E+02 0.  0.
          6    2    1    2  501    0  0.11115212649E+03  0.53354623822E+02 -0.88703316940E+02  0.22940444437E+03  0.17192035818E+03 0.  0.
         24    2    5    5    0    0 -0.48215606722E+01  0.17023797426E+02 -0.67783331834E+02  0.10599633752E+03  0.79546127289E+02 0.  0.
          5    1    5    5  501    0  0.11597368716E+03  0.36330826395E+02 -0.20919985106E+02  0.12340810686E+03  0.47000000000E+01 0. -1.
        -11    1    6    6    0    0 -0.20922320472E+01  0.60542024475E+01  0.18189047622E+02  0.19283989619E+02  0.00000000000E+00 0.  1.
         12    1    6    6    0    0 -0.27293286250E+01  0.10969594979E+02 -0.85972379457E+02  0.86712347899E+02  0.00000000000E+00 0. -1.
         -5    1    3    3    0  503 -0.10845684008E+03 -0.74414110947E+02 -0.25647141732E+03  0.28827074768E+03  0.47000000000E+01 0.  1.
         13    1    4    4    0    0  0.18766188444E+02 -0.15362061662E+02 -0.20557504513E+02  0.31792668322E+02  0.00000000000E+00 0. -1.
        -14    1    4    4    0    0 -0.21461474857E+02  0.36421548787E+02 -0.14419277682E+03  0.15026204114E+03  0.00000000000E+00 0.  1.
</event>
<event>
12    1  0.8462562E-002  0.2225548E+03  0.7818608E-02  0.1132103E+00
         21   -1    0    0  501  502  0.00000000000E+00  0.00000000000E+00  0.48742040277E+02  0.48742040277E+02  0.00000000000E+00 0. -1.
         21   -1    0    0  502  503 -0.00000000000E+00 -0.00000000000E+00 -0.10434955707E+04  0.10434955707E+04  0.00000000000E+00 0. -1.
         -6    2    1    2    0  503  0.59724709079E+02 -0.12731675727E+03 -0.40404791945E+03  0.46099775256E+03  0.17171956527E+03 0.  0.
        -24    2    3    3    0    0  0.53928530703E+02  0.10160539416E+01 -0.20599824143E+03  0.22488618766E+03  0.72313229332E+02 0.  0.
          6    2    1    2  501    0 -0.59724709079E+02  0.12731675727E+03 -0.59070561093E+03  0.63123985838E+03  0.17249360122E+03 0.  0.
         24    2    5    5    0    0 -0.77545074800E+02  0.14852002627E+03 -0.55918578495E+03  0.58901742973E+03  0.78621584867E+02 0.  0.
          5    1    5    5  501    0  0.17820365720E+02 -0.21203269004E+02 -0.31519825984E+02  0.42222428648E+02  0.47000000000E+01 0. -1.
        -13    1    6    6    0    0  0.10897163655E+02  0.44715651917E+02 -0.10150815857E+03  0.11145467221E+03  0.00000000000E+00 0.  1.
         14    1    6    6    0    0 -0.88442238454E+02  0.10380437436E+03 -0.45767762638E+03  0.47756275751E+03  0.00000000000E+00 0. -1.
         -5    1    3    3    0  503  0.57961783766E+01 -0.12833281121E+03 -0.19804967802E+03  0.23611156490E+03  0.47000000000E+01 0.  1.
         13    1    4    4    0    0  0.19166585512E+02 -0.32882821905E+02 -0.60269156306E+02  0.71281197930E+02  0.00000000000E+00 0. -1.
        -14    1    4    4    0    0  0.34761945191E+02  0.33898875846E+02 -0.14572908513E+03  0.15360498973E+03  0.00000000000E+00 0.  1.
</event>
<event>
12    1  0.8462562E-002  0.2276275E+03  0.7818608E-02  0.1128571E+00
         21   -1    0    0  501  502  0.00000000000E+00  0.00000000000E+00  0.89919041544E+02  0.89919041544E+02  0.00000000000E+00 0. -1.
         21   -1    0    0  502  503 -0.00000000000E+00 -0.00000000000E+00 -0.57658297927E+03  0.57658297927E+03  0.00000000000E+00 0.  1.
         -6    2    1    2    0  503 -0.94663057619E+02 -0.11342165572E+03 -0.21671588829E+03  0.31429291868E+03  0.17317244593E+03 0.  0.
        -24    2    3    3    0    0 -0.90842974168E+02 -0.77330386643E+02 -0.64187463752E+02  0.15743571281E+03  0.80209341789E+02 0.  0.
          6    2    1    2  501    0  0.94663057619E+02  0.11342165572E+03 -0.26994804944E+03  0.35220910214E+03  0.17132931965E+03 0.  0.
         24    2    5    5    0    0  0.10166485184E+03  0.14334646520E+03 -0.24632405626E+03  0.31316166434E+03  0.80689132681E+02 0.  0.
          5    1    5    5  501    0 -0.70017942236E+01 -0.29924809485E+02 -0.23623993177E+02  0.39047437799E+02  0.47000000000E+01 0. -1.
        -13    1    6    6    0    0  0.38142445169E+02  0.11388802850E+03 -0.12691008637E+03  0.17473265059E+03  0.00000000000E+00 0.  1.
         14    1    6    6    0    0  0.63522406673E+02  0.29458436700E+02 -0.11941396990E+03  0.13842901375E+03  0.00000000000E+00 0. -1.
         -5    1    3    3    0  503 -0.38200834503E+01 -0.36091269076E+02 -0.15252842454E+03  0.15685720587E+03  0.47000000000E+01 0.  1.
         11    1    4    4    0    0 -0.28808431562E+02  0.13453103947E+02 -0.38855552923E+01  0.32031379534E+02  0.00000000000E+00 0. -1.
        -12    1    4    4    0    0 -0.62034542606E+02 -0.90783490590E+02 -0.60301908459E+02  0.12540433327E+03  0.00000000000E+00 0.  1.
</event>
<event>
12    1  0.8462562E-002  0.2653761E+03  0.7818608E-02  0.1103957E+00
         21   -1    0    0  501  502  0.00000000000E+00  0.00000000000E+00  0.14865231138E+03  0.14865231138E+03  0.00000000000E+00 0. -1.
         21   -1    0    0  502  503 -0.00000000000E+00 -0.00000000000E+00 -0.47570583095E+03  0.47570583095E+03  0.00000000000E+00 0.  1.
         -6    2    1    2    0  503  0.19224486925E+03 -0.67440282310E+02 -0.18361418751E+03  0.32269717750E+03  0.17003828123E+03 0.  0.
        -24    2    3    3    0    0  0.19426929847E+03 -0.74549051977E+02 -0.11072374956E+03  0.24928233661E+03  0.81140699712E+02 0.  0.
          6    2    1    2  501    0 -0.19224486925E+03  0.67440282310E+02 -0.14343933206E+03  0.30166096482E+03  0.17005356299E+03 0.  0.
         24    2    5    5    0    0 -0.64591810231E+02 -0.61611472110E+01 -0.10085794826E+03  0.14820824197E+03  0.87082119735E+02 0.  0.
          5    1    5    5  501    0 -0.12765305902E+03  0.73601429521E+02 -0.42581383806E+02  0.15345272285E+03  0.47000000000E+01 0. -1.
        -13    1    6    6    0    0 -0.84989909091E+02 -0.15098572713E+02 -0.79518784221E+02  0.11736476724E+03  0.00000000000E+00 0.  1.
         14    1    6    6    0    0  0.20398098860E+02  0.89374255021E+01 -0.21339164038E+02  0.30843474732E+02  0.00000000000E+00 0. -1.
         -5    1    3    3    0  503 -0.20244292195E+01  0.71087696671E+01 -0.72890437945E+02  0.73414840896E+02  0.47000000000E+01 0.  1.
         13    1    4    4    0    0  0.82927931162E+02 -0.62129095359E+02 -0.20944448072E+02  0.10571535443E+03  0.00000000000E+00 0. -1.
        -14    1    4    4    0    0  0.11134136730E+03 -0.12419956618E+02 -0.89779301491E+02  0.14356698218E+03  0.00000000000E+00 0.  1.
</event>
<event>
12    1  0.8462562E-002  0.2433078E+03  0.7818608E-02  0.1117631E+00
         21   -1    0    0  503  502  0.00000000000E+00  0.00000000000E+00  0.34551936684E+03  0.34551936684E+03  0.00000000000E+00 0. -1.
         21   -1    0    0  501  503 -0.00000000000E+00 -0.00000000000E+00 -0.20531511851E+03  0.20531511851E+03  0.00000000000E+00 0.  1.
          6    2    1    2  501    0 -0.12916286269E+03 -0.11170146510E+03  0.18232570578E+03  0.30404170733E+03  0.17331599581E+03 0.  0.
         24    2    3    3    0    0 -0.93977582683E+01 -0.87742297112E+02  0.65836150204E+02  0.13519376234E+03  0.78459710297E+02 0.  0.
         -6    2    1    2    0  502  0.12916286269E+03  0.11170146510E+03 -0.42121457453E+02  0.24679277802E+03  0.17312479805E+03 0.  0.
        -24    2    5    5    0    0  0.10724356248E+03  0.48290738056E+02  0.32533255608E+02  0.14630998244E+03  0.80715681036E+02 0.  0.
          5    1    3    3  501    0 -0.11976510442E+03 -0.23959167990E+02  0.11648955558E+03  0.16884794499E+03  0.47000000000E+01 0. -1.
        -11    1    4    4    0    0  0.31784931497E+02 -0.40636320306E+02  0.12761417203E+02  0.53145518789E+02  0.00000000000E+00 0.  1.
         12    1    4    4    0    0 -0.41182689766E+02 -0.47105976806E+02  0.53074733001E+02  0.82048243554E+02  0.00000000000E+00 0. -1.
         -5    1    5    5    0  502  0.21919300211E+02  0.63410727046E+02 -0.74654713060E+02  0.10048279558E+03  0.47000000000E+01 0.  1.
         11    1    6    6    0    0  0.14018105154E+02 -0.14589619353E+02  0.26979515156E+02  0.33723263529E+02  0.00000000000E+00 0. -1.
        -12    1    6    6    0    0  0.93225457326E+02  0.62880357409E+02  0.55537404510E+01  0.11258671891E+03  0.00000000000E+00 0.  1.
</event>
<event>
12    1  0.8462562E-002  0.2480325E+03  0.7818608E-02  0.1114756E+00
         21   -1    0    0  501  502  0.00000000000E+00  0.00000000000E+00  0.39408671296E+03  0.39408671296E+03  0.00000000000E+00 0.  1.
         21   -1    0    0  502  503 -0.00000000000E+00 -0.00000000000E+00 -0.17126332644E+03  0.17126332644E+03  0.00000000000E+00 0.  1.
         -6    2    1    2    0  503  0.14842241171E+03 -0.97451880180E+02  0.25410932269E+02  0.24933080354E+03  0.17318791202E+03 0.  0.
        -24    2    3    3    0    0  0.16359141434E+02 -0.59055536939E+02 -0.25931209246E+02  0.10245299029E+03  0.77903848786E+02 0.  0.
          6    2    1    2  501    0 -0.14842241171E+03  0.97451880180E+02  0.19741245425E+03  0.31601923586E+03  0.17137794226E+03 0.  0.
         24    2    5    5    0    0 -0.66259728744E+02 -0.16988900302E+02  0.72392135784E+02  0.12760594350E+03  0.79772683961E+02 0.  0.
          5    1    5    5  501    0 -0.82162682961E+02  0.11444078048E+03  0.12502031847E+03  0.18841329236E+03  0.47000000000E+01 0. -1.
        -11    1    6    6    0    0 -0.79730762445E+02 -0.57320646532E+01  0.36968932560E+02  0.88071295096E+02  0.00000000000E+00 0.  1.
         12    1    6    6    0    0  0.13471033701E+02 -0.11256835649E+02  0.35423203224E+02  0.39534648404E+02  0.00000000000E+00 0. -1.
         -5    1    3    3    0  503  0.13206327027E+03 -0.38396343241E+02  0.51342141515E+02  0.14687781325E+03  0.47000000000E+01 0.  1.
         13    1    4    4    0    0 -0.11145496169E+02 -0.36502875717E+02  0.21002897627E+02  0.43563789197E+02  0.00000000000E+00 0. -1.
        -14    1    4    4    0    0  0.27504637603E+02 -0.22552661222E+02 -0.46934106874E+02  0.58889201097E+02  0.00000000000E+00 0.  1.
</event>
<event>
12    1  0.8462562E-002  0.2000617E+03  0.7818608E-02  0.1150006E+00
         21   -1    0    0  503  502  0.00000000000E+00  0.00000000000E+00  0.54955580834E+02  0.54955580834E+02  0.00000000000E+00 0. -1.
         21   -1    0    0  501  503 -0.00000000000E+00 -0.00000000000E+00 -0.72819554635E+03  0.72819554635E+03  0.00000000000E+00 0. -1.
          6    2    1    2  501    0  0.99334684830E+02  0.22737801485E+02 -0.30430187056E+03  0.36417622502E+03  0.17216360596E+03 0.  0.
         24    2    3    3    0    0  0.63189658287E+01 -0.12780829144E+02 -0.58555651508E+02  0.98984235544E+02  0.78522835150E+02 0.  0.
         -6    2    1    2    0  502 -0.99334684830E+02 -0.22737801485E+02 -0.36893809495E+03  0.41897490216E+03  0.17041204039E+03 0.  0.
        -24    2    5    5    0    0 -0.36222850873E+02 -0.12488385334E+02 -0.71502669585E+02  0.11470844594E+03  0.81100808378E+02 0.  0.
          5    1    3    3  501    0  0.93015719001E+02  0.35518630629E+02 -0.24574621905E+03  0.26519198948E+03  0.47000000000E+01 0. -1.
        -11    1    4    4    0    0 -0.22448220886E+02 -0.35820507385E+02 -0.24829043878E+02  0.49025634011E+02  0.00000000000E+00 0.  1.
         12    1    4    4    0    0  0.28767186714E+02  0.23039678241E+02 -0.33726607630E+02  0.49958601533E+02  0.00000000000E+00 0. -1.
         -5    1    5    5    0  502 -0.63111833957E+02 -0.10249416151E+02 -0.29743542537E+03  0.30426645622E+03  0.47000000000E+01 0.  1.
         11    1    6    6    0    0 -0.47896747795E+02 -0.22539845464E+02 -0.80888077703E+02  0.96669665342E+02  0.00000000000E+00 0. -1.
        -12    1    6    6    0    0  0.11673896922E+02  0.10051460130E+02  0.93854081173E+01  0.18038780602E+02  0.00000000000E+00 0.  1.
</event>
<event>
12    1  0.8462562E-002  0.2140556E+03  0.7818608E-02  0.1138541E+00
         21   -1    0    0  503  502  0.00000000000E+00  0.00000000000E+00  0.30842859982E+03  0.30842859982E+03  0.00000000000E+00 0. -1.
         21   -1    0    0  501  503 -0.00000000000E+00 -0.00000000000E+00 -0.25080652506E+03  0.25080652506E+03  0.00000000000E+00 0. -1.
          6    2    1    2  501    0  0.28133025424E+02 -0.12451628292E+03 -0.15021202702E+03  0.26088161136E+03  0.17087946117E+03 0.  0.
         24    2    3    3    0    0  0.15591171915E+02 -0.10273478404E+03 -0.25832418356E+02  0.13390086938E+03  0.80402789055E+02 0.  0.
         -6    2    1    2    0  502 -0.28133025424E+02  0.12451628292E+03  0.20783410178E+03  0.29835351353E+03  0.17182558988E+03 0.  0.
        -24    2    5    5    0    0 -0.48879272519E+02  0.17827377983E+02  0.13738245648E+03  0.16874466533E+03  0.83029055403E+02 0.  0.
          5    1    3    3  501    0  0.12541853510E+02 -0.21781498881E+02 -0.12437960867E+03  0.12698074198E+03  0.47000000000E+01 0. -1.
        -11    1    4    4    0    0 -0.26836053022E+02 -0.61683435637E+02 -0.32096389179E+02  0.74533201811E+02  0.00000000000E+00 0.  1.
         12    1    4    4    0    0  0.42427224937E+02 -0.41051348404E+02  0.62639708235E+01  0.59367667565E+02  0.00000000000E+00 0. -1.
         -5    1    5    5    0  502  0.20746247095E+02  0.10668890494E+03  0.70451645300E+02  0.12960884820E+03  0.47000000000E+01 0.  1.
         11    1    6    6    0    0 -0.53043096050E+02  0.44146035955E+02  0.81202293924E+02  0.10656573121E+03  0.00000000000E+00 0. -1.
        -12    1    6    6    0    0  0.41638235305E+01 -0.26318657972E+02  0.56180162556E+02  0.62178934123E+02  0.00000000000E+00 0.  1.
</event>
<event>
12    1  0.8462562E-002  0.1900221E+03  0.7818608E-02  0.1158566E+00
         21   -1    0    0  501  502  0.00000000000E+00  0.00000000000E+00  0.39117384752E+03  0.39117384752E+03  0.00000000000E+00 0. -1.
         21   -1    0    0  502  503 -0.00000000000E+00 -0.00000000000E+00 -0.13106569329E+03  0.13106569329E+03  0.00000000000E+00 0. -1.
         -6    2    1    2    0  503  0.14776754487E+02 -0.79544937420E+02 -0.12299044285E+02  0.19041970173E+03  0.17193791547E+03 0.  0.
        -24    2    3    3    0    0  0.15142534932E+02 -0.20956562009E+02 -0.70169185455E+02  0.10793470450E+03  0.77831304716E+02 0.  0.
          6    2    1    2  501    0 -0.14776754487E+02  0.79544937420E+02  0.27240719852E+03  0.33181983908E+03  0.17132709728E+03 0.  0.
         24    2    5    5    0    0 -0.10797206548E+02  0.54186033702E+01  0.45910492833E+02  0.93422276410E+02  0.80461217028E+02 0.  0.
          5    1    5    5  501    0 -0.39795479396E+01  0.74126334049E+02  0.22649670568E+03  0.23839756267E+03  0.47000000000E+01 0. -1.
        -13    1    6    6    0    0 -0.41517574642E+02  0.16792254321E+02  0.40178313910E+02  0.60166317139E+02  0.00000000000E+00 0.  1.
         14    1    6    6    0    0  0.30720368095E+02 -0.11373650951E+02  0.57321789230E+01  0.33255959271E+02  0.00000000000E+00 0. -1.
         -5    1    3    3    0  503 -0.36578044459E+00 -0.58588375411E+02  0.57870141170E+02  0.82484997228E+02  0.47000000000E+01 0.  1.
         13    1    4    4    0    0  0.23373796322E+00  0.27704164819E+02 -0.40359583160E+02  0.48953767318E+02  0.00000000000E+00 0. -1.
        -14    1    4    4    0    0  0.14908796969E+02 -0.48660726828E+02 -0.29809602295E+02  0.58980937187E+02  0.00000000000E+00 0.  1.
</event>
<event>
12    1  0.8462562E-002  0.2155405E+03  0.7818608E-02  0.1137443E+00
         21   -1    0    0  503  502  0.00000000000E+00  0.00000000000E+00  0.12393306845E+03  0.12393306845E+03  0.00000000000E+00 0.  1.
         21   -1    0    0  501  503 -0.00000000000E+00 -0.00000000000E+00 -0.45227498083E+03  0.45227498083E+03  0.00000000000E+00 0. -1.
          6    2    1    2  501    0  0.23884971094E+02  0.12807669852E+03 -0.28499882245E+03  0.35732622565E+03  0.17170780468E+03 0.  0.
         24    2    3    3    0    0 -0.21886161800E+02  0.65721266854E+02 -0.25175176474E+03  0.27300153584E+03  0.79703190188E+02 0.  0.
         -6    2    1    2    0  502 -0.23884971094E+02 -0.12807669852E+03 -0.43343089939E+02  0.21888182363E+03  0.17045966304E+03 0.  0.
        -24    2    5    5    0    0 -0.68491034978E+02 -0.44394772410E+02  0.68952798008E-01  0.11448325493E+03  0.80277600955E+02 0.  0.
          5    1    3    3  501    0  0.45771132894E+02  0.62355431664E+02 -0.33247057707E+02  0.84324689804E+02  0.47000000000E+01 0. -1.
        -13    1    4    4    0    0  0.73819447162E+01 -0.16522154211E+02 -0.49976437371E+02  0.53151848321E+02  0.00000000000E+00 0.  1.
         14    1    4    4    0    0 -0.29268106516E+02  0.82243421066E+02 -0.20177532737E+03  0.21984968752E+03  0.00000000000E+00 0. -1.
         -5    1    5    5    0  502  0.44606063884E+02 -0.83681926109E+02 -0.43412042737E+02  0.10439856870E+03  0.47000000000E+01 0.  1.
         11    1    6    6    0    0 -0.84945274470E+01 -0.39607685727E+01  0.33497557458E+02  0.34784063016E+02  0.00000000000E+00 0. -1.
        -12    1    6    6    0    0 -0.59996507531E+02 -0.40434003837E+02 -0.33428604660E+02  0.79699191914E+02  0.00000000000E+00 0.  1.
</event>
<event>
12    1  0.8462562E-002  0.1753879E+03  0.7818608E-02  0.1172459E+00
         21   -1    0    0  503  502  0.00000000000E+00  0.00000000000E+00  0.90470971664E+02  0.90470971664E+02  0.00000000000E+00 0.  1.
         21   -1    0    0  501  503 -0.00000000000E+00 -0.00000000000E+00 -0.15061006188E+04  0.15061006188E+04  0.00000000000E+00 0.  1.
          6    2    1    2  501    0  0.31961919980E+01  0.31770097178E+02 -0.14102956296E+04  0.14211025777E+04  0.17198610090E+03 0.  0.
         24    2    3    3    0    0  0.17706478635E+02  0.76887071537E+01 -0.13653962102E+04  0.13679188432E+04  0.80762088900E+02 0.  0.
         -6    2    1    2    0  502 -0.31961919980E+01 -0.31770097178E+02 -0.53340175413E+01  0.17546901272E+03  0.17245685827E+03 0.  0.
        -24    2    5    5    0    0 -0.75278115992E+01 -0.52987439207E+02 -0.65122037934E+02  0.11170667341E+03  0.73301871732E+02 0.  0.
          5    1    3    3  501    0 -0.14510286637E+02  0.24081390024E+02 -0.44899419388E+02  0.53183734592E+02  0.47000000000E+01 0. -1.
        -13    1    4    4    0    0 -0.38307309545E+01 -0.34551294923E+02 -0.48271695323E+03  0.48396706852E+03  0.00000000000E+00 0.  1.
         14    1    4    4    0    0  0.21537209589E+02  0.42240002077E+02 -0.88267925698E+03  0.88395177463E+03  0.00000000000E+00 0. -1.
         -5    1    5    5    0  502  0.43316196012E+01  0.21217342029E+02  0.59788020392E+02  0.63762339304E+02  0.47000000000E+01 0.  1.
         11    1    6    6    0    0 -0.32240984475E+02 -0.55934095962E+02 -0.38078798509E+02  0.74953979660E+02  0.00000000000E+00 0. -1.
        -12    1    6    6    0    0  0.24713172875E+02  0.29466567554E+01 -0.27043239424E+02  0.36752693754E+02  0.00000000000E+00 0.  1.
</event>
<event>
12    1  0.8462562E-002  0.1888958E+03  0.7818608E-02  0.1160348E+00
         21   -1    0    0  501  502  0.00000000000E+00  0.00000000000E+00  0.15349820705E+03  0.15349820705E+03  0.00000000000E+00 0.  1.
         21   -1    0    0  502  503 -0.00000000000E+00 -0.00000000000E+00 -0.26418591256E+03  0.26418591256E+03  0.00000000000E+00 0. -1.
         -6    2    1    2    0  503  0.36640024887E+02 -0.65123455999E+02 -0.13242869682E+03  0.22754128769E+03  0.16927528443E+03 0.  0.
        -24    2    3    3    0    0 -0.31135590269E+02 -0.33310141160E+02 -0.20334738143E+02  0.92660723551E+02  0.78060986595E+02 0.  0.
          6    2    1    2  501    0 -0.36640024887E+02  0.65123455999E+02  0.21740991310E+02  0.19014283192E+03  0.17348795313E+03 0.  0.
         24    2    5    5    0    0  0.57860595006E+01  0.75422049599E+02  0.65712212815E+02  0.12800112300E+03  0.79650665570E+02 0.  0.
          5    1    5    5  501    0 -0.42426084388E+02 -0.10298593600E+02 -0.43971221506E+02  0.62141708918E+02  0.47000000000E+01 0. -1.
        -11    1    6    6    0    0  0.87628910794E+00  0.72266333522E+02  0.11148879502E+02  0.73126522941E+02  0.00000000000E+00 0.  1.
         12    1    6    6    0    0  0.49097703926E+01  0.31557160770E+01  0.54563333313E+02  0.54874600058E+02  0.00000000000E+00 0. -1.
         -5    1    3    3    0  503  0.67775615156E+02 -0.31813314840E+02 -0.11209395868E+03  0.13488056414E+03  0.47000000000E+01 0.  1.
         11    1    4    4    0    0  0.10904764207E+02  0.17674544120E+02 -0.16398576229E+02  0.26461607937E+02  0.00000000000E+00 0. -1.
        -12    1    4    4    0    0 -0.42040354475E+02 -0.50984685280E+02 -0.39361619139E+01  0.66199115615E+02  0.00000000000E+00 0.  1.
</event>
<event>
12    1  0.8462562E-002  0.2829825E+03  0.7818608E-02  0.1094285E+00
         21   -1    0    0  503  502  0.00000000000E+00  0.00000000000E+00  0.66295103412E+02  0.66295103412E+02  0.00000000000E+00 0. -1.
         21   -1    0    0  501  503 -0.00000000000E+00 -0.00000000000E+00 -0.13068974614E+04  0.13068974614E+04  0.00000000000E+00 0.  1.
          6    2    1    2  501    0  0.22327439083E+03 -0.98474135897E+01 -0.81398490716E+03  0.86125356385E+03  0.17099078045E+03 0.  0.
         24    2    3    3    0    0  0.10456717249E+03 -0.88712638721E+01 -0.61950110203E+03  0.63335359234E+03  0.79637708600E+02 0.  0.
         -6    2    1    2    0  502 -0.22327439083E+03  0.98474135897E+01 -0.42661745085E+03  0.51193900098E+03  0.17358187176E+03 0.  0.
        -24    2    5    5    0    0 -0.14904857706E+03 -0.23834031735E+02 -0.16292439604E+03  0.23589547481E+03  0.79490734166E+02 0.  0.
          5    1    3    3  501    0  0.11870721834E+03 -0.97614971766E+00 -0.19448380514E+03  0.22789997151E+03  0.47000000000E+01 0. -1.
        -13    1    4    4    0    0  0.11468408109E+03  0.47214556685E+01 -0.53675092775E+03  0.54888640814E+03  0.00000000000E+00 0.  1.
         14    1    4    4    0    0 -0.10116908595E+02 -0.13592719541E+02 -0.82750174277E+02  0.84467184201E+02  0.00000000000E+00 0. -1.
         -5    1    5    5    0  502 -0.74225813777E+02  0.33681445325E+02 -0.26369305481E+03  0.27604352618E+03  0.47000000000E+01 0.  1.
         13    1    6    6    0    0 -0.15237579982E+03 -0.27599642794E+02 -0.12884513902E+03  0.20144774633E+03  0.00000000000E+00 0. -1.
        -14    1    6    6    0    0  0.33272227659E+01  0.37656110592E+01 -0.34079257018E+02  0.34447728472E+02  0.00000000000E+00 0.  1.
</event>
<event>
12    1  0.8462562E-002  0.2028061E+03  0.7818608E-02  0.1148206E+00
         21   -1    0    0  503  502  0.00000000000E+00  0.00000000000E+00  0.89840844218E+03  0.89840844218E+03  0.00000000000E+00 0. -1.
         21   -1    0    0  501  503 -0.00000000000E+00 -0.00000000000E+00 -0.54933658142E+02  0.54933658142E+02  0.00000000000E+00 0. -1.
          6    2    1    2  501    0  0.96019445349E+02  0.33701733002E+01  0.22144506062E+03  0.30028025262E+03  0.17860353661E+03 0.  0.
         24    2    3    3    0    0  0.43630587454E+02 -0.67087092439E+02  0.10824089353E+03  0.15694117152E+03  0.80685402342E+02 0.  0.
         -6    2    1    2    0  502 -0.96019445349E+02 -0.33701733002E+01  0.62202972342E+03  0.65306184770E+03  0.17417723200E+03 0.  0.
        -24    2    5    5    0    0 -0.78722962251E+02 -0.40289100939E+02  0.58920689430E+03  0.60051088522E+03  0.75020280860E+02 0.  0.
          5    1    3    3  501    0  0.52388857894E+02  0.70457265739E+02  0.11320416708E+03  0.14333908110E+03  0.47000000000E+01 0. -1.
        -11    1    4    4    0    0 -0.23066608763E+02 -0.25061527730E+02  0.24679069341E+02  0.42061919542E+02  0.00000000000E+00 0.  1.
         12    1    4    4    0    0  0.66697196217E+02 -0.42025564709E+02  0.83561824192E+02  0.11487925198E+03  0.00000000000E+00 0. -1.
         -5    1    5    5    0  502 -0.17296483098E+02  0.36918927639E+02  0.32822829122E+02  0.52550962476E+02  0.47000000000E+01 0.  1.
         13    1    6    6    0    0 -0.89822768957E+02 -0.44018914726E+02  0.45871565503E+03  0.46949531078E+03  0.00000000000E+00 0. -1.
        -14    1    6    6    0    0  0.11099806706E+02  0.37298137861E+01  0.13049123927E+03  0.13101557444E+03  0.00000000000E+00 0.  1.
</event>
<event>
12    1  0.8462562E-002  0.1735043E+03  0.7818608E-02  0.1174301E+00
         21   -1    0    0  501  502  0.00000000000E+00  0.00000000000E+00  0.51392543114E+02  0.51392543114E+02  0.00000000000E+00 0. -1.
         21   -1    0    0  502  503 -0.00000000000E+00 -0.00000000000E+00 -0.58505336591E+03  0.58505336591E+03  0.00000000000E+00 0. -1.
         -6    2    1    2    0  503 -0.26586517333E+02  0.41223104719E+01 -0.27021463867E+03  0.32099759175E+03  0.17117145385E+03 0.  0.
        -24    2    3    3    0    0 -0.69200417137E+02  0.13412529478E+01 -0.10022098920E+03  0.14565903468E+03  0.79886237958E+02 0.  0.
          6    2    1    2  501    0  0.26586517333E+02 -0.41223104719E+01 -0.26344618413E+03  0.31544831728E+03  0.17140569592E+03 0.  0.
         24    2    5    5    0    0  0.16312769315E+02 -0.27601137574E+02 -0.46715206130E+02  0.97156741522E+02  0.78925234883E+02 0.  0.
          5    1    5    5  501    0  0.10273748018E+02  0.23478827102E+02 -0.21673097800E+03  0.21829157576E+03  0.47000000000E+01 0. -1.
        -11    1    6    6    0    0 -0.26006158077E+02  0.10669382859E+02 -0.16456803009E+02  0.32572724077E+02  0.00000000000E+00 0.  1.
         12    1    6    6    0    0  0.42318927392E+02 -0.38270520434E+02 -0.30258403121E+02  0.64584017445E+02  0.00000000000E+00 0. -1.
         -5    1    3    3    0  503  0.42613899804E+02  0.27810575241E+01 -0.16999364947E+03  0.17533855708E+03  0.47000000000E+01 0.  1.
         13    1    4    4    0    0 -0.38075272641E+02 -0.36037290724E+02 -0.73138185646E+02  0.89986704068E+02  0.00000000000E+00 0. -1.
        -14    1    4    4    0    0 -0.31125144496E+02  0.37378543672E+02 -0.27082803553E+02  0.55672330607E+02  0.00000000000E+00 0.  1.
</event>
<event>
12    1  0.8462562E-002  0.1738276E+03  0.7818608E-02  0.1173922E+00
         21   -1    0    0  503  502  0.00000000000E+00  0.00000000000E+00  0.18641387146E+03  0.18641387146E+03  0.00000000000E+00 0.  1.
         21   -1    0    0  501  503 -0.00000000000E+00 -0.00000000000E+00 -0.26622451421E+03  0.26622451421E+03  0.00000000000E+00 0.  1.
          6    2    1    2  501    0 -0.28172726396E+02  0.17666178953E+01 -0.18147151417E+03  0.25129252570E+03  0.17152025993E+03 0.  0.
         24    2    3    3    0    0 -0.30963309988E+02 -0.59318046907E+02 -0.74731619381E+02  0.12818842841E+03  0.79812912418E+02 0.  0.
         -6    2    1    2    0  502  0.28172726396E+02 -0.17666178953E+01  0.10166087142E+03  0.20134585997E+03  0.17148877252E+03 0.  0.
        -24    2    5    5    0    0 -0.63748389271E+01 -0.26849367652E+02 -0.58903537914E+01  0.85535520845E+02  0.80747148208E+02 0.  0.
          5    1    3    3  501    0  0.27905835926E+01  0.61084664802E+02 -0.10673989479E+03  0.12310409729E+03  0.47000000000E+01 0. -1.
        -11    1    4    4    0    0 -0.81173752737E+01 -0.11347725647E+02 -0.73738041975E+02  0.75046395603E+02  0.00000000000E+00 0.  1.
         12    1    4    4    0    0 -0.22845934714E+02 -0.47970321260E+02 -0.99357740595E+00  0.53142032806E+02  0.00000000000E+00 0. -1.
         -5    1    5    5    0  502  0.34547565323E+02  0.25082749756E+02  0.10755122521E+03  0.11581033913E+03  0.47000000000E+01 0.  1.
         13    1    6    6    0    0  0.33933812124E+02 -0.29369081209E+02 -0.47921895643E+01  0.45133265084E+02  0.00000000000E+00 0. -1.
        -14    1    6    6    0    0 -0.40308651051E+02  0.25197135571E+01 -0.10981642271E+01  0.40402255761E+02  0.00000000000E+00 0.  1.
</event>
<event>
12    1  0.8462562E-002  0.1768979E+03  0.7818608E-02  0.1171477E+00
         21   -1    0    0  501  502  0.00000000000E+00  0.00000000000E+00  0.38968470253E+03  0.38968470253E+03  0.00000000000E+00 0.  1.
         21   -1    0    0  502  503 -0.00000000000E+00 -0.00000000000E+00 -0.94496294682E+02  0.94496294682E+02  0.00000000000E+00 0. -1.
         -6    2    1    2    0  503  0.30547474029E+02  0.94677190134E+01  0.49126245920E+02  0.18113072128E+03  0.17138309216E+03 0.  0.
        -24    2    3    3    0    0  0.25634385852E+02 -0.54930620069E+02 -0.23511203582E-01  0.99834515111E+02  0.79324870599E+02 0.  0.
          6    2    1    2  501    0 -0.30547474029E+02 -0.94677190134E+01  0.24606216193E+03  0.30305027593E+03  0.17398303463E+03 0.  0.
         24    2    5    5    0    0 -0.37283486234E+02  0.11437125900E+02  0.26133798842E+03  0.27588729973E+03  0.79343504891E+02 0.  0.
          5    1    5    5  501    0  0.67360122051E+01 -0.20904844913E+02 -0.15275826488E+02  0.27162976203E+02  0.47000000000E+01 0. -1.
        -11    1    6    6    0    0  0.21744690996E+02  0.18912338875E+02  0.79486728385E+02  0.84549678518E+02  0.00000000000E+00 0.  1.
         12    1    6    6    0    0 -0.59028177229E+02 -0.74752129749E+01  0.18185126003E+03  0.19133762121E+03  0.00000000000E+00 0. -1.
         -5    1    3    3    0  503  0.49130881762E+01  0.64398339082E+02  0.49149757124E+02  0.81296206168E+02  0.47000000000E+01 0.  1.
         13    1    4    4    0    0 -0.26148482485E+02 -0.12045381315E+02  0.12597014182E+02  0.31424816842E+02  0.00000000000E+00 0. -1.
        -14    1    4    4    0    0  0.51782868337E+02 -0.42885238754E+02 -0.12620525385E+02  0.68409698269E+02  0.00000000000E+00 0.  1.
</event>
<event>
12    1  0.8462562E-002  0.2139974E+03  0.7818608E-02  0.1139688E+00
         21   -1    0    0  501  502  0.00000000000E+00  0.00000000000E+00  0.11653260973E+03  0.11653260973E+03  0.00000000000E+00 0. -1.
         21   -1    0    0  502  503 -0.00000000000E+00 -0.00000000000E+00 -0.42399187369E+03  0.42399187369E+03  0.00000000000E+00 0.  1.
         -6    2    1    2    0  503  0.10609243131E+03 -0.50726306763E+02 -0.24147739268E+03  0.32265494324E+03  0.17879071297E+03 0.  0.
        -24    2    3    3    0    0  0.94320312880E+02  0.15575122179E+02 -0.21738093087E+03  0.25098073781E+03  0.81227801850E+02 0.  0.
          6    2    1    2  501    0 -0.10609243131E+03  0.50726306763E+02 -0.65981871277E+02  0.21786954018E+03  0.17112792590E+03 0.  0.
         24    2    5    5    0    0 -0.68616469656E+02  0.97686427044E+02 -0.64452021911E+02  0.15758578584E+03  0.80177046800E+02 0.  0.
          5    1    5    5  501    0 -0.37475961655E+02 -0.46960120280E+02 -0.15298493665E+01  0.60283754344E+02  0.47000000000E+01 0. -1.
        -11    1    6    6    0    0  0.18171315452E+02  0.21188983833E+02 -0.15873013631E+02  0.32111093143E+02  0.00000000000E+00 0.  1.
         12    1    6    6    0    0 -0.86787785108E+02  0.76497443210E+02 -0.48579008280E+02  0.12547469270E+03  0.00000000000E+00 0. -1.
         -5    1    3    3    0  503  0.11772118430E+02 -0.66301428942E+02 -0.24096461805E+02  0.71674205427E+02  0.47000000000E+01 0.  1.
         11    1    4    4    0    0  0.49340424655E+02  0.43653770034E+02 -0.79461048067E+02  0.10321912276E+03  0.00000000000E+00 0. -1.
        -12    1    4    4    0    0  0.44979888225E+02 -0.28078647855E+02 -0.13791988281E+03  0.14776161505E+03  0.00000000000E+00 0.  1.
</event>
<event>
12    1  0.8462562E-002  0.2171510E+03  0.7818608E-02  0.1136085E+00
         21   -1    0    0  503  502  0.00000000000E+00  0.00000000000E+00  0.16803375644E+03  0.16803375644E+03  0.00000000000E+00 0. -1.
         21   -1    0    0  501  503 -0.00000000000E+00 -0.00000000000E+00 -0.28030945639E+03  0.28030945639E+03  0.00000000000E+00 0. -1.
          6    2    1    2  501    0 -0.11663093308E+03  0.63345655199E+02 -0.60309852620E+02  0.22537046772E+03  0.17186949356E+03 0.  0.
         24    2    3    3    0    0 -0.71302795872E+02  0.10559877340E+03 -0.21218793452E+02  0.15195271151E+03  0.80026243798E+02 0.  0.
         -6    2    1    2    0  502  0.11663093308E+03 -0.63345655199E+02 -0.51965847327E+02  0.22297274511E+03  0.17146704986E+03 0.  0.
        -24    2    5    5    0    0  0.13441626282E+03 -0.64193176821E+02 -0.72265968578E+01  0.17459168704E+03  0.90782915908E+02 0.  0.
          5    1    3    3  501    0 -0.45328137207E+02 -0.42253118205E+02 -0.39091059168E+02  0.73417756214E+02  0.47000000000E+01 0. -1.
        -11    1    4    4    0    0 -0.27480565199E+02  0.18801604512E+00 -0.25813236115E+02  0.37703315138E+02  0.00000000000E+00 0.  1.
         12    1    4    4    0    0 -0.43822230673E+02  0.10541075736E+03  0.45944426631E+01  0.11424939637E+03  0.00000000000E+00 0. -1.
         -5    1    5    5    0  502 -0.17785329741E+02  0.84752162268E+00 -0.44739250469E+02  0.48381058064E+02  0.47000000000E+01 0.  1.
         11    1    6    6    0    0  0.12284145802E+03 -0.59128037994E+02 -0.37830350480E+02  0.14148245157E+03  0.00000000000E+00 0. -1.
        -12    1    6    6    0    0  0.11574804799E+02 -0.50651388273E+01  0.30603753622E+02  0.33109235467E+02  0.00000000000E+00 0.  1.
</event>
<event>
12    1  0.8462562E-002  0.2176704E+03  0.7818608E-02  0.1135870E+00
         21   -1    0    0  503  502  0.00000000000E+00  0.00000000000E+00  0.90453235518E+03  0.90453235518E+03  0.00000000000E+00 0.  1.
         21   -1    0    0  501  503 -0.00000000000E+00 -0.00000000000E+00 -0.55917662879E+02  0.55917662879E+02  0.00000000000E+00 0.  1.
          6    2    1    2  501    0  0.12253817727E+03  0.49093806313E+02  0.29963922273E+03  0.37035668251E+03  0.17307397774E+03 0.  0.
         24    2    3    3    0    0  0.71215140337E+01  0.50591966314E+02  0.18932674228E+03  0.21062508269E+03  0.76863821784E+02 0.  0.
         -6    2    1    2    0  502 -0.12253817727E+03 -0.49093806313E+02  0.54897546957E+03  0.59009333555E+03  0.17149423245E+03 0.  0.
        -24    2    5    5    0    0 -0.12870347254E+02 -0.23634064248E+02  0.12086294662E+03  0.14739970141E+03  0.79966275875E+02 0.  0.
          5    1    3    3  501    0  0.11541666324E+03 -0.14981600015E+01  0.11031248045E+03  0.15973159981E+03  0.47000000000E+01 0. -1.
        -11    1    4    4    0    0 -0.86935621285E+01  0.61109383784E+02  0.87730168729E+02  0.10726843578E+03  0.00000000000E+00 0.  1.
         12    1    4    4    0    0  0.15815076162E+02 -0.10517417470E+02  0.10159657355E+03  0.10335664691E+03  0.00000000000E+00 0. -1.
         -5    1    5    5    0  502 -0.10966783002E+03 -0.25459742065E+02  0.42811252295E+03  0.44269363415E+03  0.47000000000E+01 0.  1.
         11    1    6    6    0    0 -0.18709242291E+02  0.21274524142E+01  0.11947350650E+03  0.12094825570E+03  0.00000000000E+00 0. -1.
        -12    1    6    6    0    0  0.58388950373E+01 -0.25761516662E+02  0.13894401165E+01  0.26451445704E+02  0.00000000000E+00 0.  1.
</event>
<event>
12    1  0.8462562E-002  0.1796941E+03  0.7818608E-02  0.1168218E+00
         21   -1    0    0  503  502  0.00000000000E+00  0.00000000000E+00  0.37562436451E+02  0.37562436451E+02  0.00000000000E+00 0.  1.
         21   -1    0    0  501  503 -0.00000000000E+00 -0.00000000000E+00 -0.89536945809E+03  0.89536945809E+03  0.00000000000E+00 0. -1.
          6    2    1    2  501    0  0.46619381164E+02 -0.34498580923E+02 -0.52565471629E+03  0.55552034287E+03  0.17007778163E+03 0.  0.
         24    2    3    3    0    0  0.91962457024E+02  0.10932178328E+01 -0.36299288200E+03  0.38288276585E+03  0.79856692732E+02 0.  0.
         -6    2    1    2    0  502 -0.46619381164E+02  0.34498580923E+02 -0.33215230535E+03  0.37741155167E+03  0.16956062808E+03 0.  0.
        -24    2    5    5    0    0 -0.50713510877E+02  0.30957922618E+02 -0.89198296974E+02  0.13435180933E+03  0.81017401392E+02 0.  0.
          5    1    3    3  501    0 -0.45343075860E+02 -0.35591798756E+02 -0.16266183428E+03  0.17263757702E+03  0.47000000000E+01 0. -1.
        -11    1    4    4    0    0  0.76495066273E+02 -0.85280307831E+01 -0.14528329563E+03  0.16441246444E+03  0.00000000000E+00 0.  1.
         12    1    4    4    0    0  0.15467390751E+02  0.96212486159E+01 -0.21770958637E+03  0.21847030141E+03  0.00000000000E+00 0. -1.
         -5    1    5    5    0  502  0.40941297132E+01  0.35406583057E+01 -0.24295400838E+03  0.24305974234E+03  0.47000000000E+01 0.  1.
         11    1    6    6    0    0  0.29225058902E+01 -0.19718844574E+02 -0.18688762542E+01  0.20021652541E+02  0.00000000000E+00 0. -1.
        -12    1    6    6    0    0 -0.53636016767E+02  0.50676767192E+02 -0.87329420720E+02  0.11433015679E+03  0.00000000000E+00 0.  1.
</event>
<event>
12    1  0.8462562E-002  0.1988225E+03  0.7818608E-02  0.1152366E+00
         21   -1    0    0  501  502  0.00000000000E+00  0.00000000000E+00  0.98813290415E+02  0.98813290415E+02  0.00000000000E+00 0. -1.
         21   -1    0    0  502  503 -0.00000000000E+00 -0.00000000000E+00 -0.50873515754E+03  0.50873515754E+03  0.00000000000E+00 0. -1.
         -6    2    1    2    0  503  0.34115776928E+00  0.99181219040E+02 -0.35768937930E+03  0.40923354121E+03  0.17231763865E+03 0.  0.
        -24    2    3    3    0    0 -0.54152511676E+02  0.28459557758E+02 -0.24578928427E+03  0.26600353510E+03  0.81259260844E+02 0.  0.
          6    2    1    2  501    0 -0.34115776928E+00 -0.99181219040E+02 -0.52232487819E+02  0.19831490674E+03  0.16359565658E+03 0.  0.
         24    2    5    5    0    0 -0.25332434921E+02 -0.11744459156E+03 -0.71270784472E+02  0.16167256171E+03  0.81385060953E+02 0.  0.
          5    1    5    5  501    0  0.24991277152E+02  0.18263372520E+02  0.19038296652E+02  0.36642345025E+02  0.47000000000E+01 0. -1.
        -13    1    6    6    0    0 -0.28030940303E+02 -0.46420773770E+02  0.84353060699E+01  0.54879652333E+02  0.00000000000E+00 0.  1.
         14    1    6    6    0    0  0.26985053817E+01 -0.71023817791E+02 -0.79706090542E+02  0.10679290938E+03  0.00000000000E+00 0. -1.
         -5    1    3    3    0  503  0.54493669445E+02  0.70721661282E+02 -0.11190009503E+03  0.14323000612E+03  0.47000000000E+01 0.  1.
         11    1    4    4    0    0  0.18875545453E+01  0.33638309053E+01  0.58355621846E+01  0.69951416376E+01  0.00000000000E+00 0. -1.
        -12    1    4    4    0    0 -0.56040066221E+02  0.25095726853E+02 -0.25162484646E+03  0.25900839346E+03  0.00000000000E+00 0.  1.
</event>
<event>
12    1  0.8462562E-002  0.2056544E+03  0.7818608E-02  0.1146292E+00
         21   -1    0    0  503  502  0.00000000000E+00  0.00000000000E+00  0.79730573354E+03  0.79730573354E+03  0.00000000000E+00 0.  1.
         21   -1    0    0  501  503 -0.00000000000E+00 -0.00000000000E+00 -0.51586851017E+02  0.51586851017E+02  0.00000000000E+00 0. -1.
          6    2    1    2  501    0  0.11031562764E+03 -0.36935279163E+01  0.38348958797E+03  0.43235474256E+03  0.16638262974E+03 0.  0.
         24    2    3    3    0    0  0.75029613776E+02  0.59682648446E+02  0.21374197894E+03  0.24769835010E+03  0.80482157095E+02 0.  0.
         -6    2    1    2    0  502 -0.11031562764E+03  0.36935279163E+01  0.36222929456E+03  0.41653784200E+03  0.17352386618E+03 0.  0.
        -24    2    5    5    0    0 -0.70888383885E+02 -0.63019663991E+02  0.17650587519E+03  0.21524095671E+03  0.78598374359E+02 0.  0.
          5    1    3    3  501    0  0.35286013868E+02 -0.63376176362E+02  0.16974760903E+03  0.18465639246E+03  0.47000000000E+01 0. -1.
        -13    1    4    4    0    0  0.49334212934E+02  0.63804135258E+02  0.20491905642E+03  0.22021955391E+03  0.00000000000E+00 0.  1.
         14    1    4    4    0    0  0.25695400842E+02 -0.41214868118E+01  0.88229225225E+01  0.27478796186E+02  0.00000000000E+00 0. -1.
         -5    1    5    5    0  502 -0.39427243760E+02  0.66713191908E+02  0.18572341937E+03  0.20129688529E+03  0.47000000000E+01 0.  1.
         11    1    6    6    0    0 -0.80955901653E+02 -0.35503783123E+02  0.10084386163E+03  0.13410391887E+03  0.00000000000E+00 0. -1.
        -12    1    6    6    0    0  0.10067517769E+02 -0.27515880868E+02  0.75662013559E+02  0.81137037842E+02  0.00000000000E+00 0.  1.
</event>
<event>
12    1  0.8462562E-002  0.1966430E+03  0.7818608E-02  0.1152674E+00
         21   -1    0    0  501  502  0.00000000000E+00  0.00000000000E+00  0.46218748853E+03  0.46218748853E+03  0.00000000000E+00 0.  1.
         21   -1    0    0  502  503 -0.00000000000E+00 -0.00000000000E+00 -0.12557219056E+03  0.12557219056E+03  0.00000000000E+00 0.  1.
         -6    2    1    2    0  503 -0.53260431827E+02  0.79215919760E+02 -0.18436023161E+01  0.19632270606E+03  0.17154407744E+03 0.  0.
        -24    2    3    3    0    0 -0.12357246265E+02  0.91651562966E+02  0.45925670444E+02  0.13204433310E+03  0.82303269485E+02 0.  0.
          6    2    1    2  501    0  0.53260431827E+02 -0.79215919760E+02  0.33845890029E+03  0.39143697303E+03  0.17192044999E+03 0.  0.
         24    2    5    5    0    0  0.44132350255E+02  0.22273871349E+02  0.19011301186E+03  0.21140338675E+03  0.78132227466E+02 0.  0.
          5    1    5    5  501    0  0.91280815726E+01 -0.10148979111E+03  0.14834588844E+03  0.18003358628E+03  0.47000000000E+01 0. -1.
        -13    1    6    6    0    0 -0.10286744635E+02 -0.55655375878E+00  0.11696485376E+03  0.11741764724E+03  0.00000000000E+00 0.  1.
         14    1    6    6    0    0  0.54419094890E+02  0.22830425108E+02  0.73148158095E+02  0.93985739514E+02  0.00000000000E+00 0. -1.
         -5    1    3    3    0  503 -0.40903185562E+02 -0.12435643205E+02 -0.47769272760E+02  0.64278372965E+02  0.47000000000E+01 0.  1.
         13    1    4    4    0    0 -0.39124673897E+02  0.53899755136E+02 -0.34303982043E+00  0.66603613923E+02  0.00000000000E+00 0. -1.
        -14    1    4    4    0    0  0.26767427632E+02  0.37751807830E+02  0.46268710264E+02  0.65440719173E+02  0.00000000000E+00 0.  1.
</event>
<event>
12    1  0.8462562E-002  0.1903495E+03  0.7818608E-02  0.1159231E+00
         21   -1    0    0  501  502  0.00000000000E+00  0.00000000000E+00  0.20776187055E+02  0.20776187055E+02  0.00000000000E+00 0.  1.
         21   -1    0    0  502  503 -0.00000000000E+00 -0.00000000000E+00 -0.18297847900E+04  0.18297847900E+04  0.00000000000E+00 0.  1.
         -6    2    1    2    0  503 -0.67222622941E+02  0.11223342777E+02 -0.11609232202E+04  0.11764249481E+04  0.17773038787E+03 0.  0.
        -24    2    3    3    0    0 -0.50273455655E+02  0.41460172832E+02 -0.35333241418E+03  0.36807691650E+03  0.79940323222E+02 0.  0.
          6    2    1    2  501    0  0.67222622941E+02 -0.11223342777E+02 -0.64808538272E+03  0.67413602897E+03  0.17262641106E+03 0.  0.
         24    2    5    5    0    0  0.24540444123E+02  0.58920534766E+02 -0.30867231534E+03  0.32490078983E+03  0.78791256877E+02 0.  0.
          5    1    5    5  501    0  0.42682178819E+02 -0.70143877544E+02 -0.33941306738E+03  0.34923523914E+03  0.47000000000E+01 0. -1.
        -11    1    6    6    0    0  0.27436353504E+02 -0.11221535328E+02 -0.11952873996E+03  0.12314948650E+03  0.00000000000E+00 0.  1.
         12    1    6    6    0    0 -0.28959093814E+01  0.70142070094E+02 -0.18914357538E+03  0.20175130333E+03  0.00000000000E+00 0. -1.
         -5    1    3    3    0  503 -0.16949167287E+02 -0.30236830055E+02 -0.80759080602E+03  0.80834803156E+03  0.47000000000E+01 0.  1.
         13    1    4    4    0    0 -0.76255126884E+01 -0.33223346856E+01  0.10097179907E+01  0.83788950312E+01  0.00000000000E+00 0. -1.
        -14    1    4    4    0    0 -0.42647942966E+02  0.44782507518E+02 -0.35434213217E+03  0.35969802147E+03  0.00000000000E+00 0.  1.
</event>
<event>
12    1  0.8462562E-002  0.1751038E+03  0.7818608E-02  0.1173364E+00
         21   -1    0    0  503  502  0.00000000000E+00  0.00000000000E+00  0.58446997750E+03  0.58446997750E+03  0.00000000000E+00 0. -1.
         21   -1    0    0  501  503 -0.00000000000E+00 -0.00000000000E+00 -0.65530753228E+02  0.65530753228E+02  0.00000000000E+00 0. -1.
          6    2    1    2  501    0 -0.20568604002E+02 -0.19934312708E+02  0.11129537218E+03  0.20748012393E+03  0.17274518130E+03 0.  0.
         24    2    3    3    0    0 -0.35149837529E+02  0.10327333449E+01  0.14226087421E+03  0.16706748101E+03  0.80229728059E+02 0.  0.
         -6    2    1    2    0  502  0.20568604002E+02  0.19934312708E+02  0.40764385210E+03  0.44252060680E+03  0.16979556237E+03 0.  0.
        -24    2    5    5    0    0  0.31797712153E+02  0.34840565392E+02  0.41239121333E+03  0.42269848084E+03  0.79890759042E+02 0.  0.
          5    1    3    3  501    0  0.14581233527E+02 -0.20967046053E+02 -0.30965502030E+02  0.40412642914E+02  0.47000000000E+01 0. -1.
        -13    1    4    4    0    0 -0.57669088839E+00 -0.16615778529E+02  0.12228852594E+03  0.12341353348E+03  0.00000000000E+00 0.  1.
         14    1    4    4    0    0 -0.34573146641E+02  0.17648511874E+02  0.19972348267E+02  0.43653947534E+02  0.00000000000E+00 0. -1.
         -5    1    5    5    0  502 -0.11229108151E+02 -0.14906252684E+02 -0.47473612330E+01  0.19822125961E+02  0.47000000000E+01 0.  1.
         13    1    6    6    0    0  0.58263901144E+02  0.30873951775E+02  0.28542531019E+03  0.29294281144E+03  0.00000000000E+00 0. -1.
        -14    1    6    6    0    0 -0.26466188990E+02  0.39666136174E+01  0.12696590314E+03  0.12975566941E+03  0.00000000000E+00 0.  1.
</event>
<event>
12    1  0.8462562E-002  0.2123038E+03  0.7818608E-02  0.1139992E+00
         21   -1    0    0  501  502  0.00000000000E+00  0.00000000000E+00  0.77879425757E+02  0.77879425757E+02  0.00000000000E+00 0. -1.
         21   -1    0    0  502  503 -0.00000000000E+00 -0.00000000000E+00 -0.18151966208E+04  0.18151966208E+04  0.00000000000E+00 0. -1.
         -6    2    1    2    0  503 -0.96169983970E+02  0.75928324781E+02 -0.16501135445E+04  0.16635605344E+04  0.17188707262E+03 0.  0.
        -24    2    3    3    0    0 -0.77567783922E+01  0.72320625139E+02 -0.11955692839E+04  0.12004595894E+04  0.80167779517E+02 0.  0.
          6    2    1    2  501    0  0.96169983970E+02 -0.75928324781E+02 -0.87203650559E+02  0.22951551212E+03  0.17337565374E+03 0.  0.
         24    2    5    5    0    0  0.40721776914E+02 -0.13298520069E+02  0.21801843722E+02  0.92033571894E+02  0.78484037963E+02 0.  0.
          5    1    5    5  501    0  0.55448207056E+02 -0.62629804712E+02 -0.10900549428E+03  0.13748194022E+03  0.47000000000E+01 0. -1.
        -13    1    6    6    0    0 -0.39924732537E+01  0.27035503212E+02  0.15674465519E+02  0.31504716249E+02  0.00000000000E+00 0.  1.
         14    1    6    6    0    0  0.44714250167E+02 -0.40334023281E+02  0.61273782030E+01  0.60528855645E+02  0.00000000000E+00 0. -1.
         -5    1    3    3    0  503 -0.88413205578E+02  0.36076996416E+01 -0.45454426059E+03  0.46310094499E+03  0.47000000000E+01 0.  1.
         13    1    4    4    0    0  0.10687384083E+02  0.36986234106E+02 -0.10064299077E+04  0.10071660046E+04  0.00000000000E+00 0. -1.
        -14    1    4    4    0    0 -0.18444162475E+02  0.35334391033E+02 -0.18913937618E+03  0.19329358484E+03  0.00000000000E+00 0.  1.
</event>
<event>
12    1  0.8462562E-002  0.1740122E+03  0.7818608E-02  0.1174324E+00
         21   -1    0    0  503  502  0.00000000000E+00  0.00000000000E+00  0.82731009906E+02  0.82731009906E+02  0.00000000000E+00 0.  1.
         21   -1    0    0  501  503 -0.00000000000E+00 -0.00000000000E+00 -0.19356224151E+04  0.19356224151E+04  0.00000000000E+00 0.  1.
          6    2    1    2  501    0 -0.10421670707E+02 -0.41899870146E+01 -0.18354595075E+04  0.18434702575E+04  0.17130329707E+03 0.  0.
         24    2    3    3    0    0 -0.85514505243E+01  0.54430918739E+02 -0.75196268567E+03  0.75837700754E+03  0.81559504009E+02 0.  0.
         -6    2    1    2    0  502  0.10421670707E+02  0.41899870146E+01 -0.17431897713E+02  0.17488316747E+03  0.17364931326E+03 0.  0.
        -24    2    5    5    0    0  0.31001408337E+02 -0.60716714975E+02 -0.42221546376E+01  0.10536343735E+03  0.80224812527E+02 0.  0.
          5    1    3    3  501    0 -0.18702201827E+01 -0.58620905754E+02 -0.10834968218E+04  0.10850932500E+04  0.47000000000E+01 0. -1.
        -11    1    4    4    0    0 -0.34706342609E+02  0.18579256662E+01 -0.40422186076E+03  0.40571331605E+03  0.00000000000E+00 0.  1.
         12    1    4    4    0    0  0.26154892085E+02  0.52572993073E+02 -0.34774082492E+03  0.35266369149E+03  0.00000000000E+00 0. -1.
         -5    1    5    5    0  502 -0.20579737630E+02  0.64906701989E+02 -0.13209743076E+02  0.69519730122E+02  0.47000000000E+01 0.  1.
         13    1    6    6    0    0 -0.48332152401E+01 -0.67437773714E+02 -0.10331785470E+02  0.68395607198E+02  0.00000000000E+00 0. -1.
        -14    1    6    6    0    0  0.35834623577E+02  0.67210587388E+01  0.61096308323E+01  0.36967830155E+02  0.00000000000E+00 0.  1.
</event>
<event>
12    1  0.8462562E-002  0.2199321E+03  0.7818608E-02  0.1134015E+00
         21   -1    0    0  501  502  0.00000000000E+00  0.00000000000E+00  0.44879204380E+03  0.44879204380E+03  0.00000000000E+00 0. -1.
         21   -1    0    0  502  503 -0.00000000000E+00 -0.00000000000E+00 -0.12044105520E+03  0.12044105520E+03  0.00000000000E+00 0.  1.
         -6    2    1    2    0  503  0.97893171598E+02  0.94587694451E+02  0.70965898438E+02  0.23068149081E+03  0.17218561633E+03 0.  0.
        -24    2    3    3    0    0  0.71702839879E+02 -0.13482940826E+02  0.34332996349E+02  0.11350958632E+03  0.79891079655E+02 0.  0.
          6    2    1    2  501    0 -0.97893171598E+02 -0.94587694451E+02  0.25738509016E+03  0.33855160820E+03  0.17274316713E+03 0.  0.
         24    2    5    5    0    0 -0.30375750440E+02 -0.19469377326E+02  0.20907199432E+03  0.22649087039E+03  0.79279711740E+02 0.  0.
          5    1    5    5  501    0 -0.67517421158E+02 -0.75118317126E+02  0.48313095838E+02  0.11206073780E+03  0.47000000000E+01 0. -1.
        -13    1    6    6    0    0 -0.76995356380E+01  0.30872723530E+02  0.72061028232E+02  0.78773089930E+02  0.00000000000E+00 0.  1.
         14    1    6    6    0    0 -0.22676214802E+02 -0.50342100856E+02  0.13701096609E+03  0.14771778046E+03  0.00000000000E+00 0. -1.
         -5    1    3    3    0  503  0.26190331719E+02  0.10807063528E+03  0.36632902089E+02  0.11717190448E+03  0.47000000000E+01 0.  1.
         11    1    4    4    0    0  0.24368270392E+02  0.22217514224E+01  0.54479364909E+02  0.59722273753E+02  0.00000000000E+00 0. -1.
        -12    1    4    4    0    0  0.47334569487E+02 -0.15704692249E+02 -0.20146368561E+02  0.53787312569E+02  0.00000000000E+00 0.  1.
</event>
<event>
12    1  0.8462562E-002  0.1989037E+03  0.7818608E-02  0.1150825E+00
         21   -1    0    0  501  502  0.00000000000E+00  0.00000000000E+00  0.26223150669E+03  0.26223150669E+03  0.00000000000E+00 0. -1.
         21   -1    0    0  502  503 -0.00000000000E+00 -0.00000000000E+00 -0.15486692150E+03  0.15486692150E+03  0.00000000000E+00 0. -1.
         -6    2    1    2    0  503  0.43725603366E+02  0.89732450545E+02  0.17801115998E+02  0.19896013344E+03  0.17118532033E+03 0.  0.
        -24    2    3    3    0    0  0.21495468691E+02  0.61985320104E+02  0.77464048122E+02  0.12934808272E+03  0.80162414325E+02 0.  0.
          6    2    1    2  501    0 -0.43725603366E+02 -0.89732450545E+02  0.89563469192E+02  0.21813829475E+03  0.17204319094E+03 0.  0.
         24    2    5    5    0    0 -0.13427673959E+02 -0.39048337604E+02  0.12064619618E+03  0.15124233263E+03  0.81324433163E+02 0.  0.
          5    1    5    5  501    0 -0.30297929408E+02 -0.50684112941E+02 -0.31082726983E+02  0.66895962118E+02  0.47000000000E+01 0. -1.
        -11    1    6    6    0    0 -0.11711622876E+02  0.29376225012E+01 -0.89331956959E+01  0.15019777685E+02  0.00000000000E+00 0.  1.
         12    1    6    6    0    0 -0.17160510826E+01 -0.41985960105E+02  0.12957939187E+03  0.13622255494E+03  0.00000000000E+00 0. -1.
         -5    1    3    3    0  503  0.22230134676E+02  0.27747130442E+02 -0.59662932124E+02  0.69612050717E+02  0.47000000000E+01 0.  1.
         11    1    4    4    0    0  0.42510948443E+02  0.13276283540E+02  0.14112038388E+02  0.46718198484E+02  0.00000000000E+00 0. -1.
        -12    1    4    4    0    0 -0.21015479752E+02  0.48709036564E+02  0.63352009734E+02  0.82629884240E+02  0.00000000000E+00 0.  1.
</event>
<event>
12    1  0.8462562E-002  0.1984559E+03  0.7818608E-02  0.1151234E+00
         21   -1    0    0  501  502  0.00000000000E+00  0.00000000000E+00  0.14064426297E+03  0.14064426297E+03  0.00000000000E+00 0. -1.
         21   -1    0    0  502  503 -0.00000000000E+00 -0.00000000000E+00 -0.37630222443E+03  0.37630222443E+03  0.00000000000E+00 0. -1.
         -6    2    1    2    0  503  0.35238395739E+02 -0.89536986934E+02 -0.24958740856E+03  0.31887085766E+03  0.17356881283E+03 0.  0.
        -24    2    3    3    0    0  0.51620286479E+02 -0.22368090067E+02 -0.51561968146E+02  0.10907049517E+03  0.77927857197E+02 0.  0.
          6    2    1    2  501    0 -0.35238395739E+02  0.89536986934E+02  0.13929447096E+02  0.19807562975E+03  0.17257261961E+03 0.  0.
         24    2    5    5    0    0  0.30150478663E+01 -0.17112158917E+02  0.20701512822E+02  0.84474057870E+02  0.80033726163E+02 0.  0.
          5    1    5    5  501    0 -0.38253443606E+02  0.10664914585E+03 -0.67720657257E+01  0.11360157188E+03  0.47000000000E+01 0. -1.
        -11    1    6    6    0    0 -0.12574340436E+02 -0.30497050736E+02 -0.20214506728E+02  0.38688634290E+02  0.00000000000E+00 0.  1.
         12    1    6    6    0    0  0.15589388302E+02  0.13384891818E+02  0.40916019550E+02  0.45785423580E+02  0.00000000000E+00 0. -1.
         -5    1    3    3    0  503 -0.16381890740E+02 -0.67168896867E+02 -0.19802544041E+03  0.20980036249E+03  0.47000000000E+01 0.  1.
         13    1    4    4    0    0  0.11689807574E+02 -0.40597445857E+02 -0.49569966660E+02  0.65130528985E+02  0.00000000000E+00 0. -1.
        -14    1    4    4    0    0  0.39930478905E+02  0.18229355790E+02 -0.19920014868E+01  0.43939966181E+02  0.00000000000E+00 0.  1.
</event>
<event>
12    1  0.8462562E-002  0.2064320E+03  0.7818608E-02  0.1145422E+00
         21   -1    0    0  501  502  0.00000000000E+00  0.00000000000E+00  0.23268113100E+03  0.23268113100E+03  0.00000000000E+00 0.  1.
         21   -1    0    0  502  503 -0.00000000000E+00 -0.00000000000E+00 -0.18652992718E+03  0.18652992718E+03  0.00000000000E+00 0. -1.
         -6    2    1    2    0  503  0.10179596578E+03 -0.29251605927E+02 -0.19727928946E+02  0.20252179002E+03  0.17148705244E+03 0.  0.
        -24    2    3    3    0    0  0.12572558834E+03  0.53539021460E+01 -0.46048365803E+02  0.15267178077E+03  0.73161689564E+02 0.  0.
          6    2    1    2  501    0 -0.10179596578E+03  0.29251605927E+02  0.65879132766E+02  0.21668926817E+03  0.17718945710E+03 0.  0.
         24    2    5    5    0    0 -0.85605139354E+02 -0.44756730492E+02  0.18443823367E+02  0.12718186458E+03  0.80645193592E+02 0.  0.
          5    1    5    5  501    0 -0.16190826422E+02  0.74008336419E+02  0.47435309399E+02  0.89507403590E+02  0.47000000000E+01 0. -1.
        -11    1    6    6    0    0 -0.61023023344E+02 -0.68404296261E+02  0.15181445762E+02  0.92916271021E+02  0.00000000000E+00 0.  1.
         12    1    6    6    0    0 -0.24582116010E+02  0.23647565769E+02  0.32623776046E+01  0.34265593559E+02  0.00000000000E+00 0. -1.
         -5    1    3    3    0  503 -0.23929622564E+02 -0.34605508073E+02  0.26320436857E+02  0.49850009241E+02  0.47000000000E+01 0.  1.
         11    1    4    4    0    0  0.37319628445E+02  0.24905306430E+02  0.10291461024E+02  0.46031979380E+02  0.00000000000E+00 0. -1.
        -12    1    4    4    0    0  0.88405959895E+02 -0.19551404284E+02 -0.56339826827E+02  0.10663980139E+03  0.00000000000E+00 0.  1.
</event>
<event>
12    1  0.8462562E-002  0.1726088E+03  0.7818608E-02  0.1176059E+00
         21   -1    0    0  503  502  0.00000000000E+00  0.00000000000E+00  0.13805584929E+03  0.13805584929E+03  0.00000000000E+00 0.  1.
         21   -1    0    0  501  503 -0.00000000000E+00 -0.00000000000E+00 -0.58176293440E+03  0.58176293440E+03  0.00000000000E+00 0.  1.
          6    2    1    2  501    0  0.15108660979E+02 -0.91583743029E+01 -0.50816727535E+03  0.53556646188E+03  0.16818236499E+03 0.  0.
         24    2    3    3    0    0  0.60874053810E+02 -0.11317803133E+02 -0.45273136845E+03  0.46349452499E+03  0.77638518888E+02 0.  0.
         -6    2    1    2    0  502 -0.15108660979E+02  0.91583743029E+01  0.64460190244E+02  0.18425232182E+03  0.17170222629E+03 0.  0.
        -24    2    5    5    0    0 -0.12511392536E+02  0.12227741262E+02 -0.31758870117E+02  0.87834665789E+02  0.80001563007E+02 0.  0.
          5    1    3    3  501    0 -0.45765392831E+02  0.21594288304E+01 -0.55435906898E+02  0.72071936893E+02  0.47000000000E+01 0. -1.
        -11    1    4    4    0    0 -0.61963979994E+01  0.16149210078E+02 -0.19502269793E+03  0.19578826585E+03  0.00000000000E+00 0.  1.
         12    1    4    4    0    0  0.67070451810E+02 -0.27467013212E+02 -0.25770867052E+03  0.26770625914E+03  0.00000000000E+00 0. -1.
         -5    1    5    5    0  502 -0.25972684430E+01 -0.30693669592E+01  0.96219060361E+02  0.96417656027E+02  0.47000000000E+01 0.  1.
         11    1    6    6    0    0 -0.32819663097E+01 -0.31677548100E+02  0.16612339504E+01  0.31890406939E+02  0.00000000000E+00 0. -1.
        -12    1    6    6    0    0 -0.92294262262E+01  0.43905289362E+02 -0.33420104068E+02  0.55944258850E+02  0.00000000000E+00 0.  1.
</event>
<event>
12    1  0.8462562E-002  0.2443022E+03  0.7818608E-02  0.1117023E+00
         21   -1    0    0  503  502  0.00000000000E+00  0.00000000000E+00  0.19114304864E+03  0.19114304864E+03  0.00000000000E+00 0.  1.
         21   -1    0    0  501  503 -0.00000000000E+00 -0.00000000000E+00 -0.92926312341E+03  0.92926312341E+03  0.00000000000E+00 0. -1.
          6    2    1    2  501    0 -0.37773782597E+01  0.17420970738E+03 -0.82562864427E+03  0.86090411103E+03  0.17067495250E+03 0.  0.
         24    2    3    3    0    0  0.18892326603E+02  0.17635900724E+03 -0.53275369938E+03  0.56710765367E+03  0.79530919852E+02 0.  0.
         -6    2    1    2    0  502  0.37773782597E+01 -0.17420970738E+03  0.87508569498E+02  0.25950206102E+03  0.17123165363E+03 0.  0.
        -24    2    5    5    0    0 -0.32584603363E+02 -0.18255980524E+03  0.53818932602E+02  0.20901444396E+03  0.80004508683E+02 0.  0.
          5    1    3    3  501    0 -0.22669704862E+02 -0.21492998649E+01 -0.29287494489E+03  0.29379645735E+03  0.47000000000E+01 0. -1.
        -11    1    4    4    0    0  0.27743311753E+02  0.13043116072E+02 -0.75746750639E+02  0.81715264524E+02  0.00000000000E+00 0.  1.
         12    1    4    4    0    0 -0.88509851507E+01  0.16331589117E+03 -0.45700694874E+03  0.48539238915E+03  0.00000000000E+00 0. -1.
         -5    1    5    5    0  502  0.36361981623E+02  0.83500978674E+01  0.33689636896E+02  0.50487617057E+02  0.47000000000E+01 0.  1.
         13    1    6    6    0    0 -0.10570039870E+02 -0.11753285512E+02 -0.16629241471E+02  0.22943346205E+02  0.00000000000E+00 0. -1.
        -14    1    6    6    0    0 -0.22014563493E+02 -0.17080651973E+03  0.70448174074E+02  0.18607109775E+03  0.00000000000E+00 0.  1.
</event>
<event>
12    1  0.8462562E-002  0.1881561E+03  0.7818608E-02  0.1160425E+00
         21   -1    0    0  501  502  0.00000000000E+00  0.00000000000E+00  0.90686192944E+03  0.90686192944E+03  0.00000000000E+00 0. -1.
         21   -1    0    0  502  503 -0.00000000000E+00 -0.00000000000E+00 -0.39836007714E+02  0.39836007714E+02  0.00000000000E+00 0.  1.
         -6    2    1    2    0  503 -0.28108919259E+02 -0.69760552993E+02  0.51211793760E+03  0.54558914389E+03  0.17247053609E+03 0.  0.
        -24    2    3    3    0    0 -0.23386693402E+01  0.25545646878E+02  0.17387711486E+03  0.19320253562E+03  0.80224181209E+02 0.  0.
          6    2    1    2  501    0  0.28108919259E+02  0.69760552993E+02  0.35490798412E+03  0.40110879327E+03  0.17109044610E+03 0.  0.
         24    2    5    5    0    0 -0.31751145947E+02  0.71728030654E+02  0.14532847679E+03  0.18308870642E+03  0.79044687370E+02 0.  0.
          5    1    5    5  501    0  0.59860065206E+02 -0.19674776612E+01  0.20957950734E+03  0.21802008685E+03  0.47000000000E+01 0. -1.
        -13    1    6    6    0    0  0.25748927631E+02  0.24939058444E+02  0.61496170732E+02  0.71181057346E+02  0.00000000000E+00 0.  1.
         14    1    6    6    0    0 -0.57500073578E+02  0.46788972210E+02  0.83832306054E+02  0.11190764907E+03  0.00000000000E+00 0. -1.
         -5    1    3    3    0  503 -0.25770249919E+02 -0.95306199871E+02  0.33824082274E+03  0.35238660826E+03  0.47000000000E+01 0.  1.
         11    1    4    4    0    0  0.31126660550E+02  0.44008157213E+01  0.13152927993E+03  0.13523382585E+03  0.00000000000E+00 0. -1.
        -12    1    4    4    0    0 -0.33465329890E+02  0.21144831156E+02  0.42347834936E+02  0.57968709776E+02  0.00000000000E+00 0.  1.
</event>
<event>
12    1  0.8462562E-002  0.2245810E+03  0.7818608E-02  0.1130851E+00
         21   -1    0    0  503  502  0.00000000000E+00  0.00000000000E+00  0.21014713102E+03  0.21014713102E+03  0.00000000000E+00 0.  1.
         21   -1    0    0  501  503 -0.00000000000E+00 -0.00000000000E+00 -0.24494683487E+03  0.24494683487E+03  0.00000000000E+00 0.  1.
          6    2    1    2  501    0  0.11387144035E+02 -0.14166434344E+03 -0.55711226828E+02  0.23138790247E+03  0.17389125154E+03 0.  0.
         24    2    3    3    0    0  0.70972802553E+02 -0.10859517905E+03 -0.12362077136E+02  0.15048512678E+03  0.75252247909E+02 0.  0.
         -6    2    1    2    0  502 -0.11387144035E+02  0.14166434344E+03  0.20911522977E+02  0.22370606342E+03  0.17148952669E+03 0.  0.
        -24    2    5    5    0    0  0.54487624167E+02  0.81615183231E+02  0.39538669424E+02  0.13252247217E+03  0.79805763765E+02 0.  0.
          5    1    3    3  501    0 -0.59585658518E+02 -0.33069164389E+02 -0.43349149692E+02  0.80902775684E+02  0.47000000000E+01 0. -1.
        -13    1    4    4    0    0 -0.10844802355E+02 -0.34337303396E+02 -0.17161421056E+02  0.39889528893E+02  0.00000000000E+00 0.  1.
         14    1    4    4    0    0  0.81817604909E+02 -0.74257875658E+02  0.47993439208E+01  0.11059559789E+03  0.00000000000E+00 0. -1.
         -5    1    5    5    0  502 -0.65874768202E+02  0.60049160212E+02 -0.18627146447E+02  0.91183591246E+02  0.47000000000E+01 0.  1.
         11    1    6    6    0    0 -0.18314296872E+02  0.57170001634E+01 -0.23265175644E+01  0.19326413137E+02  0.00000000000E+00 0. -1.
        -12    1    6    6    0    0  0.72801921039E+02  0.75898183067E+02  0.41865186988E+02  0.11319605904E+03  0.00000000000E+00 0.  1.
</event>
<event>
12    1  0.8462562E-002  0.1747863E+03  0.7818608E-02  0.1173323E+00
         21   -1    0    0  501  502  0.00000000000E+00  0.00000000000E+00  0.23999489294E+02  0.23999489294E+02  0.00000000000E+00 0. -1.
         21   -1    0    0  502  503 -0.00000000000E+00 -0.00000000000E+00 -0.18173417821E+04  0.18173417821E+04  0.00000000000E+00 0. -1.
         -6    2    1    2    0  503 -0.18242656308E+02  0.25275230003E+02 -0.39045771047E+03  0.42779372480E+03  0.17198434683E+03 0.  0.
        -24    2    3    3    0    0 -0.71993458124E+02  0.39483342789E+02 -0.29896588573E+03  0.32063093668E+03  0.81741081187E+02 0.  0.
          6    2    1    2  501    0  0.18242656308E+02 -0.25275230003E+02 -0.14028845823E+04  0.14135475466E+04  0.17046959656E+03 0.  0.
         24    2    5    5    0    0  0.11044469017E+02  0.20957119112E+02 -0.35543982710E+03  0.36504773768E+03  0.79757124829E+02 0.  0.
          5    1    5    5  501    0  0.71981872904E+01 -0.46232349115E+02 -0.10474447552E+04  0.10484998089E+04  0.47000000000E+01 0. -1.
        -11    1    6    6    0    0 -0.11128843411E+02  0.21497314518E+02 -0.33161252026E+03  0.33249488610E+03  0.00000000000E+00 0.  1.
         12    1    6    6    0    0  0.22173312429E+02 -0.54019540523E+00 -0.23827306840E+02  0.32552851586E+02  0.00000000000E+00 0. -1.
         -5    1    3    3    0  503  0.53750801816E+02 -0.14208112787E+02 -0.91491824732E+02  0.10716278812E+03  0.47000000000E+01 0.  1.
         11    1    4    4    0    0 -0.86103236765E+02  0.42417273826E+02 -0.21521407435E+03  0.23564823423E+03  0.00000000000E+00 0. -1.
        -12    1    4    4    0    0  0.14109778641E+02 -0.29339310371E+01 -0.83751811387E+02  0.84982702447E+02  0.00000000000E+00 0.  1.
</event>
<event>
12    1  0.8462562E-002  0.1910369E+03  0.7818608E-02  0.1157646E+00
         21   -1    0    0  503  502  0.00000000000E+00  0.00000000000E+00  0.20885234561E+04  0.20885234561E+04  0.00000000000E+00 0.  1.
         21   -1    0    0  501  503 -0.00000000000E+00 -0.00000000000E+00 -0.80295770392E+02  0.80295770392E+02  0.00000000000E+00 0.  1.
          6    2    1    2  501    0 -0.70015178628E+02  0.44339441322E+02  0.44864493524E+02  0.19623438763E+03  0.17212495698E+03 0.  0.
         24    2    3    3    0    0 -0.90063252828E+02  0.77532324674E+02  0.12418217528E+02  0.14545502558E+03  0.82947582615E+02 0.  0.
         -6    2    1    2    0  502  0.70015178628E+02 -0.44339441322E+02  0.19633631922E+04  0.19725848389E+04  0.17154536068E+03 0.  0.
        -24    2    5    5    0    0  0.33497904695E+02 -0.93978895508E+02  0.14094986533E+04  0.14152827626E+04  0.79904331497E+02 0.  0.
          5    1    3    3  501    0  0.20048074200E+02 -0.33192883352E+02  0.32446275996E+02  0.50779362051E+02  0.47000000000E+01 0. -1.
        -13    1    4    4    0    0 -0.14673948336E+02 -0.30757132040E+01 -0.24800349467E+02  0.28980029420E+02  0.00000000000E+00 0.  1.
         14    1    4    4    0    0 -0.75389304492E+02  0.80608037878E+02  0.37218566995E+02  0.11647499616E+03  0.00000000000E+00 0. -1.
         -5    1    5    5    0  502  0.36517273933E+02  0.49639454186E+02  0.55386453896E+03  0.55730207628E+03  0.47000000000E+01 0.  1.
         11    1    6    6    0    0  0.44810618959E+01 -0.66937235014E+02  0.12111820314E+04  0.12130385759E+04  0.00000000000E+00 0. -1.
        -12    1    6    6    0    0  0.29016842799E+02 -0.27041660494E+02  0.19831662183E+03  0.20224418672E+03  0.00000000000E+00 0.  1.
</event>
<event>
12    1  0.8462562E-002  0.1762438E+03  0.7818608E-02  0.1171555E+00
         21   -1    0    0  503  502  0.00000000000E+00  0.00000000000E+00  0.67662880014E+03  0.67662880014E+03  0.00000000000E+00 0. -1.
         21   -1    0    0  501  503 -0.00000000000E+00 -0.00000000000E+00 -0.46266136176E+02  0.46266136176E+02  0.00000000000E+00 0. -1.
          6    2    1    2  501    0  0.12889081400E+02  0.30577506861E+02  0.28060894434E+03  0.33136573728E+03  0.17309176714E+03 0.  0.
         24    2    3    3    0    0  0.70575848763E+02 -0.44862941143E+00  0.15462850025E+03  0.18929692805E+03  0.83319878687E+02 0.  0.
         -6    2    1    2    0  502 -0.12889081400E+02 -0.30577506861E+02  0.34975371962E+03  0.39152919904E+03  0.17281879806E+03 0.  0.
        -24    2    5    5    0    0  0.16140918856E+02  0.18977154069E+02  0.79670221892E+02  0.11536694405E+03  0.79633698173E+02 0.  0.
          5    1    3    3  501    0 -0.57686767364E+02  0.31026136273E+02  0.12598044410E+03  0.14206880923E+03  0.47000000000E+01 0. -1.
        -13    1    4    4    0    0  0.52715064640E+02 -0.71191205997E+01  0.16071013886E+03  0.16928469703E+03  0.00000000000E+00 0.  1.
         14    1    4    4    0    0  0.17860784123E+02  0.66704911883E+01 -0.60816386100E+01  0.20012231019E+02  0.00000000000E+00 0. -1.
         -5    1    5    5    0  502 -0.29030000255E+02 -0.49554660930E+02  0.27008349773E+03  0.27616225499E+03  0.47000000000E+01 0.  1.
         13    1    6    6    0    0 -0.31030930157E+00 -0.28715501880E+02  0.12398458932E+02  0.31279356194E+02  0.00000000000E+00 0. -1.
        -14    1    6    6    0    0  0.16451228157E+02  0.47692655948E+02  0.67271762960E+02  0.84087587854E+02  0.00000000000E+00 0.  1.
</event>
<event>
12    1  0.8462562E-002  0.1934468E+03  0.7818608E-02  0.1155395E+00
         21   -1    0    0  503  502  0.00000000000E+00  0.00000000000E+00  0.90622927625E+03  0.90622927625E+03  0.00000000000E+00 0.  1.
         21   -1    0    0  501  503 -0.00000000000E+00 -0.00000000000E+00 -0.45196295099E+02  0.45196295099E+02  0.00000000000E+00 0.  1.
          6    2    1    2  501    0 -0.54305977231E+02 -0.70641743821E+02  0.57038193129E+03  0.60228421140E+03  0.17167215447E+03 0.  0.
         24    2    3    3    0    0 -0.94449924269E+02 -0.64520875761E+02  0.51472810343E+03  0.53323031892E+03  0.79409199459E+02 0.  0.
         -6    2    1    2    0  502  0.54305977231E+02  0.70641743821E+02  0.29065104985E+03  0.34914135995E+03  0.17170399329E+03 0.  0.
        -24    2    5    5    0    0 -0.69704216734E+01  0.96583926252E+02  0.20019283047E+03  0.23674663878E+03  0.81208127757E+02 0.  0.
          5    1    3    3  501    0  0.40143947038E+02 -0.61208680603E+01  0.55653827867E+02  0.69053892474E+02  0.47000000000E+01 0. -1.
        -13    1    4    4    0    0 -0.65710947146E+02 -0.26630197377E+00  0.19259187049E+03  0.20349355781E+03  0.00000000000E+00 0.  1.
         14    1    4    4    0    0 -0.28738977123E+02 -0.64254573787E+02  0.32213623294E+03  0.32973676112E+03  0.00000000000E+00 0. -1.
         -5    1    5    5    0  502  0.61276398904E+02 -0.25942182431E+02  0.90458219380E+02  0.11239472116E+03  0.47000000000E+01 0.  1.
         11    1    6    6    0    0  0.84097315690E+01  0.68680932800E+01  0.10305530407E+03  0.10362572069E+03  0.00000000000E+00 0. -1.
        -12    1    6    6    0    0 -0.15380153242E+02  0.89715832972E+02  0.97137526401E+02  0.13312091810E+03  0.00000000000E+00 0.  1.
</event>
<event>
12    1  0.8462562E-002  0.2030030E+03  0.7818608E-02  0.1147366E+00
         21   -1    0    0  503  502  0.00000000000E+00  0.00000000000E+00  0.46493977967E+03  0.46493977967E+03  0.00000000000E+00 0. -1.
         21   -1    0    0  501  503 -0.00000000000E+00 -0.00000000000E+00 -0.93815868451E+02  0.93815868451E+02  0.00000000000E+00 0. -1.
          6    2    1    2  501    0 -0.10787166085E+03 -0.15084087679E+01  0.11783157054E+03  0.23415248806E+03  0.17118568321E+03 0.  0.
         24    2    3    3    0    0 -0.13934386079E+03 -0.11602412840E+02  0.11994717180E+03  0.20070171742E+03  0.79639988897E+02 0.  0.
         -6    2    1    2    0  502  0.10787166085E+03  0.15084087679E+01  0.25329234068E+03  0.32460316006E+03  0.17196404032E+03 0.  0.
        -24    2    5    5    0    0  0.40405167053E+02  0.10213106426E+02  0.23899598521E+03  0.25493268334E+03  0.78324370554E+02 0.  0.
          5    1    3    3  501    0  0.31472199938E+02  0.10094004072E+02 -0.21156012624E+01  0.33450770632E+02  0.47000000000E+01 0. -1.
        -13    1    4    4    0    0 -0.79129475219E+02 -0.44669099820E+02  0.81026636884E+02  0.12174612196E+03  0.00000000000E+00 0.  1.
         14    1    4    4    0    0 -0.60214385570E+02  0.33066686981E+02  0.38920534915E+02  0.78955595467E+02  0.00000000000E+00 0. -1.
         -5    1    5    5    0  502  0.67466493797E+02 -0.87046976583E+01  0.14296355471E+02  0.69670476720E+02  0.47000000000E+01 0.  1.
         11    1    6    6    0    0  0.39335771723E+02 -0.14277919390E+02  0.53985560344E+02  0.68305216820E+02  0.00000000000E+00 0. -1.
        -12    1    6    6    0    0  0.10693953305E+01  0.24491025816E+02  0.18501042486E+03  0.18662746652E+03  0.00000000000E+00 0.  1.
</event>
<event>
12    1  0.8462562E-002  0.1945943E+03  0.7818608E-02  0.1154643E+00
         21   -1    0    0  501  502  0.00000000000E+00  0.00000000000E+00  0.16044749437E+03  0.16044749437E+03  0.00000000000E+00 0. -1.
         21   -1    0    0  502  503 -0.00000000000E+00 -0.00000000000E+00 -0.24249016610E+03  0.24249016610E+03  0.00000000000E+00 0.  1.
         -6    2    1    2    0  503 -0.58104560014E+02  0.60431482203E+02 -0.47167821076E+01  0.19465149993E+03  0.17560994976E+03 0.  0.
        -24    2    3    3    0    0 -0.10576190510E+03  0.44164726294E+02 -0.21779792788E+02  0.14127485502E+03  0.79675100678E+02 0.  0.
          6    2    1    2  501    0  0.58104560014E+02 -0.60431482203E+02 -0.77325889622E+02  0.20828616053E+03  0.17428633776E+03 0.  0.
         24    2    5    5    0    0 -0.95080056980E+01  0.24839522810E+02 -0.28152875395E+02  0.88775999182E+02  0.79882348313E+02 0.  0.
          5    1    5    5  501    0  0.67612565712E+02 -0.85271005013E+02 -0.49173014228E+02  0.11951016135E+03  0.47000000000E+01 0. -1.
        -11    1    6    6    0    0  0.90940498230E+01  0.23899161491E+02 -0.52337574797E+02  0.58250265216E+02  0.00000000000E+00 0.  1.
         12    1    6    6    0    0 -0.18602055521E+02  0.94036131968E+00  0.24184699402E+02  0.30525733966E+02  0.00000000000E+00 0. -1.
         -5    1    3    3    0  503  0.47657345086E+02  0.16266755908E+02  0.17063010680E+02  0.53376644910E+02  0.47000000000E+01 0.  1.
         13    1    4    4    0    0 -0.34484076388E+02 -0.22982413610E+02 -0.10117663001E+02  0.42658058609E+02  0.00000000000E+00 0. -1.
        -14    1    4    4    0    0 -0.71277828712E+02  0.67147139905E+02 -0.11662129787E+02  0.98616796411E+02  0.00000000000E+00 0.  1.
</event>
<event>
12    1  0.8462562E-002  0.2502633E+03  0.7818608E-02  0.1113360E+00
         21   -1    0    0  503  502  0.00000000000E+00  0.00000000000E+00  0.58054557737E+03  0.58054557737E+03  0.00000000000E+00 0. -1.
         21   -1    0    0  501  503 -0.00000000000E+00 -0.00000000000E+00 -0.11873454234E+03  0.11873454234E+03  0.00000000000E+00 0. -1.
          6    2    1    2  501    0 -0.17649970868E+03 -0.40837494423E+02  0.34007291827E+03  0.42223373230E+03  0.17266119087E+03 0.  0.
         24    2    3    3    0    0 -0.20289344147E+03 -0.25882078312E+02  0.29224427280E+03  0.36540096948E+03  0.79218198331E+02 0.  0.
         -6    2    1    2    0  502  0.17649970868E+03  0.40837494423E+02  0.12173811676E+03  0.27704638741E+03  0.17063025404E+03 0.  0.
        -24    2    5    5    0    0  0.19564054314E+03  0.11014183938E+02  0.11402470016E+03  0.24047606901E+03  0.80190854537E+02 0.  0.
          5    1    3    3  501    0  0.26393732787E+02 -0.14955416111E+02  0.47828645471E+02  0.56832762814E+02  0.47000000000E+01 0. -1.
        -11    1    4    4    0    0 -0.20846463186E+02 -0.26590815076E+02  0.72909862135E+02  0.80358537009E+02  0.00000000000E+00 0.  1.
         12    1    4    4    0    0 -0.18204697828E+03  0.70873676375E+00  0.21933441067E+03  0.28504243248E+03  0.00000000000E+00 0. -1.
         -5    1    5    5    0  502 -0.19140834466E+02  0.29823310485E+02  0.77134165993E+01  0.36570318401E+02  0.47000000000E+01 0.  1.
         13    1    6    6    0    0  0.10896593933E+03 -0.89087861465E+01  0.20164480485E+02  0.11117350708E+03  0.00000000000E+00 0. -1.
        -14    1    6    6    0    0  0.86674603817E+02  0.19922970084E+02  0.93860219676E+02  0.12930256193E+03  0.00000000000E+00 0.  1.
</event>
<event>
12    1  0.8462562E-002  0.2293849E+03  0.7818608E-02  0.1127261E+00
         21   -1    0    0  501  502  0.00000000000E+00  0.00000000000E+00  0.35505908293E+03  0.35505908293E+03  0.00000000000E+00 0.  1.
         21   -1    0    0  502  503 -0.00000000000E+00 -0.00000000000E+00 -0.26467142829E+03  0.26467142829E+03  0.00000000000E+00 0. -1.
         -6    2    1    2    0  503 -0.39249203627E+02  0.14671527931E+03 -0.16102644052E+03  0.27939761911E+03  0.17049235129E+03 0.  0.
        -24    2    3    3    0    0  0.29769332029E+02  0.12974461821E+03 -0.88778367715E+02  0.17794104896E+03  0.77855887686E+02 0.  0.
          6    2    1    2  501    0  0.39249203627E+02 -0.14671527931E+03  0.25141409516E+03  0.34033289211E+03  0.17190566319E+03 0.  0.
         24    2    5    5    0    0  0.26943795214E+02 -0.94762314935E+00  0.11446454416E+03  0.13989112456E+03  0.75766277269E+02 0.  0.
          5    1    5    5  501    0  0.12305408414E+02 -0.14576765616E+03  0.13694955101E+03  0.20044176755E+03  0.47000000000E+01 0. -1.
        -11    1    6    6    0    0  0.39830177018E+02 -0.24434985734E+02  0.42738791303E+02  0.63325475214E+02  0.00000000000E+00 0.  1.
         12    1    6    6    0    0 -0.12886381804E+02  0.23487362585E+02  0.71725752853E+02  0.76565649344E+02  0.00000000000E+00 0. -1.
         -5    1    3    3    0  503 -0.69018535657E+02  0.16970661101E+02 -0.72248072803E+02  0.10145657015E+03  0.47000000000E+01 0.  1.
         13    1    4    4    0    0 -0.52807851754E+01 -0.28192396063E+01 -0.26808327551E+02  0.27468549836E+02  0.00000000000E+00 0. -1.
        -14    1    4    4    0    0  0.35050117205E+02  0.13256385781E+03 -0.61970040165E+02  0.15047249912E+03  0.00000000000E+00 0.  1.
</event>
<event>
12    1  0.8462562E-002  0.1914348E+03  0.7818608E-02  0.1161270E+00
         21   -1    0    0  501  502  0.00000000000E+00  0.00000000000E+00  0.11438840293E+03  0.11438840293E+03  0.00000000000E+00 0.  1.
         21   -1    0    0  502  503 -0.00000000000E+00 -0.00000000000E+00 -0.39959706408E+03  0.39959706408E+03  0.00000000000E+00 0.  1.
         -6    2    1    2    0  503 -0.22479063464E+02  0.24926956600E+02 -0.28090227784E+03  0.33993143744E+03  0.18846917786E+03 0.  0.
        -24    2    3    3    0    0 -0.84086404240E+02  0.44296013742E+02 -0.16039201040E+03  0.20312705384E+03  0.80637105553E+02 0.  0.
          6    2    1    2  501    0  0.22479063464E+02 -0.24926956600E+02 -0.43063833121E+01  0.17405402957E+03  0.17073253590E+03 0.  0.
         24    2    5    5    0    0  0.43604969866E+02 -0.23545342178E+02  0.56564619367E+02  0.10943528812E+03  0.79503141992E+02 0.  0.
          5    1    5    5  501    0 -0.21125906402E+02 -0.13816144224E+01 -0.60871002679E+02  0.64618741453E+02  0.47000000000E+01 0. -1.
        -11    1    6    6    0    0 -0.67982332082E+01 -0.19417511549E+02  0.55129303937E+02  0.58842976489E+02  0.00000000000E+00 0.  1.
         12    1    6    6    0    0  0.50403203074E+02 -0.41278306285E+01  0.14353154303E+01  0.50592311632E+02  0.00000000000E+00 0. -1.
         -5    1    3    3    0  503  0.61607340775E+02 -0.19369057142E+02 -0.12051026744E+03  0.13680438359E+03  0.47000000000E+01 0.  1.
         13    1    4    4    0    0 -0.17449355974E+02 -0.10504716346E+02  0.70734926515E+00  0.20379632784E+02  0.00000000000E+00 0. -1.
        -14    1    4    4    0    0 -0.66637048266E+02  0.54800730088E+02 -0.16109935967E+03  0.18274742106E+03  0.00000000000E+00 0.  1.
</event>
<event>
12    1  0.8462562E-002  0.1804851E+03  0.7818608E-02  0.1167711E+00
         21   -1    0    0  503  502  0.00000000000E+00  0.00000000000E+00  0.15140643602E+03  0.15140643602E+03  0.00000000000E+00 0. -1.
         21   -1    0    0  501  503 -0.00000000000E+00 -0.00000000000E+00 -0.32618120840E+03  0.32618120840E+03  0.00000000000E+00 0. -1.
          6    2    1    2  501    0  0.40073652191E+02 -0.31354019922E+02 -0.22761596305E+03  0.28952632471E+03  0.17154443709E+03 0.  0.
         24    2    3    3    0    0  0.37249506894E+02 -0.19831621702E+02 -0.24887603187E+03  0.26473072059E+03  0.79763752406E+02 0.  0.
         -6    2    1    2    0  502 -0.40073652191E+02  0.31354019922E+02  0.52841190667E+02  0.18806131971E+03  0.17316436231E+03 0.  0.
        -24    2    5    5    0    0 -0.83035577515E+02 -0.42985006619E+01  0.33804411885E+02  0.12888938212E+03  0.92500542265E+02 0.  0.
          5    1    3    3  501    0  0.28241452968E+01 -0.11522398221E+02  0.21260068823E+02  0.24795604122E+02  0.47000000000E+01 0. -1.
        -11    1    4    4    0    0 -0.43500304346E+01 -0.21504802922E+02 -0.13630732468E+02  0.25829753795E+02  0.00000000000E+00 0.  1.
         12    1    4    4    0    0  0.41599537328E+02  0.16731812205E+01 -0.23524529941E+03  0.23890096679E+03  0.00000000000E+00 0. -1.
         -5    1    5    5    0  502  0.42961925325E+02  0.35652520584E+02  0.19036778782E+02  0.59171937589E+02  0.47000000000E+01 0.  1.
         13    1    6    6    0    0 -0.98553646936E+01  0.36836277657E+02 -0.66943101858E+00  0.38137746430E+02  0.00000000000E+00 0. -1.
        -14    1    6    6    0    0 -0.73180212822E+02 -0.41134778319E+02  0.34473842903E+02  0.90751635690E+02  0.00000000000E+00 0.  1.
</event>
<event>
12    1  0.8462562E-002  0.2004824E+03  0.7818608E-02  0.1150117E+00
         21   -1    0    0  503  502  0.00000000000E+00  0.00000000000E+00  0.29676440334E+03  0.29676440334E+03  0.00000000000E+00 0.  1.
         21   -1    0    0  501  503 -0.00000000000E+00 -0.00000000000E+00 -0.11755369704E+04  0.11755369704E+04  0.00000000000E+00 0.  1.
          6    2    1    2  501    0  0.53449790796E+02 -0.86434822813E+02 -0.11321932644E+04  0.11491678934E+04  0.16851528284E+03 0.  0.
         24    2    3    3    0    0  0.95454559803E+02 -0.46606957579E+02 -0.66073181963E+03  0.67414300629E+03  0.81354004111E+02 0.  0.
         -6    2    1    2    0  502 -0.53449790796E+02  0.86434822813E+02  0.25342069736E+03  0.32313348031E+03  0.17281590643E+03 0.  0.
        -24    2    5    5    0    0 -0.40954478688E+02  0.82537408684E+01  0.65410217176E+02  0.11907847533E+03  0.90309430362E+02 0.  0.
          5    1    3    3  501    0 -0.42004769007E+02 -0.39827865234E+02 -0.47146144478E+03  0.47502488711E+03  0.47000000000E+01 0. -1.
        -13    1    4    4    0    0  0.85821024227E+02 -0.57326374111E+02 -0.64329372745E+03  0.65152005429E+03  0.00000000000E+00 0.  1.
         14    1    4    4    0    0  0.96335355761E+01  0.10719416532E+02 -0.17438092176E+02  0.22622952000E+02  0.00000000000E+00 0. -1.
         -5    1    5    5    0  502 -0.12495312108E+02  0.78181081944E+02  0.18801048018E+03  0.20405500498E+03  0.47000000000E+01 0.  1.
         13    1    6    6    0    0  0.26954253428E+02 -0.10538585372E+02  0.21528233542E+02  0.36070187121E+02  0.00000000000E+00 0. -1.
        -14    1    6    6    0    0 -0.67908732116E+02  0.18792326241E+02  0.43881983634E+02  0.83008288206E+02  0.00000000000E+00 0.  1.
</event>
<event>
12    1  0.8462562E-002  0.2031140E+03  0.7818608E-02  0.1147197E+00
         21   -1    0    0  501  502  0.00000000000E+00  0.00000000000E+00  0.37796718113E+03  0.37796718113E+03  0.00000000000E+00 0. -1.
         21   -1    0    0  502  503 -0.00000000000E+00 -0.00000000000E+00 -0.10903168478E+03  0.10903168478E+03  0.00000000000E+00 0.  1.
         -6    2    1    2    0  503  0.60687157605E+02  0.88490848224E+02  0.13029147240E+03  0.24131134920E+03  0.17245793155E+03 0.  0.
        -24    2    3    3    0    0  0.63960905562E+02  0.11081568251E+03  0.14915632617E+03  0.21152732060E+03  0.78262920916E+02 0.  0.
          6    2    1    2  501    0 -0.60687157605E+02 -0.88490848224E+02  0.13864402395E+03  0.24568751672E+03  0.17212387742E+03 0.  0.
         24    2    5    5    0    0 -0.81994370783E+02 -0.10773220138E+03  0.14612198080E+03  0.21565025914E+03  0.82608092454E+02 0.  0.
          5    1    5    5  501    0  0.21307213177E+02  0.19241353155E+02 -0.74779568514E+01  0.30037257586E+02  0.47000000000E+01 0. -1.
        -13    1    6    6    0    0 -0.17662537101E+02 -0.52525558111E+01 -0.76748456407E+01  0.19961408142E+02  0.00000000000E+00 0.  1.
         14    1    6    6    0    0 -0.64331833682E+02 -0.10247964557E+03  0.15379682644E+03  0.19568885099E+03  0.00000000000E+00 0. -1.
         -5    1    3    3    0  503 -0.32737479566E+01 -0.22324834289E+02 -0.18864853773E+02  0.29784028599E+02  0.47000000000E+01 0.  1.
         13    1    4    4    0    0  0.47932523331E+02  0.11242918353E+03  0.94346657539E+02  0.15439928721E+03  0.00000000000E+00 0. -1.
        -14    1    4    4    0    0  0.16028382231E+02 -0.16135010217E+01  0.54809668635E+02  0.57128033385E+02  0.00000000000E+00 0.  1.
</event>
<event>
12    1  0.8462562E-002  0.1907871E+03  0.7818608E-02  0.1158121E+00
         21   -1    0    0  503  502  0.00000000000E+00  0.00000000000E+00  0.31327036200E+03  0.31327036200E+03  0.00000000000E+00 0. -1.
         21   -1    0    0  501  503 -0.00000000000E+00 -0.00000000000E+00 -0.16577434105E+03  0.16577434105E+03  0.00000000000E+00 0. -1.
          6    2    1    2  501    0 -0.72732176275E+02 -0.30542950274E+02 -0.58326865442E+02  0.19950375774E+03  0.17371495285E+03 0.  0.
         24    2    3    3    0    0  0.92269165534E+01 -0.34133144612E+02  0.17933319642E+02  0.87397164616E+02  0.77887437237E+02 0.  0.
         -6    2    1    2    0  502  0.72732176275E+02  0.30542950274E+02  0.20582288639E+03  0.27954094531E+03  0.17192218665E+03 0.  0.
        -24    2    5    5    0    0  0.12690080396E+02  0.70477631174E+02  0.16357088598E+03  0.19583220290E+03  0.80415684526E+02 0.  0.
          5    1    3    3  501    0 -0.81959092828E+02  0.35901943375E+01 -0.76260185083E+02  0.11210659312E+03  0.47000000000E+01 0. -1.
        -13    1    4    4    0    0  0.30287249794E+02 -0.30534080646E+02 -0.17165656776E+02  0.46306666405E+02  0.00000000000E+00 0.  1.
         14    1    4    4    0    0 -0.21060333241E+02 -0.35990639657E+01  0.35098976418E+02  0.41090498211E+02  0.00000000000E+00 0. -1.
         -5    1    5    5    0  502  0.60042095879E+02 -0.39934680899E+02  0.42252000411E+02  0.83708742403E+02  0.47000000000E+01 0.  1.
         11    1    6    6    0    0  0.25237576850E+02  0.34709954521E+02  0.20008911052E+02  0.47350530616E+02  0.00000000000E+00 0. -1.
        -12    1    6    6    0    0 -0.12547496454E+02  0.35767676652E+02  0.14356197493E+03  0.14848167229E+03  0.00000000000E+00 0.  1.
</event>
<event>
12    1  0.8462562E-002  0.2170912E+03  0.7818608E-02  0.1136369E+00
         21   -1    0    0  503  502  0.00000000000E+00  0.00000000000E+00  0.16416697821E+03  0.16416697821E+03  0.00000000000E+00 0. -1.
         21   -1    0    0  501  503 -0.00000000000E+00 -0.00000000000E+00 -0.35264035666E+03  0.35264035666E+03  0.00000000000E+00 0.  1.
          6    2    1    2  501    0 -0.84220182870E+01 -0.12908859609E+03 -0.20712761687E+03  0.29891615520E+03  0.17237813707E+03 0.  0.
         24    2    3    3    0    0  0.31739685662E+02 -0.50483098294E+02 -0.36501538044E+02  0.10675181012E+03  0.80669918955E+02 0.  0.
         -6    2    1    2    0  502  0.84220182870E+01  0.12908859609E+03  0.18654238412E+02  0.21789117966E+03  0.17433814710E+03 0.  0.
        -24    2    5    5    0    0  0.28608697814E+02  0.55485866149E+02 -0.52340117308E+02  0.11354966142E+03  0.79100561293E+02 0.  0.
          5    1    3    3  501    0 -0.40161703949E+02 -0.78605497792E+02 -0.17062607882E+03  0.19216434509E+03  0.47000000000E+01 0. -1.
        -11    1    4    4    0    0  0.37094039996E+02  0.59945586037E+01 -0.32838794163E+02  0.49902794894E+02  0.00000000000E+00 0.  1.
         12    1    4    4    0    0 -0.53543543341E+01 -0.56477656898E+02 -0.36627438803E+01  0.56849015222E+02  0.00000000000E+00 0. -1.
         -5    1    5    5    0  502 -0.20186679527E+02  0.73602729937E+02  0.70994355720E+02  0.10434151824E+03  0.47000000000E+01 0.  1.
         11    1    6    6    0    0  0.25344614194E+02  0.47669398319E+02  0.62515142023E+01  0.54348895431E+02  0.00000000000E+00 0. -1.
        -12    1    6    6    0    0  0.32640836206E+01  0.78164678302E+01 -0.58591631510E+02  0.59200765994E+02  0.00000000000E+00 0.  1.
</event>
<event>
12    1  0.8462562E-002  0.1950468E+03  0.7818608E-02  0.1154465E+00
         21   -1    0    0  503  502  0.00000000000E+00  0.00000000000E+00  0.77282266374E+02  0.77282266374E+02  0.00000000000E+00 0. -1.
         21   -1    0    0  501  503 -0.00000000000E+00 -0.00000000000E+00 -0.10437816932E+04  0.10437816932E+04  0.00000000000E+00 0. -1.
          6    2    1    2  501    0  0.56047451437E+02 -0.65942017146E+02 -0.89398681929E+03  0.91501677785E+03  0.17479589308E+03 0.  0.
         24    2    3    3    0    0  0.10585026765E+03 -0.52254996682E+02 -0.62519918230E+03  0.64127138733E+03  0.80125594024E+02 0.  0.
         -6    2    1    2    0  502 -0.56047451437E+02  0.65942017146E+02 -0.72512607508E+02  0.20604718170E+03  0.17235920747E+03 0.  0.
        -24    2    5    5    0    0 -0.26944287730E+02 -0.96668479033E+01  0.21332232228E+02  0.81980108884E+02  0.73798587596E+02 0.  0.
          5    1    3    3  501    0 -0.49802816211E+02 -0.13687020464E+02 -0.26878763699E+03  0.27374539052E+03  0.47000000000E+01 0. -1.
        -13    1    4    4    0    0  0.93297517455E+02 -0.23644741707E+02 -0.31175414201E+03  0.32627311509E+03  0.00000000000E+00 0.  1.
         14    1    4    4    0    0  0.12552750193E+02 -0.28610254975E+02 -0.31344504029E+03  0.31499827223E+03  0.00000000000E+00 0. -1.
         -5    1    5    5    0  502 -0.29103163707E+02  0.75608865049E+02 -0.93844839736E+02  0.12406707281E+03  0.47000000000E+01 0.  1.
         13    1    6    6    0    0  0.17465313730E+02 -0.14263651781E+02  0.28941727642E+02  0.36689406437E+02  0.00000000000E+00 0. -1.
        -14    1    6    6    0    0 -0.44409601459E+02  0.45968038776E+01 -0.76094954144E+01  0.45290702447E+02  0.00000000000E+00 0.  1.
</event>
<event>
12    1  0.8462562E-002  0.3317792E+03  0.7818608E-02  0.1070355E+00
         21   -1    0    0  501  502  0.00000000000E+00  0.00000000000E+00  0.50353516181E+03  0.50353516181E+03  0.00000000000E+00 0. -1.
         21   -1    0    0  502  503 -0.00000000000E+00 -0.00000000000E+00 -0.32037582397E+03  0.32037582397E+03  0.00000000000E+00 0. -1.
         -6    2    1    2    0  503 -0.46359231682E+02 -0.27960798820E+03 -0.14062171101E+03  0.36032540367E+03  0.17242426018E+03 0.  0.
        -24    2    3    3    0    0 -0.65494954248E+02 -0.17615523326E+03 -0.15131909291E+03  0.25447091694E+03  0.80856196116E+02 0.  0.
          6    2    1    2  501    0  0.46359231682E+02  0.27960798820E+03  0.32378104885E+03  0.46358558210E+03  0.17247498055E+03 0.  0.
         24    2    5    5    0    0 -0.11654388184E+02  0.23806496908E+03  0.29036137650E+03  0.38465290809E+03  0.82688430092E+02 0.  0.
          5    1    5    5  501    0  0.58013619866E+02  0.41543019112E+02  0.33419672350E+02  0.78932674014E+02  0.47000000000E+01 0. -1.
        -13    1    6    6    0    0 -0.24278499665E+01  0.23880830605E+03  0.28959146113E+03  0.37536451065E+03  0.00000000000E+00 0.  1.
         14    1    6    6    0    0 -0.92265382179E+01 -0.74333696478E+00  0.76991536305E+00  0.92883974396E+01  0.00000000000E+00 0. -1.
         -5    1    3    3    0  503  0.19135722567E+02 -0.10345275494E+03  0.10697381903E+02  0.10585448674E+03  0.47000000000E+01 0.  1.
         13    1    4    4    0    0 -0.26341617000E+02 -0.64257253993E+02 -0.10243833628E+02  0.70198373231E+02  0.00000000000E+00 0. -1.
        -14    1    4    4    0    0 -0.39153337249E+02 -0.11189797926E+03 -0.14107525929E+03  0.18427254370E+03  0.00000000000E+00 0.  1.
</event>
<event>
12    1  0.8462562E-002  0.1800216E+03  0.7818608E-02  0.1170242E+00
         21   -1    0    0  501  502  0.00000000000E+00  0.00000000000E+00  0.14207798107E+03  0.14207798107E+03  0.00000000000E+00 0.  1.
         21   -1    0    0  502  503 -0.00000000000E+00 -0.00000000000E+00 -0.22264543425E+03  0.22264543425E+03  0.00000000000E+00 0.  1.
         -6    2    1    2    0  503 -0.48102358542E+02 -0.81410390591E+01 -0.73420786307E+02  0.19441809188E+03  0.17328493638E+03 0.  0.
        -24    2    3    3    0    0 -0.61010450809E+02  0.15116501767E+02  0.14489602962E+02  0.10245147516E+03  0.79596309172E+02 0.  0.
          6    2    1    2  501    0  0.48102358542E+02  0.81410390591E+01 -0.71466668789E+01  0.17030532343E+03  0.16301139508E+03 0.  0.
         24    2    5    5    0    0 -0.25387967367E+01  0.52375943305E+02  0.18922763043E+02  0.98035284425E+02  0.80642179441E+02 0.  0.
          5    1    5    5  501    0  0.50641155279E+02 -0.44234904246E+02 -0.26069429922E+02  0.72270039007E+02  0.47000000000E+01 0. -1.
        -13    1    6    6    0    0  0.33226530545E+02  0.46148784432E+02  0.23329806242E+02  0.61465376400E+02  0.00000000000E+00 0.  1.
         14    1    6    6    0    0 -0.35765327282E+02  0.62271588729E+01 -0.44070431996E+01  0.36569908025E+02  0.00000000000E+00 0. -1.
         -5    1    3    3    0  503  0.12908092267E+02 -0.23257540826E+02 -0.87910389269E+02  0.91966616729E+02  0.47000000000E+01 0.  1.
         11    1    4    4    0    0 -0.44589214701E+02 -0.16836184092E+02  0.36753225947E+02  0.60186832280E+02  0.00000000000E+00 0. -1.
        -12    1    4    4    0    0 -0.16421236109E+02  0.31952685859E+02 -0.22263622985E+02  0.42264642875E+02  0.00000000000E+00 0.  1.
</event>
<event>
12    1  0.8462562E-002  0.3103760E+03  0.7818608E-02  0.1080189E+00
         21   -1    0    0  501  502  0.00000000000E+00  0.00000000000E+00  0.83157383214E+03  0.83157383214E+03  0.00000000000E+00 0.  1.
         21   -1    0    0  502  503 -0.00000000000E+00 -0.00000000000E+00 -0.11585841482E+03  0.11585841482E+03  0.00000000000E+00 0. -1.
         -6    2    1    2    0  503 -0.15772278225E+03 -0.20545754603E+03  0.34483581152E+03  0.46381573813E+03  0.17065761854E+03 0.  0.
        -24    2    3    3    0    0 -0.57416842451E+02 -0.13968964404E+03  0.12246346159E+03  0.21111383765E+03  0.82230545255E+02 0.  0.
          6    2    1    2  501    0  0.15772278225E+03  0.20545754603E+03  0.37087960580E+03  0.48361650883E+03  0.17100867334E+03 0.  0.
         24    2    5    5    0    0  0.13012755440E+03  0.21614683830E+03  0.36873634041E+03  0.45357585045E+03  0.78178815876E+02 0.  0.
          5    1    5    5  501    0  0.27595227850E+02 -0.10689292276E+02  0.21432653898E+01  0.30040658381E+02  0.47000000000E+01 0. -1.
        -11    1    6    6    0    0 -0.37542544516E+01 -0.19975764308E+01  0.23097397991E+02  0.23485623944E+02  0.00000000000E+00 0.  1.
         12    1    6    6    0    0  0.13388180886E+03  0.21814441474E+03  0.34563894242E+03  0.43009022651E+03  0.00000000000E+00 0. -1.
         -5    1    3    3    0  503 -0.10030593980E+03 -0.65767901985E+02  0.22237234993E+03  0.25270190047E+03  0.47000000000E+01 0.  1.
         11    1    4    4    0    0  0.59114925855E+01 -0.31903604200E+02 -0.47072471231E+01  0.32786336804E+02  0.00000000000E+00 0. -1.
        -12    1    4    4    0    0 -0.63328335037E+02 -0.10778603984E+03  0.12717070871E+03  0.17832750085E+03  0.00000000000E+00 0.  1.
</event>
<event>
12    1  0.8462562E-002  0.2406998E+03  0.7818608E-02  0.1119431E+00
         21   -1    0    0  503  502  0.00000000000E+00  0.00000000000E+00  0.12414839600E+03  0.12414839600E+03  0.00000000000E+00 0. -1.
         21   -1    0    0  501  503 -0.00000000000E+00 -0.00000000000E+00 -0.46595606352E+03  0.46595606352E+03  0.00000000000E+00 0. -1.
          6    2    1    2  501    0  0.65594106788E+02  0.15376614445E+03 -0.18071679094E+03  0.30098994238E+03  0.17317555504E+03 0.  0.
         24    2    3    3    0    0 -0.11903827000E+02  0.63340552690E+02 -0.14260254380E+03  0.17585999703E+03  0.80234196873E+02 0.  0.
         -6    2    1    2    0  502 -0.65594106788E+02 -0.15376614445E+03 -0.16109087658E+03  0.28911451714E+03  0.17230879107E+03 0.  0.
        -24    2    5    5    0    0 -0.58131692743E+02 -0.18201265881E+03 -0.12338975328E+03  0.24118730259E+03  0.80239529198E+02 0.  0.
          5    1    3    3  501    0  0.77497933788E+02  0.90425591761E+02 -0.38114247142E+02  0.12512994534E+03  0.47000000000E+01 0. -1.
        -11    1    4    4    0    0 -0.17982557026E+01  0.63867189886E+02 -0.46000202572E+02  0.78729094394E+02  0.00000000000E+00 0.  1.
         12    1    4    4    0    0 -0.10105571297E+02 -0.52663719510E+00 -0.96602341223E+02  0.97130902641E+02  0.00000000000E+00 0. -1.
         -5    1    5    5    0  502 -0.74624140454E+01  0.28246514359E+02 -0.37701123297E+02  0.47927214552E+02  0.47000000000E+01 0.  1.
         11    1    6    6    0    0 -0.40777288416E+02 -0.43866900891E+02 -0.81367844789E+01  0.60442530606E+02  0.00000000000E+00 0. -1.
        -12    1    6    6    0    0 -0.17354404326E+02 -0.13814575792E+03 -0.11525296880E+03  0.18074477198E+03  0.00000000000E+00 0.  1.
</event>
<event>
12    1  0.8462562E-002  0.2910937E+03  0.7818608E-02  0.1089922E+00
         21   -1    0    0  501  502  0.00000000000E+00  0.00000000000E+00  0.79865759366E+03  0.79865759366E+03  0.00000000000E+00 0.  1.
         21   -1    0    0  502  503 -0.00000000000E+00 -0.00000000000E+00 -0.11627763423E+03  0.11627763423E+03  0.00000000000E+00 0. -1.
         -6    2    1    2    0  503  0.14810745988E+03  0.18189933483E+03  0.20262824288E+03  0.35377814538E+03  0.17052150495E+03 0.  0.
        -24    2    3    3    0    0  0.15541345690E+02  0.11239981359E+03  0.11815603676E+03  0.18184326907E+03  0.78935885147E+02 0.  0.
          6    2    1    2  501    0 -0.14810745988E+03 -0.18189933483E+03  0.47975171655E+03  0.56115708251E+03  0.17237277638E+03 0.  0.
         24    2    5    5    0    0 -0.15159883866E+03 -0.15589443564E+03  0.48156034926E+03  0.53443994082E+03  0.80252086717E+02 0.  0.
          5    1    5    5  501    0  0.34913787856E+01 -0.26004899191E+02 -0.18086327084E+01  0.26717141689E+02  0.47000000000E+01 0. -1.
        -13    1    6    6    0    0 -0.13075205880E+03 -0.82324809889E+02  0.34260329338E+03  0.37583306379E+03  0.00000000000E+00 0.  1.
         14    1    6    6    0    0 -0.20846779864E+02 -0.73569625750E+02  0.13895705587E+03  0.15860687703E+03  0.00000000000E+00 0. -1.
         -5    1    3    3    0  503  0.13256611419E+03  0.69499521245E+02  0.84472206128E+02  0.17193487631E+03  0.47000000000E+01 0.  1.
         13    1    4    4    0    0  0.44866620635E+02  0.77539599588E+02  0.95586120374E+02  0.13100423489E+03  0.00000000000E+00 0. -1.
        -14    1    4    4    0    0 -0.29325274945E+02  0.34860213998E+02  0.22569916381E+02  0.50839034177E+02  0.00000000000E+00 0.  1.
</event>
<event>
12    1  0.8462562E-002  0.1906467E+03  0.7818608E-02  0.1158182E+00
         21   -1    0    0  503  502  0.00000000000E+00  0.00000000000E+00  0.53460792151E+03  0.53460792151E+03  0.00000000000E+00 0.  1.
         21   -1    0    0  501  503 -0.00000000000E+00 -0.00000000000E+00 -0.69610402182E+02  0.69610402182E+02  0.00000000000E+00 0.  1.
          6    2    1    2  501    0  0.27636481072E+02 -0.76684694362E+02  0.17921151399E+03  0.26067819494E+03  0.17085677374E+03 0.  0.
         24    2    3    3    0    0  0.50157545155E+02 -0.87675967046E+02  0.65547568039E+02  0.14418961605E+03  0.79317760729E+02 0.  0.
         -6    2    1    2    0  502 -0.27636481072E+02  0.76684694362E+02  0.28578600534E+03  0.34354012876E+03  0.17234228089E+03 0.  0.
        -24    2    5    5    0    0 -0.47272399949E+02 -0.68583109076E+01  0.88031976520E+02  0.12791603698E+03  0.79568633276E+02 0.  0.
          5    1    3    3  501    0 -0.22521064083E+02  0.10991272684E+02  0.11366394595E+03  0.11648857889E+03  0.47000000000E+01 0. -1.
        -13    1    4    4    0    0  0.33229904935E+01  0.31482173161E+01 -0.13974427577E+02  0.14705038735E+02  0.00000000000E+00 0.  1.
         14    1    4    4    0    0  0.46834554661E+02 -0.90824184362E+02  0.79521995616E+02  0.12948457731E+03  0.00000000000E+00 0. -1.
         -5    1    5    5    0  502  0.19635918878E+02  0.83543005269E+02  0.19775402882E+03  0.21562409178E+03  0.47000000000E+01 0.  1.
         11    1    6    6    0    0 -0.33063318297E+02  0.93514652306E+01 -0.28825144080E+01  0.34481035485E+02  0.00000000000E+00 0. -1.
        -12    1    6    6    0    0 -0.14209081652E+02 -0.16209776138E+02  0.90914490928E+02  0.93435001496E+02  0.00000000000E+00 0.  1.
</event>
<event>
12    1  0.8462562E-002  0.2095104E+03  0.7818608E-02  0.1144008E+00
         21   -1    0    0  501  502  0.00000000000E+00  0.00000000000E+00  0.24538186701E+03  0.24538186701E+03  0.00000000000E+00 0. -1.
         21   -1    0    0  502  503 -0.00000000000E+00 -0.00000000000E+00 -0.46378992453E+03  0.46378992453E+03  0.00000000000E+00 0. -1.
         -6    2    1    2    0  503  0.51305324061E+02 -0.84697448813E+02  0.17378110944E+03  0.26452929991E+03  0.17311840572E+03 0.  0.
        -24    2    3    3    0    0  0.76423379189E+02 -0.82399454510E+02  0.18928366121E+03  0.23455236573E+03  0.80971012574E+02 0.  0.
          6    2    1    2  501    0 -0.51305324061E+02  0.84697448813E+02 -0.39218916696E+03  0.44464249163E+03  0.18463127735E+03 0.  0.
         24    2    5    5    0    0 -0.70256282146E+02  0.92187992909E+02 -0.39863838206E+03  0.42275803508E+03  0.79857531642E+02 0.  0.
          5    1    5    5  501    0  0.18950958084E+02 -0.74905440953E+01  0.64492150988E+01  0.21884456551E+02  0.47000000000E+01 0. -1.
        -13    1    6    6    0    0 -0.21669709771E+02  0.40184488537E+02 -0.53380572374E+02  0.70241404795E+02  0.00000000000E+00 0.  1.
         14    1    6    6    0    0 -0.48586572375E+02  0.52003504371E+02 -0.34525780968E+03  0.35251663029E+03  0.00000000000E+00 0. -1.
         -5    1    3    3    0  503 -0.25118055127E+02 -0.22979943032E+01 -0.15502551772E+02  0.29976934177E+02  0.47000000000E+01 0.  1.
         11    1    4    4    0    0 -0.91191529361E+01 -0.12111399328E+02  0.70743251158E+02  0.72349516435E+02  0.00000000000E+00 0. -1.
        -12    1    4    4    0    0  0.85542532125E+02 -0.70288055182E+02  0.11854041005E+03  0.16220284930E+03  0.00000000000E+00 0.  1.
</event>
<event>
12    1  0.8462562E-002  0.3903288E+03  0.7818608E-02  0.1047213E+00
         21   -1    0    0  503  502  0.00000000000E+00  0.00000000000E+00  0.69272160577E+03  0.69272160577E+03  0.00000000000E+00 0.  1.
         21   -1    0    0  501  503 -0.00000000000E+00 -0.00000000000E+00 -0.24160225176E+03  0.24160225176E+03  0.00000000000E+00 0. -1.
          6    2    1    2  501    0  0.16497480441E+03  0.30917651472E+03  0.84921401319E+02  0.39910656668E+03  0.17107777126E+03 0.  0.
         24    2    3    3    0    0  0.11176688943E+03  0.92978172432E+02  0.19009321341E+02  0.16685821316E+03  0.79646286030E+02 0.  0.
         -6    2    1    2    0  502 -0.16497480441E+03 -0.30917651472E+03  0.36619795269E+03  0.53521729085E+03  0.17190056581E+03 0.  0.
        -24    2    5    5    0    0 -0.17241618663E+03 -0.31963552284E+03  0.36573225490E+03  0.52153986804E+03  0.79684018496E+02 0.  0.
          5    1    3    3  501    0  0.53207914971E+02  0.21619834229E+03  0.65912079978E+02  0.23224835352E+03  0.47000000000E+01 0. -1.
        -13    1    4    4    0    0  0.52065843725E+02  0.23479063915E+02  0.43761802667E+02  0.71952858858E+02  0.00000000000E+00 0.  1.
         14    1    4    4    0    0  0.59701045710E+02  0.69499108517E+02 -0.24752481326E+02  0.94905354302E+02  0.00000000000E+00 0. -1.
         -5    1    5    5    0  502  0.74413822193E+01  0.10459008124E+02  0.46569778767E+00  0.13677422809E+02  0.47000000000E+01 0.  1.
         11    1    6    6    0    0 -0.12281118229E+02  0.18878813598E+01  0.15425914257E+02  0.19807796234E+02  0.00000000000E+00 0. -1.
        -12    1    6    6    0    0 -0.16013506840E+03 -0.32152340420E+03  0.35030634065E+03  0.50173207181E+03  0.00000000000E+00 0.  1.
</event>
<event>
12    1  0.8462562E-002  0.1979792E+03  0.7818608E-02  0.1151948E+00
         21   -1    0    0  503  502  0.00000000000E+00  0.00000000000E+00  0.10848711654E+03  0.10848711654E+03  0.00000000000E+00 0. -1.
         21   -1    0    0  501  503 -0.00000000000E+00 -0.00000000000E+00 -0.54922398866E+03  0.54922398866E+03  0.00000000000E+00 0. -1.
          6    2    1    2  501    0  0.65240830302E+02  0.64695797694E+02 -0.41568733202E+03  0.46042560281E+03  0.17536780075E+03 0.  0.
         24    2    3    3    0    0  0.95826514018E+02  0.92727506793E+02 -0.34447766223E+03  0.37787762988E+03  0.79658848106E+02 0.  0.
         -6    2    1    2    0  502 -0.65240830302E+02 -0.64695797694E+02 -0.25049540100E+02  0.19728550238E+03  0.17277782790E+03 0.  0.
        -24    2    5    5    0    0 -0.94742019614E+02 -0.52367679599E+02  0.26329148033E+02  0.13658820211E+03  0.79023343206E+02 0.  0.
          5    1    3    3  501    0 -0.30585683715E+02 -0.28031709099E+02 -0.71209669784E+02  0.82547972926E+02  0.47000000000E+01 0. -1.
        -11    1    4    4    0    0  0.18216613092E+02  0.56572555750E+02 -0.78510251496E+02  0.98469074569E+02  0.00000000000E+00 0.  1.
         12    1    4    4    0    0  0.77609900925E+02  0.36154951043E+02 -0.26596741074E+03  0.27940855531E+03  0.00000000000E+00 0. -1.
         -5    1    5    5    0  502  0.29501189312E+02 -0.12328118095E+02 -0.51378688133E+02  0.60697300277E+02  0.47000000000E+01 0.  1.
         13    1    6    6    0    0  0.60201408707E+01  0.51090248896E+01  0.18742587809E+02  0.20337866879E+02  0.00000000000E+00 0. -1.
        -14    1    6    6    0    0 -0.10076216049E+03 -0.57476704489E+02  0.75865602242E+01  0.11625033523E+03  0.00000000000E+00 0.  1.
</event>
<event>
12    1  0.8462562E-002  0.1961974E+03  0.7818608E-02  0.1155395E+00
         21   -1    0    0  503  502  0.00000000000E+00  0.00000000000E+00  0.10213628818E+04  0.10213628818E+04  0.00000000000E+00 0. -1.
         21   -1    0    0  501  503 -0.00000000000E+00 -0.00000000000E+00 -0.42871260463E+02  0.42871260463E+02  0.00000000000E+00 0. -1.
          6    2    1    2  501    0 -0.53945515050E+02  0.77059471693E+02  0.25929941282E+03  0.31876057890E+03  0.15976182398E+03 0.  0.
         24    2    3    3    0    0 -0.34396593860E+02  0.11173350763E+03  0.17314863612E+03  0.22374218377E+03  0.80078787531E+02 0.  0.
         -6    2    1    2    0  502  0.53945515050E+02 -0.77059471693E+02  0.71919220850E+03  0.74547356334E+03  0.17217758305E+03 0.  0.
        -24    2    5    5    0    0 -0.95043899056E+01 -0.96574975052E+02  0.38280123219E+03  0.40256289822E+03  0.78121984262E+02 0.  0.
          5    1    3    3  501    0 -0.19548921190E+02 -0.34674035934E+02  0.86150776702E+02  0.95018395135E+02  0.47000000000E+01 0. -1.
        -13    1    4    4    0    0  0.19961330206E+02  0.70534934960E+02  0.83853501488E+02  0.11137792180E+03  0.00000000000E+00 0.  1.
         14    1    4    4    0    0 -0.54357924066E+02  0.41198572667E+02  0.89295134629E+02  0.11236426197E+03  0.00000000000E+00 0. -1.
         -5    1    5    5    0  502  0.63449904956E+02  0.19515503359E+02  0.33639097631E+03  0.34291066512E+03  0.47000000000E+01 0.  1.
         11    1    6    6    0    0  0.24239363253E+02 -0.80742705029E+02  0.30259546093E+03  0.31411931510E+03  0.00000000000E+00 0. -1.
        -12    1    6    6    0    0 -0.33743753158E+02 -0.15832270022E+02  0.80205771261E+02  0.88443583118E+02  0.00000000000E+00 0.  1.
</event>
<event>
12    1  0.8462562E-002  0.1796280E+03  0.7818608E-02  0.1168202E+00
         21   -1    0    0  501  502  0.00000000000E+00  0.00000000000E+00  0.45882565888E+03  0.45882565888E+03  0.00000000000E+00 0. -1.
         21   -1    0    0  502  503 -0.00000000000E+00 -0.00000000000E+00 -0.23145528578E+03  0.23145528578E+03  0.00000000000E+00 0. -1.
         -6    2    1    2    0  503  0.16702329861E+02 -0.54658487737E+02 -0.17432874867E+03  0.25031329425E+03  0.17029302558E+03 0.  0.
        -24    2    3    3    0    0  0.62384332594E+02 -0.76119806266E+02 -0.14088375699E+03  0.18958363893E+03  0.80048068730E+02 0.  0.
          6    2    1    2  501    0 -0.16702329861E+02  0.54658487737E+02  0.40169912177E+03  0.43996765041E+03  0.17012592651E+03 0.  0.
         24    2    5    5    0    0 -0.22011409368E+02 -0.25778105711E+02  0.12927496249E+03  0.15582816978E+03  0.80133574079E+02 0.  0.
          5    1    5    5  501    0  0.53090795074E+01  0.80436593448E+02  0.27242415928E+03  0.28413948063E+03  0.47000000000E+01 0. -1.
        -11    1    6    6    0    0 -0.25079335818E+02 -0.57882207052E+01  0.13282430832E+03  0.13529513467E+03  0.00000000000E+00 0.  1.
         12    1    6    6    0    0  0.30679264501E+01 -0.19989885005E+02 -0.35493458301E+01  0.20533035115E+02  0.00000000000E+00 0. -1.
         -5    1    3    3    0  503 -0.45682002734E+02  0.21461318528E+02 -0.33444991681E+02  0.60729655320E+02  0.47000000000E+01 0.  1.
         13    1    4    4    0    0  0.54289791334E+02 -0.66169638450E+02 -0.15078239290E+03  0.17338146529E+03  0.00000000000E+00 0. -1.
        -14    1    4    4    0    0  0.80945412607E+01 -0.99501678161E+01  0.98986359141E+01  0.16202173643E+02  0.00000000000E+00 0.  1.
</event>
<event>
12    1  0.8462562E-002  0.1783663E+03  0.7818608E-02  0.1169616E+00
         21   -1    0    0  501  502  0.00000000000E+00  0.00000000000E+00  0.89679877703E+02  0.89679877703E+02  0.00000000000E+00 0.  1.
         21   -1    0    0  502  503 -0.00000000000E+00 -0.00000000000E+00 -0.42264866227E+03  0.42264866227E+03  0.00000000000E+00 0.  1.
         -6    2    1    2    0  503 -0.43516090704E+02  0.16399060155E+02 -0.27085692847E+03  0.32431162215E+03  0.17219748324E+03 0.  0.
        -24    2    3    3    0    0  0.98264585926E+01  0.29201423298E+02 -0.53833180304E+02  0.10041270447E+03  0.78964659856E+02 0.  0.
          6    2    1    2  501    0  0.43516090704E+02 -0.16399060155E+02 -0.62111856097E+02  0.18801691783E+03  0.17125974249E+03 0.  0.
         24    2    5    5    0    0 -0.48459687119E+02 -0.78074004764E+01 -0.62594012255E+02  0.95519983843E+02  0.52884403800E+02 0.  0.
          5    1    5    5  501    0  0.91975777823E+02 -0.85916596784E+01  0.48215615821E+00  0.92496933986E+02  0.47000000000E+01 0. -1.
        -11    1    6    6    0    0 -0.23875685907E+02 -0.13572045620E+02  0.59762893673E+00  0.27470092104E+02  0.00000000000E+00 0.  1.
         12    1    6    6    0    0 -0.24584001213E+02  0.57646451439E+01 -0.63191641191E+02  0.68049891739E+02  0.00000000000E+00 0. -1.
         -5    1    3    3    0  503 -0.53342549297E+02 -0.12802363143E+02 -0.21702374817E+03  0.22389891768E+03  0.47000000000E+01 0.  1.
         13    1    4    4    0    0 -0.21407487689E+02 -0.56264277834E+01  0.74137319272E+01  0.23343106903E+02  0.00000000000E+00 0. -1.
        -14    1    4    4    0    0  0.31233946282E+02  0.34827851081E+02 -0.61246912231E+02  0.77069597567E+02  0.00000000000E+00 0.  1.
</event>
<event>
12    1  0.8462562E-002  0.1940272E+03  0.7818608E-02  0.1155472E+00
         21   -1    0    0  503  502  0.00000000000E+00  0.00000000000E+00  0.24710204555E+03  0.24710204555E+03  0.00000000000E+00 0.  1.
         21   -1    0    0  501  503 -0.00000000000E+00 -0.00000000000E+00 -0.79614369201E+03  0.79614369201E+03  0.00000000000E+00 0.  1.
          6    2    1    2  501    0 -0.86931050521E+02  0.45543664504E+01 -0.74398812503E+03  0.76819903165E+03  0.17039270008E+03 0.  0.
         24    2    3    3    0    0 -0.11332925464E+03  0.40301099390E+02 -0.51729058250E+03  0.53713938592E+03  0.80383297941E+02 0.  0.
         -6    2    1    2    0  502  0.86931050521E+02 -0.45543664504E+01  0.19494647857E+03  0.27504670592E+03  0.17340360760E+03 0.  0.
        -24    2    5    5    0    0  0.12467937099E+03 -0.16736220063E+02  0.13696413870E+03  0.20463807724E+03  0.85396257247E+02 0.  0.
          5    1    3    3  501    0  0.26398204122E+02 -0.35746732940E+02 -0.22669754253E+03  0.23105964573E+03  0.47000000000E+01 0. -1.
        -11    1    4    4    0    0 -0.58779312293E+02 -0.18343991068E+02 -0.17225639586E+03  0.18293106755E+03  0.00000000000E+00 0.  1.
         12    1    4    4    0    0 -0.54549942350E+02  0.58645090458E+02 -0.34503418665E+03  0.35420831837E+03  0.00000000000E+00 0. -1.
         -5    1    5    5    0  502 -0.37748320468E+02  0.12181853613E+02  0.57982339871E+02  0.70408628680E+02  0.47000000000E+01 0.  1.
         13    1    6    6    0    0  0.71386527443E+01 -0.32404104681E+02  0.35253156245E+02  0.48412512725E+02  0.00000000000E+00 0. -1.
        -14    1    6    6    0    0  0.11754071825E+03  0.15667884617E+02  0.10171098246E+03  0.15622556451E+03  0.00000000000E+00 0.  1.
</event>
<event>
12    1  0.8462562E-002  0.2071002E+03  0.7818608E-02  0.1144138E+00
         21   -1    0    0  503  502  0.00000000000E+00  0.00000000000E+00  0.94048418469E+02  0.94048418469E+02  0.00000000000E+00 0. -1.
         21   -1    0    0  501  503 -0.00000000000E+00 -0.00000000000E+00 -0.50219203087E+03  0.50219203087E+03  0.00000000000E+00 0.  1.
          6    2    1    2  501    0  0.52073734033E+02 -0.10216374195E+03 -0.29654838594E+03  0.36098739012E+03  0.17094398696E+03 0.  0.
         24    2    3    3    0    0 -0.36241968929E+02 -0.60358900433E+02 -0.18014153084E+03  0.20893491866E+03  0.79032600407E+02 0.  0.
         -6    2    1    2    0  502 -0.52073734033E+02  0.10216374195E+03 -0.11159522646E+03  0.23525305922E+03  0.17245696088E+03 0.  0.
        -24    2    5    5    0    0 -0.35167200459E+02  0.94788432975E+01 -0.11259008762E+03  0.14091642230E+03  0.76513592163E+02 0.  0.
          5    1    3    3  501    0  0.88315702962E+02 -0.41804841520E+02 -0.11640685510E+03  0.15205247147E+03  0.47000000000E+01 0. -1.
        -11    1    4    4    0    0  0.15194748808E+01  0.43400759016E+01 -0.96661262091E+02  0.96770577407E+02  0.00000000000E+00 0.  1.
         12    1    4    4    0    0 -0.37761443810E+02 -0.64698976334E+02 -0.83480268751E+02  0.11216434125E+03  0.00000000000E+00 0. -1.
         -5    1    5    5    0  502 -0.16906533574E+02  0.92684898656E+02  0.99486115751E+00  0.94336636918E+02  0.47000000000E+01 0.  1.
         13    1    6    6    0    0 -0.12634152927E+02 -0.31959505135E+02 -0.67087210259E+02  0.75377221818E+02  0.00000000000E+00 0. -1.
        -14    1    6    6    0    0 -0.22533047532E+02  0.41438348432E+02 -0.45502877357E+02  0.65539200481E+02  0.00000000000E+00 0.  1.
</event>
<event>
12    1  0.8462562E-002  0.1732852E+03  0.7818608E-02  0.1174548E+00
         21   -1    0    0  501  502  0.00000000000E+00  0.00000000000E+00  0.18416578464E+03  0.18416578464E+03  0.00000000000E+00 0. -1.
         21   -1    0    0  502  503 -0.00000000000E+00 -0.00000000000E+00 -0.16347006731E+03  0.16347006731E+03  0.00000000000E+00 0. -1.
         -6    2    1    2    0  503 -0.36267149957E+01 -0.15998251906E+02 -0.12951843600E+01  0.17296086874E+03  0.17217632674E+03 0.  0.
        -24    2    3    3    0    0  0.24670913239E+02 -0.40621903587E+02  0.54068959083E+02  0.10592089287E+03  0.77698070758E+02 0.  0.
          6    2    1    2  501    0  0.36267149957E+01  0.15998251906E+02  0.21990901692E+02  0.17467498320E+03  0.17250696471E+03 0.  0.
         24    2    5    5    0    0 -0.51737622360E+02 -0.30157289333E+02  0.21845689099E+02  0.10244164654E+03  0.80192350925E+02 0.  0.
          5    1    5    5  501    0  0.55364337356E+02  0.46155541239E+02  0.14521259344E+00  0.72233336657E+02  0.47000000000E+01 0. -1.
        -11    1    6    6    0    0 -0.60182826078E+01 -0.16863853058E+02 -0.28175103422E+02  0.33383314969E+02  0.00000000000E+00 0.  1.
         12    1    6    6    0    0 -0.45719339752E+02 -0.13293436275E+02  0.50020792521E+02  0.69058331574E+02  0.00000000000E+00 0. -1.
         -5    1    3    3    0  503 -0.28297628235E+02  0.24623651681E+02 -0.55364143443E+02  0.67039975872E+02  0.47000000000E+01 0.  1.
         11    1    4    4    0    0 -0.16605248212E+02 -0.36454998708E+01 -0.11155145634E+02  0.20333745636E+02  0.00000000000E+00 0. -1.
        -12    1    4    4    0    0  0.41276161451E+02 -0.36976403716E+02  0.65224104717E+02  0.85587147236E+02  0.00000000000E+00 0.  1.
</event>
<event>
12    1  0.8462562E-002  0.1945123E+03  0.7818608E-02  0.1154497E+00
         21   -1    0    0  501  502  0.00000000000E+00  0.00000000000E+00  0.14561347202E+03  0.14561347202E+03  0.00000000000E+00 0.  1.
         21   -1    0    0  502  503 -0.00000000000E+00 -0.00000000000E+00 -0.26032056108E+03  0.26032056108E+03  0.00000000000E+00 0. -1.
         -6    2    1    2    0  503 -0.17548463203E+02  0.87339729837E+02 -0.46434966654E+02  0.19997814041E+03  0.17291290739E+03 0.  0.
        -24    2    3    3    0    0 -0.35003493397E+02  0.63201629342E+02  0.35061825742E+02  0.11308082661E+03  0.79613134723E+02 0.  0.
          6    2    1    2  501    0  0.17548463203E+02 -0.87339729837E+02 -0.68272122402E+02  0.20595589269E+03  0.17268633434E+03 0.  0.
         24    2    5    5    0    0  0.63505734838E+02 -0.80564601966E+02 -0.87228102380E+01  0.13028434088E+03  0.79839142119E+02 0.  0.
          5    1    5    5  501    0 -0.45957271635E+02 -0.67751278713E+01 -0.59549312164E+02  0.75671551808E+02  0.47000000000E+01 0. -1.
        -11    1    6    6    0    0  0.10617187699E+02  0.81907928890E+00  0.25288010450E+02  0.27438641330E+02  0.00000000000E+00 0.  1.
         12    1    6    6    0    0  0.52888547139E+02 -0.81383681254E+02 -0.34010820688E+02  0.10284569955E+03  0.00000000000E+00 0. -1.
         -5    1    3    3    0  503  0.17455030194E+02  0.24138100494E+02 -0.81496792397E+02  0.86897313799E+02  0.47000000000E+01 0.  1.
         11    1    4    4    0    0  0.16243052441E+02 -0.36207516508E+01 -0.80382892332E+01  0.18481360580E+02  0.00000000000E+00 0. -1.
        -12    1    4    4    0    0 -0.51246545837E+02  0.66822380993E+02  0.43100114975E+02  0.94599466028E+02  0.00000000000E+00 0.  1.
</event>
<event>
12    1  0.8462562E-002  0.1789243E+03  0.7818608E-02  0.1169255E+00
         21   -1    0    0  501  502  0.00000000000E+00  0.00000000000E+00  0.74107219051E+02  0.74107219051E+02  0.00000000000E+00 0. -1.
         21   -1    0    0  502  503 -0.00000000000E+00 -0.00000000000E+00 -0.49155596447E+03  0.49155596447E+03  0.00000000000E+00 0. -1.
         -6    2    1    2    0  503 -0.11780702306E+01  0.41295158714E+02 -0.31127297869E+03  0.35903310198E+03  0.17408969836E+03 0.  0.
        -24    2    3    3    0    0 -0.58561214512E+02  0.16192710735E+02 -0.11267187623E+03  0.15073656807E+03  0.79592345949E+02 0.  0.
          6    2    1    2  501    0  0.11780702306E+01 -0.41295158714E+02 -0.10617576673E+03  0.20663008154E+03  0.17238334947E+03 0.  0.
         24    2    5    5    0    0 -0.17970938697E+02  0.23781338340E+02 -0.75333130110E+01  0.86821656596E+02  0.81195705295E+02 0.  0.
          5    1    5    5  501    0  0.19149008928E+02 -0.65076497054E+02 -0.98642453717E+02  0.11980842494E+03  0.47000000000E+01 0. -1.
        -11    1    6    6    0    0 -0.40185110101E+02  0.37627781961E+02  0.91128741960E+01  0.55800873875E+02  0.00000000000E+00 0.  1.
         12    1    6    6    0    0  0.22214171404E+02 -0.13846443621E+02 -0.16646187207E+02  0.31020782721E+02  0.00000000000E+00 0. -1.
         -5    1    3    3    0  503  0.57383144282E+02  0.25102447979E+02 -0.19860110246E+03  0.20829653391E+03  0.47000000000E+01 0.  1.
         13    1    4    4    0    0 -0.19088030320E+01  0.24640315495E+02 -0.42267167326E+00  0.24717753297E+02  0.00000000000E+00 0. -1.
        -14    1    4    4    0    0 -0.56652411480E+02 -0.84476047599E+01 -0.11224920456E+03  0.12601881477E+03  0.00000000000E+00 0.  1.
</event>
<event>
12    1  0.8462562E-002  0.2140077E+03  0.7818608E-02  0.1138543E+00
         21   -1    0    0  503  502  0.00000000000E+00  0.00000000000E+00  0.10710751572E+03  0.10710751572E+03  0.00000000000E+00 0. -1.
         21   -1    0    0  501  503 -0.00000000000E+00 -0.00000000000E+00 -0.42694548727E+03  0.42694548727E+03  0.00000000000E+00 0. -1.
          6    2    1    2  501    0 -0.10881636875E+03  0.64080398048E+02 -0.16931435365E+03  0.27288575814E+03  0.17277727605E+03 0.  0.
         24    2    3    3    0    0 -0.79479650142E+02  0.11130587504E+03 -0.12005337974E+03  0.19845711925E+03  0.79160606297E+02 0.  0.
         -6    2    1    2    0  502  0.10881636875E+03 -0.64080398048E+02 -0.15052361790E+03  0.26116724485E+03  0.17205717280E+03 0.  0.
        -24    2    5    5    0    0  0.98760222900E+02 -0.72997825159E+02 -0.17786006044E+03  0.23034488824E+03  0.79638573148E+02 0.  0.
          5    1    3    3  501    0 -0.29336718607E+02 -0.47225476993E+02 -0.49260973910E+02  0.74428638886E+02  0.47000000000E+01 0. -1.
        -11    1    4    4    0    0 -0.85760942251E+01  0.50213990818E+01  0.11413862965E+02  0.15134071120E+02  0.00000000000E+00 0.  1.
         12    1    4    4    0    0 -0.70903555916E+02  0.10628447596E+03 -0.13146724271E+03  0.18332304813E+03  0.00000000000E+00 0. -1.
         -5    1    5    5    0  502  0.10056145849E+02  0.89174271109E+01  0.27336442545E+02  0.30822356604E+02  0.47000000000E+01 0.  1.
         11    1    6    6    0    0  0.48157575978E+02 -0.39195388693E+02 -0.27066177563E+02  0.67734840272E+02  0.00000000000E+00 0. -1.
        -12    1    6    6    0    0  0.50602646922E+02 -0.33802436467E+02 -0.15079388288E+03  0.16261004797E+03  0.00000000000E+00 0.  1.
</event>
<event>
12    1  0.8462562E-002  0.2495958E+03  0.7818608E-02  0.1113837E+00
         21   -1    0    0  503  502  0.00000000000E+00  0.00000000000E+00  0.63938351838E+02  0.63938351838E+02  0.00000000000E+00 0. -1.
         21   -1    0    0  501  503 -0.00000000000E+00 -0.00000000000E+00 -0.11552734961E+04  0.11552734961E+04  0.00000000000E+00 0. -1.
          6    2    1    2  501    0 -0.15988960846E+03 -0.81586677088E+02 -0.29835139754E+03  0.38787478703E+03  0.17091583083E+03 0.  0.
         24    2    3    3    0    0 -0.67027581719E+02 -0.86800335151E+02 -0.24594603969E+03  0.28101530092E+03  0.80331500781E+02 0.  0.
         -6    2    1    2    0  502  0.15988960846E+03  0.81586677088E+02 -0.79298374673E+03  0.83133706091E+03  0.17342725708E+03 0.  0.
        -24    2    5    5    0    0  0.91829060943E+02  0.23803903283E+02 -0.65685164931E+03  0.66847170234E+03  0.80007033281E+02 0.  0.
          5    1    3    3  501    0 -0.92862026741E+02  0.52136580637E+01 -0.52405357847E+02  0.10685948611E+03  0.47000000000E+01 0. -1.
        -11    1    4    4    0    0 -0.29637652050E+02  0.10241640537E+02 -0.68587251689E+02  0.75415467340E+02  0.00000000000E+00 0.  1.
         12    1    4    4    0    0 -0.37389929669E+02 -0.97041975688E+02 -0.17735878800E+03  0.20559983358E+03  0.00000000000E+00 0. -1.
         -5    1    5    5    0  502  0.68060547517E+02  0.57782773804E+02 -0.13613209742E+03  0.16286535857E+03  0.47000000000E+01 0.  1.
         13    1    6    6    0    0  0.71829457981E+02  0.18547475622E+02 -0.24224760063E+03  0.25335228418E+03  0.00000000000E+00 0. -1.
        -14    1    6    6    0    0  0.19999602961E+02  0.52564276613E+01 -0.41460404868E+03  0.41511941816E+03  0.00000000000E+00 0.  1.
</event>
<event>
12    1  0.8462562E-002  0.2661318E+03  0.7818608E-02  0.1103582E+00
         21   -1    0    0  501  502  0.00000000000E+00  0.00000000000E+00  0.22279799102E+03  0.22279799102E+03  0.00000000000E+00 0.  1.
         21   -1    0    0  502  503 -0.00000000000E+00 -0.00000000000E+00 -0.59167423803E+03  0.59167423803E+03  0.00000000000E+00 0. -1.
         -6    2    1    2    0  503  0.14393504430E+03  0.14241691355E+03 -0.46182067358E+03  0.53301449366E+03  0.17270275525E+03 0.  0.
        -24    2    3    3    0    0  0.23922326339E+02  0.95411465789E+01 -0.17996081726E+03  0.19905927133E+03  0.81088757412E+02 0.  0.
          6    2    1    2  501    0 -0.14393504430E+03 -0.14241691355E+03  0.92944426570E+02  0.28145773539E+03  0.17198812789E+03 0.  0.
         24    2    5    5    0    0 -0.99653189566E+02 -0.17049597551E+03  0.75154767913E+02  0.22588905414E+03  0.79862317675E+02 0.  0.
          5    1    5    5  501    0 -0.44281854739E+02  0.28079061967E+02  0.17789658657E+02  0.55568681244E+02  0.47000000000E+01 0. -1.
        -11    1    6    6    0    0 -0.11139664283E+03 -0.14161741896E+03  0.73730609655E+02  0.19468155584E+03  0.00000000000E+00 0.  1.
         12    1    6    6    0    0  0.11743453263E+02 -0.28878556558E+02  0.14241582583E+01  0.31207498300E+02  0.00000000000E+00 0. -1.
         -5    1    3    3    0  503  0.12001271797E+03  0.13287576697E+03 -0.28185985632E+03  0.33395522233E+03  0.47000000000E+01 0.  1.
         13    1    4    4    0    0  0.68222434894E+01  0.32828768049E+02 -0.16110904581E+03  0.16456122162E+03  0.00000000000E+00 0. -1.
        -14    1    4    4    0    0  0.17100082850E+02 -0.23287621470E+02 -0.18851771443E+02  0.34498049709E+02  0.00000000000E+00 0.  1.
</event>
<event>
12    1  0.8462562E-002  0.1950401E+03  0.7818608E-02  0.1154502E+00
         21   -1    0    0  501  502  0.00000000000E+00  0.00000000000E+00  0.15217519616E+04  0.15217519616E+04  0.00000000000E+00 0.  1.
         21   -1    0    0  502  503 -0.00000000000E+00 -0.00000000000E+00 -0.26973366722E+02  0.26973366722E+02  0.00000000000E+00 0. -1.
         -6    2    1    2    0  503  0.77335145088E+02 -0.53164974240E+02  0.52673138489E+03  0.56168192503E+03  0.17097775857E+03 0.  0.
        -24    2    3    3    0    0  0.13848577562E+02  0.23581093583E+02  0.33538100104E+03  0.34590990974E+03  0.80158584836E+02 0.  0.
          6    2    1    2  501    0 -0.77335145088E+02  0.53164974240E+02  0.96804720998E+03  0.98704340329E+03  0.16832124069E+03 0.  0.
         24    2    5    5    0    0 -0.57987878179E+02  0.35638958279E+01  0.28123523749E+03  0.29815490775E+03  0.80173529569E+02 0.  0.
          5    1    5    5  501    0 -0.19347266909E+02  0.49601078412E+02  0.68681197249E+03  0.68888849553E+03  0.47000000000E+01 0. -1.
        -11    1    6    6    0    0  0.31569680427E+01  0.19207645259E+02  0.15092600076E+02  0.24631010143E+02  0.00000000000E+00 0.  1.
         12    1    6    6    0    0 -0.61144846222E+02 -0.15643749431E+02  0.26614263741E+03  0.27352389761E+03  0.00000000000E+00 0. -1.
         -5    1    3    3    0  503  0.63486567526E+02 -0.76746067823E+02  0.19135038385E+03  0.21577201529E+03  0.47000000000E+01 0.  1.
         11    1    4    4    0    0  0.29484562091E+02  0.26873911438E+02  0.74236042463E+02  0.84276547854E+02  0.00000000000E+00 0. -1.
        -12    1    4    4    0    0 -0.15635984529E+02 -0.32928178547E+01  0.26114495858E+03  0.26163336189E+03  0.00000000000E+00 0.  1.
</event>
<event>
12    1  0.8462562E-002  0.1932272E+03  0.7818608E-02  0.1156765E+00
         21   -1    0    0  501  502  0.00000000000E+00  0.00000000000E+00  0.14787872704E+03  0.14787872704E+03  0.00000000000E+00 0.  1.
         21   -1    0    0  502  503 -0.00000000000E+00 -0.00000000000E+00 -0.25744034726E+03  0.25744034726E+03  0.00000000000E+00 0.  1.
         -6    2    1    2    0  503 -0.77587137970E+02  0.59199327695E+01 -0.98915449224E+02  0.21707373158E+03  0.17686698184E+03 0.  0.
        -24    2    3    3    0    0  0.24737247933E+02 -0.50148392262E+01 -0.72528205725E+02  0.11073358954E+03  0.79777861460E+02 0.  0.
          6    2    1    2  501    0  0.77587137970E+02 -0.59199327695E+01 -0.10646171001E+02  0.18824534272E+03  0.17107939243E+03 0.  0.
         24    2    5    5    0    0  0.46076800651E+02 -0.54090608035E+02  0.10637381428E+02  0.12669540431E+03  0.10435375487E+03 0.  0.
          5    1    5    5  501    0  0.31510337319E+02  0.48170675266E+02 -0.21283552428E+02  0.61549938404E+02  0.47000000000E+01 0. -1.
        -13    1    6    6    0    0  0.12398944046E+02 -0.66262151713E+01  0.52922059479E+02  0.54757510174E+02  0.00000000000E+00 0.  1.
         14    1    6    6    0    0  0.33677856605E+02 -0.47464392864E+02 -0.42284678051E+02  0.71937894140E+02  0.00000000000E+00 0. -1.
         -5    1    3    3    0  503 -0.10232438590E+03  0.10934771996E+02 -0.26387243499E+02  0.10634014204E+03  0.47000000000E+01 0.  1.
         11    1    4    4    0    0  0.15203000304E+02 -0.24630042474E+02  0.57189323744E+01  0.29503837005E+02  0.00000000000E+00 0. -1.
        -12    1    4    4    0    0  0.95342476290E+01  0.19615203248E+02 -0.78247138099E+02  0.81229752536E+02  0.00000000000E+00 0.  1.
</event>
<event>
12    1  0.8462562E-002  0.3180969E+03  0.7818608E-02  0.1076983E+00
         21   -1    0    0  501  502  0.00000000000E+00  0.00000000000E+00  0.28406733324E+03  0.28406733324E+03  0.00000000000E+00 0. -1.
         21   -1    0    0  502  503 -0.00000000000E+00 -0.00000000000E+00 -0.47301565694E+03  0.47301565694E+03  0.00000000000E+00 0.  1.
         -6    2    1    2    0  503  0.80346237858E+02 -0.25035799681E+03 -0.28561900364E+03  0.42462113093E+03  0.17201815335E+03 0.  0.
        -24    2    3    3    0    0  0.26994593768E+02 -0.56142498724E+02 -0.15343520670E+03  0.18366324291E+03  0.79430069146E+02 0.  0.
          6    2    1    2  501    0 -0.80346237858E+02  0.25035799681E+03  0.96670679947E+02  0.33246185926E+03  0.17902799500E+03 0.  0.
         24    2    5    5    0    0 -0.24816518931E+01  0.21699060621E+03  0.86965650129E+02  0.24706540671E+03  0.79920016969E+02 0.  0.
          5    1    5    5  501    0 -0.77864585965E+02  0.33367390600E+02  0.97050298185E+01  0.85396452542E+02  0.47000000000E+01 0. -1.
        -11    1    6    6    0    0  0.31855381696E+02  0.13322528978E+03  0.73760554767E+02  0.15557751322E+03  0.00000000000E+00 0.  1.
         12    1    6    6    0    0 -0.34337033589E+02  0.83765316435E+02  0.13205095362E+02  0.91487893498E+02  0.00000000000E+00 0. -1.
         -5    1    3    3    0  503  0.53351644090E+02 -0.19421549809E+03 -0.13218379694E+03  0.24095788802E+03  0.47000000000E+01 0.  1.
         11    1    4    4    0    0  0.32299970741E+02 -0.12570760577E+02 -0.12868853146E+03  0.13327434209E+03  0.00000000000E+00 0. -1.
        -12    1    4    4    0    0 -0.53053769734E+01 -0.43571738147E+02 -0.24746675245E+02  0.50388900818E+02  0.00000000000E+00 0.  1.
</event>
<event>
12    1  0.8462562E-002  0.1863315E+03  0.7818608E-02  0.1161975E+00
         21   -1    0    0  503  502  0.00000000000E+00  0.00000000000E+00  0.32092315185E+03  0.32092315185E+03  0.00000000000E+00 0.  1.
         21   -1    0    0  501  503 -0.00000000000E+00 -0.00000000000E+00 -0.11751385058E+03  0.11751385058E+03  0.00000000000E+00 0. -1.
          6    2    1    2  501    0 -0.24687971860E+02 -0.69657397128E+02  0.38781892607E+02  0.19032461419E+03  0.17104904163E+03 0.  0.
         24    2    3    3    0    0  0.30099909317E+02 -0.12600239311E+02 -0.22570826400E+02  0.90107463407E+02  0.80902053037E+02 0.  0.
         -6    2    1    2    0  502  0.24687971860E+02  0.69657397128E+02  0.16462740866E+03  0.24811238824E+03  0.17028189742E+03 0.  0.
        -24    2    5    5    0    0  0.63904755052E+02  0.80614377246E+01  0.13293939903E+03  0.16837382635E+03  0.80796392782E+02 0.  0.
          5    1    3    3  501    0 -0.54787881177E+02 -0.57057157817E+02  0.61352719007E+02  0.10021715079E+03  0.47000000000E+01 0. -1.
        -11    1    4    4    0    0  0.11922247235E+02 -0.23098537151E+02  0.26263875957E+02  0.36952314920E+02  0.00000000000E+00 0.  1.
         12    1    4    4    0    0  0.18177662082E+02  0.10498297840E+02 -0.48834702358E+02  0.53155148487E+02  0.00000000000E+00 0. -1.
         -5    1    5    5    0  502 -0.39216783192E+02  0.61595959404E+02  0.31688009623E+02  0.79738561892E+02  0.47000000000E+01 0.  1.
         11    1    6    6    0    0  0.10580800206E+02  0.42487439725E+00 -0.10646371855E+02  0.15015961006E+02  0.00000000000E+00 0. -1.
        -12    1    6    6    0    0  0.53323954847E+02  0.76365633274E+01  0.14358577089E+03  0.15335786534E+03  0.00000000000E+00 0.  1.
</event>
<event>
12    1  0.8462562E-002  0.1739570E+03  0.7818608E-02  0.1174830E+00
         21   -1    0    0  503  502  0.00000000000E+00  0.00000000000E+00  0.39797130343E+03  0.39797130343E+03  0.00000000000E+00 0.  1.
         21   -1    0    0  501  503 -0.00000000000E+00 -0.00000000000E+00 -0.82632874314E+02  0.82632874314E+02  0.00000000000E+00 0.  1.
          6    2    1    2  501    0  0.20709474337E+02  0.11648388843E+02  0.79507895471E+02  0.18755626504E+03  0.16820011838E+03 0.  0.
         24    2    3    3    0    0  0.71974175926E+02  0.14247830307E+02  0.20977173781E+02  0.10956420066E+03  0.78619269763E+02 0.  0.
         -6    2    1    2    0  502 -0.20709474337E+02 -0.11648388843E+02  0.23583053365E+03  0.29304791270E+03  0.17232664115E+03 0.  0.
        -24    2    5    5    0    0 -0.17761377397E+02 -0.18177334570E+02  0.25687122273E+03  0.27032966002E+03  0.80308268584E+02 0.  0.
          5    1    3    3  501    0 -0.51264701589E+02 -0.25994414634E+01  0.58530721691E+02  0.77992064382E+02  0.47000000000E+01 0. -1.
        -11    1    4    4    0    0  0.22756560366E+02 -0.32487886139E+02  0.78433918036E+01  0.40433186622E+02  0.00000000000E+00 0.  1.
         12    1    4    4    0    0  0.49217615559E+02  0.46735716445E+02  0.13133781977E+02  0.69131014039E+02  0.00000000000E+00 0. -1.
         -5    1    5    5    0  502 -0.29480969395E+01  0.65289457269E+01 -0.21040689081E+02  0.22718252681E+02  0.47000000000E+01 0.  1.
         13    1    6    6    0    0 -0.17180953524E+02 -0.25202016292E+02  0.28169186750E+02  0.41519030231E+02  0.00000000000E+00 0. -1.
        -14    1    6    6    0    0 -0.58042387379E+00  0.70246817220E+01  0.22870203598E+03  0.22881062979E+03  0.00000000000E+00 0.  1.
</event>
<event>
12    1  0.8462562E-002  0.1797727E+03  0.7818608E-02  0.1169215E+00
         21   -1    0    0  501  502  0.00000000000E+00  0.00000000000E+00  0.48344382069E+03  0.48344382069E+03  0.00000000000E+00 0.  1.
         21   -1    0    0  502  503 -0.00000000000E+00 -0.00000000000E+00 -0.22318030499E+03  0.22318030499E+03  0.00000000000E+00 0.  1.
         -6    2    1    2    0  503 -0.10190182079E+02  0.34620201027E+02 -0.16776727660E+03  0.24237356988E+03  0.17116275923E+03 0.  0.
        -24    2    3    3    0    0 -0.69507981778E+02  0.14429584529E+02 -0.13531026444E+03  0.17165009433E+03  0.78200478130E+02 0.  0.
          6    2    1    2  501    0  0.10190182079E+02 -0.34620201027E+02  0.42803079230E+03  0.46425055580E+03  0.17611309229E+03 0.  0.
         24    2    5    5    0    0  0.34767752578E+02 -0.71553821395E+02  0.17742382385E+03  0.20970371940E+03  0.78534646405E+02 0.  0.
          5    1    5    5  501    0 -0.24577570498E+02  0.36933620369E+02  0.25060696845E+03  0.25454683640E+03  0.47000000000E+01 0. -1.
        -11    1    6    6    0    0 -0.11629209052E+01 -0.72193795234E+02  0.14168338951E+03  0.15902037391E+03  0.00000000000E+00 0.  1.
         12    1    6    6    0    0  0.35930673483E+02  0.63997383873E+00  0.35740434338E+02  0.50683345490E+02  0.00000000000E+00 0. -1.
         -5    1    3    3    0  503  0.59317799699E+02  0.20190616497E+02 -0.32457012162E+02  0.70723475552E+02  0.47000000000E+01 0.  1.
         13    1    4    4    0    0 -0.67882740512E+02 -0.17814084056E+02 -0.11062806873E+03  0.13101136455E+03  0.00000000000E+00 0. -1.
        -14    1    4    4    0    0 -0.16252412657E+01  0.32243668586E+02 -0.24682195710E+02  0.40638729780E+02  0.00000000000E+00 0.  1.
</event>
<event>
12    1  0.8462562E-002  0.1797458E+03  0.7818608E-02  0.1168080E+00
         21   -1    0    0  503  502  0.00000000000E+00  0.00000000000E+00  0.46604876564E+03  0.46604876564E+03  0.00000000000E+00 0. -1.
         21   -1    0    0  501  503 -0.00000000000E+00 -0.00000000000E+00 -0.26940644655E+03  0.26940644655E+03  0.00000000000E+00 0. -1.
          6    2    1    2  501    0  0.15486272520E+01 -0.52476015019E+02 -0.21862973650E+03  0.28295170525E+03  0.17177478110E+03 0.  0.
         24    2    3    3    0    0  0.34897677167E+02 -0.55884471993E+02 -0.56485120954E+02  0.11731130239E+03  0.78933204023E+02 0.  0.
         -6    2    1    2    0  502 -0.15486272520E+01  0.52476015019E+02  0.41527205560E+03  0.45250350694E+03  0.17190815348E+03 0.  0.
        -24    2    5    5    0    0 -0.28482097020E+02  0.86953961167E+02  0.20322144788E+03  0.23593552501E+03  0.77423471043E+02 0.  0.
          5    1    3    3  501    0 -0.33349049915E+02  0.34084569741E+01 -0.16214461555E+03  0.16564040286E+03  0.47000000000E+01 0. -1.
        -13    1    4    4    0    0 -0.15761322365E+02 -0.49089581923E+02 -0.25232276626E+02  0.57400994067E+02  0.00000000000E+00 0.  1.
         14    1    4    4    0    0  0.50658999532E+02 -0.67948900700E+01 -0.31252844328E+02  0.59910308323E+02  0.00000000000E+00 0. -1.
         -5    1    5    5    0  502  0.26933469768E+02 -0.34477946148E+02  0.21205060772E+03  0.21656798193E+03  0.47000000000E+01 0.  1.
         13    1    6    6    0    0 -0.18706259319E+02 -0.53449944005E+01  0.76030530392E+02  0.78480154526E+02  0.00000000000E+00 0. -1.
        -14    1    6    6    0    0 -0.97758377014E+01  0.92298955567E+02  0.12719091749E+03  0.15745537048E+03  0.00000000000E+00 0.  1.
</event>
<event>
12    1  0.8462562E-002  0.1831487E+03  0.7818608E-02  0.1165941E+00
         21   -1    0    0  503  502  0.00000000000E+00  0.00000000000E+00  0.64676456082E+03  0.64676456082E+03  0.00000000000E+00 0.  1.
         21   -1    0    0  501  503 -0.00000000000E+00 -0.00000000000E+00 -0.67320469557E+02  0.67320469557E+02  0.00000000000E+00 0.  1.
          6    2    1    2  501    0 -0.40471490845E+02  0.22889823371E+02  0.10845047513E+03  0.20873521006E+03  0.17218303277E+03 0.  0.
         24    2    3    3    0    0 -0.29770972544E+01  0.69170109033E+02  0.10353654449E+03  0.14878580550E+03  0.81388161195E+02 0.  0.
         -6    2    1    2    0  502  0.40471490845E+02 -0.22889823371E+02  0.47099361613E+03  0.50534982032E+03  0.17714843742E+03 0.  0.
        -24    2    5    5    0    0 -0.33029672065E+02 -0.50327232842E+01  0.36669308476E+03  0.37642353202E+03  0.78195712818E+02 0.  0.
          5    1    3    3  501    0 -0.37494393591E+02 -0.46280285662E+02  0.49139306440E+01  0.59949404551E+02  0.47000000000E+01 0. -1.
        -11    1    4    4    0    0 -0.41238153344E+02  0.28468195839E+02  0.58519789484E+02  0.77042775306E+02  0.00000000000E+00 0.  1.
         12    1    4    4    0    0  0.38261056089E+02  0.40701913195E+02  0.45016755006E+02  0.71743030198E+02  0.00000000000E+00 0. -1.
         -5    1    5    5    0  502  0.73501162910E+02 -0.17857100087E+02  0.10430053137E+03  0.12892628831E+03  0.47000000000E+01 0.  1.
         11    1    6    6    0    0  0.40479036556E+01  0.30750085966E+02  0.96528386964E+02  0.10138877059E+03  0.00000000000E+00 0. -1.
        -12    1    6    6    0    0 -0.37077575721E+02 -0.35782809250E+02  0.27016469780E+03  0.27503476143E+03  0.00000000000E+00 0.  1.
</event>
<event>
12    1  0.8462562E-002  0.2047800E+03  0.7818608E-02  0.1145848E+00
         21   -1    0    0  501  502  0.00000000000E+00  0.00000000000E+00  0.14394867064E+03  0.14394867064E+03  0.00000000000E+00 0.  1.
         21   -1    0    0  502  503 -0.00000000000E+00 -0.00000000000E+00 -0.33618412868E+03  0.33618412868E+03  0.00000000000E+00 0.  1.
         -6    2    1    2    0  503  0.50204871384E+01  0.11095383814E+03 -0.18428096177E+03  0.27519832531E+03  0.17157705527E+03 0.  0.
        -24    2    3    3    0    0  0.60669704395E+02  0.41093729660E+02 -0.13111244428E+03  0.17114905145E+03  0.82048870318E+02 0.  0.
          6    2    1    2  501    0 -0.50204871384E+01 -0.11095383814E+03 -0.79544962694E+01  0.20493447400E+03  0.17204332343E+03 0.  0.
         24    2    5    5    0    0  0.53379526030E+02 -0.86373277886E+02  0.27308709596E+02  0.13226846291E+03  0.80246269251E+02 0.  0.
          5    1    5    5  501    0 -0.58400013169E+02 -0.24580560251E+02 -0.35263205865E+02  0.72666011093E+02  0.47000000000E+01 0. -1.
        -11    1    6    6    0    0  0.52230967097E+02 -0.68592078936E+02 -0.13941419106E+02  0.87334474198E+02  0.00000000000E+00 0.  1.
         12    1    6    6    0    0  0.11485589335E+01 -0.17781198949E+02  0.41250128701E+02  0.44933988712E+02  0.00000000000E+00 0. -1.
         -5    1    3    3    0  503 -0.55649217256E+02  0.69860108476E+02 -0.53168517493E+02  0.10404927386E+03  0.47000000000E+01 0.  1.
         11    1    4    4    0    0  0.16010283397E+02  0.45796612115E+02 -0.22220838291E+02  0.53361264135E+02  0.00000000000E+00 0. -1.
        -12    1    4    4    0    0  0.44659420998E+02 -0.47028824550E+01 -0.10889160599E+03  0.11778778732E+03  0.00000000000E+00 0.  1.
</event>
<event>
12    1  0.8462562E-002  0.2142078E+03  0.7818608E-02  0.1139526E+00
         21   -1    0    0  501  502  0.00000000000E+00  0.00000000000E+00  0.82512192789E+03  0.82512192789E+03  0.00000000000E+00 0.  1.
         21   -1    0    0  502  503 -0.00000000000E+00 -0.00000000000E+00 -0.76424965655E+02  0.76424965655E+02  0.00000000000E+00 0. -1.
         -6    2    1    2    0  503 -0.75258971712E+02 -0.10284606717E+03  0.12602889040E+03  0.24306338543E+03  0.16418069851E+03 0.  0.
        -24    2    3    3    0    0 -0.10170963462E+03 -0.92109821065E+02  0.59187220365E+02  0.17022930411E+03  0.81521898970E+02 0.  0.
          6    2    1    2  501    0  0.75258971712E+02  0.10284606717E+03  0.62266807183E+03  0.65848350811E+03  0.17217368100E+03 0.  0.
         24    2    5    5    0    0  0.79715817217E+02  0.39956971314E+02  0.54678870496E+03  0.55971777435E+03  0.79717802161E+02 0.  0.
          5    1    5    5  501    0 -0.44568455041E+01  0.62889095855E+02  0.75879366866E+02  0.98765733760E+02  0.47000000000E+01 0. -1.
        -11    1    6    6    0    0  0.81629275889E+02  0.38619888633E+02  0.30918933803E+03  0.32210694068E+03  0.00000000000E+00 0.  1.
         12    1    6    6    0    0 -0.19134586724E+01  0.13370826803E+01  0.23759936693E+03  0.23761083367E+03  0.00000000000E+00 0. -1.
         -5    1    3    3    0  503  0.26450662903E+02 -0.10736246103E+02  0.66841670038E+02  0.72834081321E+02  0.47000000000E+01 0.  1.
         11    1    4    4    0    0 -0.95747924477E+02 -0.55472165873E+02  0.70761734837E+02  0.13134705686E+03  0.00000000000E+00 0. -1.
        -12    1    4    4    0    0 -0.59617101388E+01 -0.36637655192E+02 -0.11574514472E+02  0.38882247248E+02  0.00000000000E+00 0.  1.
</event>
<event>
12    1  0.8462562E-002  0.2763342E+03  0.7818608E-02  0.1097730E+00
         21   -1    0    0  503  502  0.00000000000E+00  0.00000000000E+00  0.52557681667E+03  0.52557681667E+03  0.00000000000E+00 0. -1.
         21   -1    0    0  501  503 -0.00000000000E+00 -0.00000000000E+00 -0.15152821373E+03  0.15152821373E+03  0.00000000000E+00 0.  1.
          6    2    1    2  501    0 -0.83763151208E+00  0.21590928005E+03  0.25622548364E+03  0.37684494116E+03  0.17246185774E+03 0.  0.
         24    2    3    3    0    0 -0.36136492066E+02  0.17590949700E+03  0.12002301708E+03  0.23049196341E+03  0.80442671353E+02 0.  0.
         -6    2    1    2    0  502  0.83763151208E+00 -0.21590928005E+03  0.11782311931E+03  0.30026008925E+03  0.17221008946E+03 0.  0.
        -24    2    5    5    0    0  0.66825236331E+02 -0.11700916090E+03  0.77705046201E+02  0.17469278718E+03  0.79515657222E+02 0.  0.
          5    1    3    3  501    0  0.35298860554E+02  0.39999783052E+02  0.13620246655E+03  0.14635297775E+03  0.47000000000E+01 0. -1.
        -13    1    4    4    0    0 -0.60524818514E+02  0.11114792594E+03  0.66223712800E+02  0.14283800346E+03  0.00000000000E+00 0.  1.
         14    1    4    4    0    0  0.24388326448E+02  0.64761571060E+02  0.53799304283E+02  0.87653959948E+02  0.00000000000E+00 0. -1.
         -5    1    5    5    0  502 -0.65987604819E+02 -0.98900119152E+02  0.40118073106E+02  0.12556730206E+03  0.47000000000E+01 0.  1.
         11    1    6    6    0    0  0.72138038247E+02 -0.53586124162E+02  0.28594505455E+02  0.94302783665E+02  0.00000000000E+00 0. -1.
        -12    1    6    6    0    0 -0.53128019155E+01 -0.63423036735E+02  0.49110540746E+02  0.80390003516E+02  0.00000000000E+00 0.  1.
</event>
<event>
12    1  0.8462562E-002  0.2010228E+03  0.7818608E-02  0.1149003E+00
         21   -1    0    0  501  502  0.00000000000E+00  0.00000000000E+00  0.70466378489E+02  0.70466378489E+02  0.00000000000E+00 0. -1.
         21   -1    0    0  502  503 -0.00000000000E+00 -0.00000000000E+00 -0.82483813828E+03  0.82483813828E+03  0.00000000000E+00 0. -1.
         -6    2    1    2    0  503  0.10133044840E+03 -0.18760751514E+02 -0.62551920887E+03  0.65702697267E+03  0.17259877341E+03 0.  0.
        -24    2    3    3    0    0  0.50271478804E+02 -0.71708082353E+02 -0.28610920141E+03  0.30970625434E+03  0.79938840300E+02 0.  0.
          6    2    1    2  501    0 -0.10133044840E+03  0.18760751514E+02 -0.12885255092E+03  0.23827754410E+03  0.17191097281E+03 0.  0.
         24    2    5    5    0    0 -0.12845392193E+03 -0.17955287082E+02 -0.11467587235E+03  0.19024819347E+03  0.78873424086E+02 0.  0.
          5    1    5    5  501    0  0.27123473527E+02  0.36716038596E+02 -0.14176678572E+02  0.48029350628E+02  0.47000000000E+01 0. -1.
        -13    1    6    6    0    0 -0.53173033229E+02  0.27767327279E+02 -0.67603219959E+02  0.90380259326E+02  0.00000000000E+00 0.  1.
         14    1    6    6    0    0 -0.75280888699E+02 -0.45722614361E+02 -0.47072652389E+02  0.99867934145E+02  0.00000000000E+00 0. -1.
         -5    1    3    3    0  503  0.51058969596E+02  0.52947330840E+02 -0.33941000746E+03  0.34732071833E+03  0.47000000000E+01 0.  1.
         13    1    4    4    0    0  0.36217484363E+02  0.82200164960E+01 -0.80203100372E+02  0.88384456518E+02  0.00000000000E+00 0. -1.
        -14    1    4    4    0    0  0.14053994442E+02 -0.79928098849E+02 -0.20590610104E+03  0.22132179782E+03  0.00000000000E+00 0.  1.
</event>
<event>
12    1  0.8462562E-002  0.1759327E+03  0.7818608E-02  0.1172187E+00
         21   -1    0    0  503  502  0.00000000000E+00  0.00000000000E+00  0.27656356531E+03  0.27656356531E+03  0.00000000000E+00 0.  1.
         21   -1    0    0  501  503 -0.00000000000E+00 -0.00000000000E+00 -0.15137245305E+03  0.15137245305E+03  0.00000000000E+00 0.  1.
          6    2    1    2  501    0 -0.18886261266E+02  0.33171279464E+02 -0.47794474826E+02  0.18230919085E+03  0.17174197098E+03 0.  0.
         24    2    3    3    0    0 -0.73596945406E+02  0.40708833389E+02 -0.95373959845E+01  0.11496108204E+03  0.77790545523E+02 0.  0.
         -6    2    1    2    0  502  0.18886261266E+02 -0.33171279464E+02  0.17298558708E+03  0.24562682751E+03  0.17015140438E+03 0.  0.
        -24    2    5    5    0    0  0.43205533489E+02 -0.91648449846E+01  0.36512782907E+02  0.10486230010E+03  0.87819167384E+02 0.  0.
          5    1    3    3  501    0  0.54710684139E+02 -0.75375539250E+01 -0.38257078842E+02  0.67348108805E+02  0.47000000000E+01 0. -1.
        -11    1    4    4    0    0 -0.20792866273E+02  0.35649901907E+02 -0.36822165133E+02  0.55309408231E+02  0.00000000000E+00 0.  1.
         12    1    4    4    0    0 -0.52804079132E+02  0.50589314824E+01  0.27284769148E+02  0.59651673809E+02  0.00000000000E+00 0. -1.
         -5    1    5    5    0  502 -0.24319272222E+02 -0.24006434479E+02  0.13647280417E+03  0.14076452741E+03  0.47000000000E+01 0.  1.
         13    1    6    6    0    0  0.19738766610E+02  0.39205618433E+02  0.10475946336E+02  0.45126986113E+02  0.00000000000E+00 0. -1.
        -14    1    6    6    0    0  0.23466766878E+02 -0.48370463418E+02  0.26036836571E+02  0.59735313991E+02  0.00000000000E+00 0.  1.
</event>
<event>
12    1  0.8462562E-002  0.2160314E+03  0.7818608E-02  0.1136971E+00
         21   -1    0    0  501  502  0.00000000000E+00  0.00000000000E+00  0.82974662651E+02  0.82974662651E+02  0.00000000000E+00 0. -1.
         21   -1    0    0  502  503 -0.00000000000E+00 -0.00000000000E+00 -0.56365487918E+03  0.56365487918E+03  0.00000000000E+00 0.  1.
         -6    2    1    2    0  503 -0.12523557988E+03 -0.40380712306E+02 -0.21861193056E+03  0.30699835505E+03  0.17071104658E+03 0.  0.
        -24    2    3    3    0    0 -0.10573440215E+03 -0.93782435790E+02 -0.16128719484E+03  0.22612650995E+03  0.71726774798E+02 0.  0.
          6    2    1    2  501    0  0.12523557988E+03  0.40380712306E+02 -0.26206828597E+03  0.33963118678E+03  0.17133302114E+03 0.  0.
         24    2    5    5    0    0  0.12053260070E+03 -0.28056539397E+02 -0.17474281391E+03  0.22848442118E+03  0.79717014968E+02 0.  0.
          5    1    5    5  501    0  0.47029791845E+01  0.68437251703E+02 -0.87325472058E+02  0.11114676560E+03  0.47000000000E+01 0. -1.
        -13    1    6    6    0    0  0.69894129196E+02 -0.55579629087E+02 -0.99326904271E+02  0.13356690600E+03  0.00000000000E+00 0.  1.
         14    1    6    6    0    0  0.50638471500E+02  0.27523089690E+02 -0.75415909639E+02  0.94917515184E+02  0.00000000000E+00 0. -1.
         -5    1    3    3    0  503 -0.19501177730E+02  0.53401723484E+02 -0.57324735721E+02  0.80871845097E+02  0.47000000000E+01 0.  1.
         13    1    4    4    0    0 -0.44738846373E+02  0.13215713705E+01 -0.36176908095E+02  0.57550669892E+02  0.00000000000E+00 0. -1.
        -14    1    4    4    0    0 -0.60995555778E+02 -0.95104007161E+02 -0.12511028675E+03  0.16857584006E+03  0.00000000000E+00 0.  1.
</event>
<event>
12    1  0.8462562E-002  0.2012916E+03  0.7818608E-02  0.1150582E+00
         21   -1    0    0  501  502  0.00000000000E+00  0.00000000000E+00  0.16852579978E+02  0.16852579978E+02  0.00000000000E+00 0. -1.
         21   -1    0    0  502  503 -0.00000000000E+00 -0.00000000000E+00 -0.24488662257E+04  0.24488662257E+04  0.00000000000E+00 0. -1.
         -6    2    1    2    0  503 -0.70108518934E+02 -0.40754335954E+02 -0.14958137827E+04  0.15081236466E+04  0.17436152259E+03 0.  0.
        -24    2    3    3    0    0 -0.89061000641E+02  0.15766662555E+02 -0.71215544499E+03  0.72218707148E+03  0.78793012995E+02 0.  0.
          6    2    1    2  501    0  0.70108518934E+02  0.40754335954E+02 -0.93619986300E+03  0.95759515907E+03  0.18423404914E+03 0.  0.
         24    2    5    5    0    0  0.47474765281E+02  0.42861925987E+02 -0.23689059234E+03  0.25790074379E+03  0.79401781280E+02 0.  0.
          5    1    5    5  501    0  0.22633753653E+02 -0.21075900332E+01 -0.69930927066E+03  0.69969441528E+03  0.47000000000E+01 0. -1.
        -13    1    6    6    0    0  0.77223780829E+01 -0.23040978824E+02 -0.70548518434E+02  0.74616454496E+02  0.00000000000E+00 0.  1.
         14    1    6    6    0    0  0.39752387198E+02  0.65902904811E+02 -0.16634207391E+03  0.18328428930E+03  0.00000000000E+00 0. -1.
         -5    1    3    3    0  503  0.18952481708E+02 -0.56520998509E+02 -0.78365833768E+03  0.78593657509E+03  0.47000000000E+01 0.  1.
         13    1    4    4    0    0  0.80334958552E+01 -0.49465225763E+01 -0.21548139995E+03  0.21568782735E+03  0.00000000000E+00 0. -1.
        -14    1    4    4    0    0 -0.97094496496E+02  0.20713185131E+02 -0.49667404504E+03  0.50649924413E+03  0.00000000000E+00 0.  1.
</event>
<event>
12    1  0.8462562E-002  0.1895405E+03  0.7818608E-02  0.1163462E+00
         21   -1    0    0  501  502  0.00000000000E+00  0.00000000000E+00  0.14113169439E+03  0.14113169439E+03  0.00000000000E+00 0.  1.
         21   -1    0    0  502  503 -0.00000000000E+00 -0.00000000000E+00 -0.32063941713E+03  0.32063941713E+03  0.00000000000E+00 0. -1.
         -6    2    1    2    0  503  0.81603398553E+02 -0.15962779327E+01 -0.21615530060E+03  0.28748687483E+03  0.17106702332E+03 0.  0.
        -24    2    3    3    0    0  0.51019085286E+02 -0.62997454560E+02 -0.16892517804E+03  0.20407057435E+03  0.80854543450E+02 0.  0.
          6    2    1    2  501    0 -0.81603398553E+02  0.15962779327E+01  0.36647577862E+02  0.17428423669E+03  0.14956699983E+03 0.  0.
         24    2    5    5    0    0 -0.56839335952E+02  0.17124447799E+01  0.78157933407E+02  0.12572013566E+03  0.80394324288E+02 0.  0.
          5    1    5    5  501    0 -0.24764062602E+02 -0.11616684720E+00 -0.41510355545E+02  0.48564101029E+02  0.47000000000E+01 0. -1.
        -11    1    6    6    0    0  0.39210188755E+00 -0.11587146230E+02  0.64319538723E+02  0.65356092013E+02  0.00000000000E+00 0.  1.
         12    1    6    6    0    0 -0.57231437839E+02  0.13299591009E+02  0.13838394684E+02  0.60364043649E+02  0.00000000000E+00 0. -1.
         -5    1    3    3    0  503  0.30584313268E+02  0.61401176628E+02 -0.47230122560E+02  0.83416300483E+02  0.47000000000E+01 0.  1.
         11    1    4    4    0    0 -0.78879730648E+01 -0.57248617845E+01 -0.88717646251E+02  0.89251414095E+02  0.00000000000E+00 0. -1.
        -12    1    4    4    0    0  0.58907058350E+02 -0.57272592776E+02 -0.80207531786E+02  0.11481916026E+03  0.00000000000E+00 0.  1.
</event>
<event>
12    1  0.8462562E-002  0.1985820E+03  0.7818608E-02  0.1151015E+00
         21   -1    0    0  503  502  0.00000000000E+00  0.00000000000E+00  0.80465765453E+02  0.80465765453E+02  0.00000000000E+00 0.  1.
         21   -1    0    0  501  503 -0.00000000000E+00 -0.00000000000E+00 -0.51827017812E+03  0.51827017812E+03  0.00000000000E+00 0.  1.
          6    2    1    2  501    0 -0.96017445581E+02 -0.24823323701E+02 -0.28959103561E+03  0.35094165700E+03  0.17164361759E+03 0.  0.
         24    2    3    3    0    0 -0.93395752497E+02 -0.46872232231E+02 -0.11564762564E+03  0.17552379157E+03  0.80712175988E+02 0.  0.
         -6    2    1    2    0  502  0.96017445581E+02  0.24823323701E+02 -0.14821337706E+03  0.24779428657E+03  0.17204434330E+03 0.  0.
        -24    2    5    5    0    0  0.85212042014E+02  0.11687329174E+02 -0.21034944165E+02  0.11939742176E+03  0.80097376238E+02 0.  0.
          5    1    3    3  501    0 -0.26216930844E+01  0.22048908530E+02 -0.17394340996E+03  0.17541786543E+03  0.47000000000E+01 0. -1.
        -13    1    4    4    0    0 -0.22070104691E+02 -0.55934133829E+02 -0.53685808890E+02  0.80609446869E+02  0.00000000000E+00 0.  1.
         14    1    4    4    0    0 -0.71325647805E+02  0.90619015983E+01 -0.61961816753E+02  0.94914344705E+02  0.00000000000E+00 0. -1.
         -5    1    5    5    0  502  0.10805403567E+02  0.13135994526E+02 -0.12717843289E+03  0.12839686480E+03  0.47000000000E+01 0.  1.
         11    1    6    6    0    0 -0.52951363409E+01  0.16026698329E+02 -0.23284117906E+02  0.28758367041E+02  0.00000000000E+00 0. -1.
        -12    1    6    6    0    0  0.90507178355E+02 -0.43393691547E+01  0.22491737413E+01  0.90639054723E+02  0.00000000000E+00 0.  1.
</event>
<event>
12    1  0.8462562E-002  0.2636149E+03  0.7818608E-02  0.1105166E+00
         21   -1    0    0  501  502  0.00000000000E+00  0.00000000000E+00  0.86847536647E+03  0.86847536647E+03  0.00000000000E+00 0.  1.
         21   -1    0    0  502  503 -0.00000000000E+00 -0.00000000000E+00 -0.10298032810E+03  0.10298032810E+03  0.00000000000E+00 0. -1.
         -6    2    1    2    0  503 -0.16635006501E+03 -0.10755829519E+03  0.15226117579E+03  0.30442775201E+03  0.17393004211E+03 0.  0.
        -24    2    3    3    0    0 -0.15696669055E+03 -0.40841135205E+02  0.60991787994E+02  0.19088737020E+03  0.80071528224E+02 0.  0.
          6    2    1    2  501    0  0.16635006501E+03  0.10755829519E+03  0.61323386258E+03  0.66702794256E+03  0.17213185339E+03 0.  0.
         24    2    5    5    0    0  0.18349809088E+03  0.12633314576E+03  0.55473325971E+03  0.60306732701E+03  0.79558773297E+02 0.  0.
          5    1    5    5  501    0 -0.17148025865E+02 -0.18774850575E+02  0.58500602872E+02  0.63960615551E+02  0.47000000000E+01 0. -1.
        -11    1    6    6    0    0  0.80076151507E+02  0.66988433808E+02  0.35901788923E+03  0.37388966967E+03  0.00000000000E+00 0.  1.
         12    1    6    6    0    0  0.10342193937E+03  0.59344711955E+02  0.19571537048E+03  0.22917765734E+03  0.00000000000E+00 0. -1.
         -5    1    3    3    0  503 -0.93833744609E+01 -0.66717159982E+02  0.91269387796E+02  0.11354038181E+03  0.47000000000E+01 0.  1.
         11    1    4    4    0    0 -0.41089396995E+02 -0.43678689904E+02  0.12936831668E+00  0.59968185176E+02  0.00000000000E+00 0. -1.
        -12    1    4    4    0    0 -0.11587729356E+03  0.28375546991E+01  0.60862419677E+02  0.13091918502E+03  0.00000000000E+00 0.  1.
</event>
<event>
12    1  0.8462562E-002  0.1942095E+03  0.7818608E-02  0.1154742E+00
         21   -1    0    0  501  502  0.00000000000E+00  0.00000000000E+00  0.21782599376E+03  0.21782599376E+03  0.00000000000E+00 0. -1.
         21   -1    0    0  502  503 -0.00000000000E+00 -0.00000000000E+00 -0.19556299122E+03  0.19556299122E+03  0.00000000000E+00 0. -1.
         -6    2    1    2    0  503 -0.81796945521E+02 -0.38963675951E+02 -0.58988995225E+02  0.20286771927E+03  0.17165867769E+03 0.  0.
        -24    2    3    3    0    0 -0.87135912575E+02 -0.42326276247E+02  0.21379013882E+02  0.12211551473E+03  0.71210643747E+02 0.  0.
          6    2    1    2  501    0  0.81796945521E+02  0.38963675951E+02  0.81251997769E+02  0.21052126571E+03  0.17178011478E+03 0.  0.
         24    2    5    5    0    0  0.11101431755E+02 -0.39103622761E+02  0.33674273827E+02  0.94857578192E+02  0.78814137834E+02 0.  0.
          5    1    5    5  501    0  0.70695513766E+02  0.78067298712E+02  0.47577723942E+02  0.11566368752E+03  0.47000000000E+01 0. -1.
        -11    1    6    6    0    0 -0.14737278757E+02 -0.63718029789E+01 -0.20786105173E+02  0.26264984802E+02  0.00000000000E+00 0.  1.
         12    1    6    6    0    0  0.25838710513E+02 -0.32731819782E+02  0.54460378999E+02  0.68592593390E+02  0.00000000000E+00 0. -1.
         -5    1    3    3    0  503  0.53389670537E+01  0.33626002957E+01 -0.80368009107E+02  0.80752204538E+02  0.47000000000E+01 0.  1.
         13    1    4    4    0    0 -0.98762405508E+02 -0.39963535124E+02  0.12449414942E+02  0.10726641979E+03  0.00000000000E+00 0. -1.
        -14    1    4    4    0    0  0.11626492933E+02 -0.23627411225E+01  0.89295989400E+01  0.14849094947E+02  0.00000000000E+00 0.  1.
</event>
<event>
12    1  0.8462562E-002  0.1890321E+03  0.7818608E-02  0.1159912E+00
         21   -1    0    0  501  502  0.00000000000E+00  0.00000000000E+00  0.46437721010E+03  0.46437721010E+03  0.00000000000E+00 0. -1.
         21   -1    0    0  502  503 -0.00000000000E+00 -0.00000000000E+00 -0.80958512889E+02  0.80958512889E+02  0.00000000000E+00 0.  1.
         -6    2    1    2    0  503  0.69987441140E+02 -0.10423848508E+02  0.12253530000E+03  0.22316607533E+03  0.17257259023E+03 0.  0.
        -24    2    3    3    0    0  0.73278395012E+02  0.47457702416E+02  0.47666317256E+02  0.12835806464E+03  0.81128036236E+02 0.  0.
          6    2    1    2  501    0 -0.69987441140E+02  0.10423848508E+02  0.26088339721E+03  0.32216964766E+03  0.17528900819E+03 0.  0.
         24    2    5    5    0    0  0.13436621317E+02 -0.29528156962E+02  0.72489276136E+02  0.11224067921E+03  0.79314690113E+02 0.  0.
          5    1    5    5  501    0 -0.83424062457E+02  0.39952005471E+02  0.18839412108E+03  0.20992896845E+03  0.47000000000E+01 0. -1.
        -11    1    6    6    0    0  0.76419682015E+01 -0.34482235916E+02 -0.38441632559E+01  0.35527480390E+02  0.00000000000E+00 0.  1.
         12    1    6    6    0    0  0.57946531152E+01  0.49540789536E+01  0.76333439392E+02  0.76713198815E+02  0.00000000000E+00 0. -1.
         -5    1    3    3    0  503 -0.32909538716E+01 -0.57881550924E+02  0.74868982742E+02  0.94808010693E+02  0.47000000000E+01 0.  1.
         11    1    4    4    0    0  0.37247365819E+02  0.13280539698E+02  0.64724143119E+02  0.75848228045E+02  0.00000000000E+00 0. -1.
        -12    1    4    4    0    0  0.36031029193E+02  0.34177162718E+02 -0.17057825863E+02  0.52509836595E+02  0.00000000000E+00 0.  1.
</event>
<event>
12    1  0.8462562E-002  0.2242195E+03  0.7818608E-02  0.1130861E+00
         21   -1    0    0  501  502  0.00000000000E+00  0.00000000000E+00  0.30144607209E+03  0.30144607209E+03  0.00000000000E+00 0. -1.
         21   -1    0    0  502  503 -0.00000000000E+00 -0.00000000000E+00 -0.29483418728E+03  0.29483418728E+03  0.00000000000E+00 0. -1.
         -6    2    1    2    0  503 -0.13881779246E+03 -0.35798536503E+02 -0.19344554286E+03  0.29613438351E+03  0.17240208911E+03 0.  0.
        -24    2    3    3    0    0 -0.16347353745E+03 -0.29292982834E+02 -0.19874435915E+03  0.26966939828E+03  0.75103846668E+02 0.  0.
          6    2    1    2  501    0  0.13881779246E+03  0.35798536503E+02  0.20005742767E+03  0.30014587586E+03  0.17179248445E+03 0.  0.
         24    2    5    5    0    0  0.12770078631E+03 -0.32342319129E+02  0.12513442402E+03  0.19815415802E+03  0.79075469237E+02 0.  0.
          5    1    5    5  501    0  0.11117006145E+02  0.68140855632E+02  0.74923003651E+02  0.10199171784E+03  0.47000000000E+01 0. -1.
        -11    1    6    6    0    0  0.23242740555E+02 -0.11084989284E+02 -0.85854934884E+01  0.27144293587E+02  0.00000000000E+00 0.  1.
         12    1    6    6    0    0  0.10445804576E+03 -0.21257329845E+02  0.13371991750E+03  0.17100986443E+03  0.00000000000E+00 0. -1.
         -5    1    3    3    0  503  0.24655744989E+02 -0.65055536686E+01  0.52988162907E+01  0.26464985237E+02  0.47000000000E+01 0.  1.
         13    1    4    4    0    0 -0.15297531302E+03 -0.38193390159E+01 -0.15383636537E+03  0.21698308932E+03  0.00000000000E+00 0. -1.
        -14    1    4    4    0    0 -0.10498224432E+02 -0.25473643818E+02 -0.44907993785E+02  0.52686308956E+02  0.00000000000E+00 0.  1.
</event>
<event>
12    1  0.8462562E-002  0.3008740E+03  0.7818608E-02  0.1085939E+00
         21   -1    0    0  501  502  0.00000000000E+00  0.00000000000E+00  0.92628101607E+03  0.92628101607E+03  0.00000000000E+00 0.  1.
         21   -1    0    0  502  503 -0.00000000000E+00 -0.00000000000E+00 -0.10740200949E+03  0.10740200949E+03  0.00000000000E+00 0. -1.
         -6    2    1    2    0  503  0.73569896857E+02 -0.22439061065E+03  0.23816350556E+03  0.38372782204E+03  0.18644438891E+03 0.  0.
        -24    2    3    3    0    0  0.12938278829E+01 -0.21089883173E+03  0.15533644111E+03  0.27287534867E+03  0.76495455841E+02 0.  0.
          6    2    1    2  501    0 -0.73569896857E+02  0.22439061065E+03  0.58071550102E+03  0.64995520352E+03  0.17160302328E+03 0.  0.
         24    2    5    5    0    0 -0.11560826228E+03  0.18431677238E+03  0.43239976879E+03  0.49060407204E+03  0.79905272429E+02 0.  0.
          5    1    5    5  501    0  0.42038365421E+02  0.40073838265E+02  0.14831573222E+03  0.15935113149E+03  0.47000000000E+01 0. -1.
        -13    1    6    6    0    0 -0.10187687145E+03  0.19083149078E+03  0.40937177663E+03  0.46301274962E+03  0.00000000000E+00 0.  1.
         14    1    6    6    0    0 -0.13731390832E+02 -0.65147183948E+01  0.23027992163E+02  0.27591322422E+02  0.00000000000E+00 0. -1.
         -5    1    3    3    0  503  0.72276068974E+02 -0.13491778921E+02  0.82827064457E+02  0.11085247337E+03  0.47000000000E+01 0.  1.
         11    1    4    4    0    0 -0.37430197066E+01  0.52183920193E+01  0.11650561171E+02  0.13303284835E+02  0.00000000000E+00 0. -1.
        -12    1    4    4    0    0  0.50368475895E+01 -0.21611722374E+03  0.14368587993E+03  0.25957206384E+03  0.00000000000E+00 0.  1.
</event>
<event>
12    1  0.8462562E-002  0.2361407E+03  0.7818608E-02  0.1122513E+00
         21   -1    0    0  503  502  0.00000000000E+00  0.00000000000E+00  0.28621673155E+02  0.28621673155E+02  0.00000000000E+00 0. -1.
         21   -1    0    0  501  503 -0.00000000000E+00 -0.00000000000E+00 -0.20923147448E+04  0.20923147448E+04  0.00000000000E+00 0. -1.
          6    2    1    2  501    0  0.15659306156E+03 -0.34143460885E+02 -0.13172336190E+04  0.13382327351E+04  0.17342226927E+03 0.  0.
         24    2    3    3    0    0  0.12859696227E+03  0.38618409067E+02 -0.79183657395E+03  0.80706212577E+03  0.79470464831E+02 0.  0.
         -6    2    1    2    0  502 -0.15659306156E+03  0.34143460885E+02 -0.74645945258E+03  0.78270368276E+03  0.17244180996E+03 0.  0.
        -24    2    5    5    0    0 -0.39082375075E+02 -0.39826372588E+02 -0.31814367183E+03  0.33241844457E+03  0.78568787494E+02 0.  0.
          5    1    3    3  501    0  0.27996099289E+02 -0.72761869952E+02 -0.52539704507E+03  0.53117060937E+03  0.47000000000E+01 0. -1.
        -11    1    4    4    0    0  0.10501554516E+03  0.41060088129E+01 -0.42281076525E+03  0.43567656266E+03  0.00000000000E+00 0.  1.
         12    1    4    4    0    0  0.23581417111E+02  0.34512400254E+02 -0.36902580870E+03  0.37138556311E+03  0.00000000000E+00 0. -1.
         -5    1    5    5    0  502 -0.11751068648E+03  0.73969833474E+02 -0.42831578074E+03  0.45028523819E+03  0.47000000000E+01 0.  1.
         13    1    6    6    0    0 -0.59598765055E+02 -0.14134731621E+02 -0.17079548570E+03  0.18144669016E+03  0.00000000000E+00 0. -1.
        -14    1    6    6    0    0  0.20516389980E+02 -0.25691640967E+02 -0.14734818614E+03  0.15097175442E+03  0.00000000000E+00 0.  1.
</event>
<event>
12    1  0.8462562E-002  0.2904826E+03  0.7818608E-02  0.1090179E+00
         21   -1    0    0  503  502  0.00000000000E+00  0.00000000000E+00  0.30099560267E+03  0.30099560267E+03  0.00000000000E+00 0.  1.
         21   -1    0    0  501  503 -0.00000000000E+00 -0.00000000000E+00 -0.27993801084E+03  0.27993801084E+03  0.00000000000E+00 0. -1.
          6    2    1    2  501    0 -0.13776847055E+03 -0.19100029498E+03  0.27259431409E+01  0.28987311458E+03  0.16899031815E+03 0.  0.
         24    2    3    3    0    0 -0.14626130419E+03 -0.12404320780E+03 -0.21679378427E+02  0.21794892207E+03  0.10125537357E+03 0.  0.
         -6    2    1    2    0  502  0.13776847055E+03  0.19100029498E+03  0.18331648696E+02  0.29106049893E+03  0.17005558072E+03 0.  0.
        -24    2    5    5    0    0  0.35765153126E+02  0.16275374507E+03  0.27805342948E+02  0.18469139990E+03  0.74631416883E+02 0.  0.
          5    1    3    3  501    0  0.84928336437E+01 -0.66957087182E+02  0.24405321568E+02  0.71924192509E+02  0.47000000000E+01 0. -1.
        -13    1    4    4    0    0 -0.11908331524E+03 -0.61127011762E+02  0.23443386718E+02  0.13589311946E+03  0.00000000000E+00 0.  1.
         14    1    4    4    0    0 -0.27177988951E+02 -0.62916196035E+02 -0.45122765145E+02  0.82055802606E+02  0.00000000000E+00 0. -1.
         -5    1    5    5    0  502  0.10200331742E+03  0.28246549907E+02 -0.94736942517E+01  0.10636909904E+03  0.47000000000E+01 0.  1.
         13    1    6    6    0    0 -0.20704243869E+02  0.26553031627E+02 -0.38447419826E+01  0.33889692293E+02  0.00000000000E+00 0. -1.
        -14    1    6    6    0    0  0.56469396995E+02  0.13620071344E+03  0.31650084930E+02  0.15080170760E+03  0.00000000000E+00 0.  1.
</event>
<event>
12    1  0.8462562E-002  0.2242323E+03  0.7818608E-02  0.1130900E+00
         21   -1    0    0  501  502  0.00000000000E+00  0.00000000000E+00  0.50109901571E+03  0.50109901571E+03  0.00000000000E+00 0.  1.
         21   -1    0    0  502  503 -0.00000000000E+00 -0.00000000000E+00 -0.10856936839E+03  0.10856936839E+03  0.00000000000E+00 0.  1.
         -6    2    1    2    0  503 -0.50581945436E+02  0.13453923671E+03  0.11098391370E+03  0.25019502001E+03  0.17210688400E+03 0.  0.
        -24    2    3    3    0    0 -0.91027264911E+02  0.49201818751E+02  0.57639827741E+02  0.14163176528E+03  0.77655812850E+02 0.  0.
          6    2    1    2  501    0  0.50581945436E+02 -0.13453923671E+03  0.28154573362E+03  0.35947336408E+03  0.17115419933E+03 0.  0.
         24    2    5    5    0    0 -0.37087751922E+01 -0.14007141821E+02  0.16327674520E+03  0.18203291812E+03  0.79162697770E+02 0.  0.
          5    1    5    5  501    0  0.54290720628E+02 -0.12053209489E+03  0.11826898841E+03  0.17744044596E+03  0.47000000000E+01 0. -1.
        -13    1    6    6    0    0 -0.23280923320E+02 -0.35742643500E+02  0.13409540467E+03  0.14071643653E+03  0.00000000000E+00 0.  1.
         14    1    6    6    0    0  0.19572148128E+02  0.21735501680E+02  0.29181340531E+02  0.41316481588E+02  0.00000000000E+00 0. -1.
         -5    1    3    3    0  503  0.40445319475E+02  0.85337417955E+02  0.53344085963E+02  0.10856325473E+03  0.47000000000E+01 0.  1.
         13    1    4    4    0    0 -0.32417571462E+02  0.58445025899E+02  0.46087298251E+02  0.81183490020E+02  0.00000000000E+00 0. -1.
        -14    1    4    4    0    0 -0.58609693449E+02 -0.92432071472E+01  0.11552529489E+02  0.60448275262E+02  0.00000000000E+00 0.  1.
</event>
<event>
12    1  0.8462562E-002  0.2303309E+03  0.7818608E-02  0.1126441E+00
         21   -1    0    0  501  502  0.00000000000E+00  0.00000000000E+00  0.36939453265E+02  0.36939453265E+02  0.00000000000E+00 0.  1.
         21   -1    0    0  502  503 -0.00000000000E+00 -0.00000000000E+00 -0.15029507817E+04  0.15029507817E+04  0.00000000000E+00 0.  1.
         -6    2    1    2    0  503 -0.80263722458E+02 -0.12950471077E+03 -0.89699807813E+03  0.92609819907E+03  0.17273849280E+03 0.  0.
        -24    2    3    3    0    0 -0.25908806027E+02 -0.13762170656E+03 -0.78136672376E+03  0.79798480135E+03  0.81454194755E+02 0.  0.
          6    2    1    2  501    0  0.80263722458E+02  0.12950471077E+03 -0.56901325035E+03  0.61379203594E+03  0.17248434438E+03 0.  0.
         24    2    5    5    0    0  0.13441739506E+02  0.12796721209E+02 -0.32417119620E+03  0.33440761671E+03  0.79981580555E+02 0.  0.
          5    1    5    5  501    0  0.66821982952E+02  0.11670798956E+03 -0.24484205415E+03  0.27938441924E+03  0.47000000000E+01 0. -1.
        -11    1    6    6    0    0  0.42407264711E+02  0.25316308146E+01 -0.10786678188E+03  0.11593113425E+03  0.00000000000E+00 0.  1.
         12    1    6    6    0    0 -0.28965525205E+02  0.10265090394E+02 -0.21630441432E+03  0.21847648246E+03  0.00000000000E+00 0. -1.
         -5    1    3    3    0  503 -0.54354916432E+02  0.81169957898E+01 -0.11563135437E+03  0.12811339772E+03  0.47000000000E+01 0. -1.
         11    1    4    4    0    0  0.24744594197E+02 -0.23535500775E+02 -0.23975354620E+03  0.24217344539E+03  0.00000000000E+00 0. -1.
        -12    1    4    4    0    0 -0.50653400224E+02 -0.11408620579E+03 -0.54161317756E+03  0.55581135596E+03  0.00000000000E+00 0.  1.
</event>
<event>
12    1  0.8462562E-002  0.2464039E+03  0.7818608E-02  0.1115615E+00
         21   -1    0    0  501  502  0.00000000000E+00  0.00000000000E+00  0.25796665357E+03  0.25796665357E+03  0.00000000000E+00 0. -1.
         21   -1    0    0  502  503 -0.00000000000E+00 -0.00000000000E+00 -0.10009142606E+04  0.10009142606E+04  0.00000000000E+00 0.  1.
         -6    2    1    2    0  503 -0.71338144310E+01  0.17546676181E+03 -0.92200845498E+03  0.95436601101E+03  0.17284506388E+03 0.  0.
        -24    2    3    3    0    0 -0.15370871219E+02  0.34207146281E+02 -0.53656060286E+03  0.54373933776E+03  0.79679321919E+02 0.  0.
          6    2    1    2  501    0  0.71338144310E+01 -0.17546676181E+03  0.17906084794E+03  0.30451490317E+03  0.17270513362E+03 0.  0.
         24    2    5    5    0    0 -0.37673276232E+02 -0.10215269448E+03  0.40270499803E+02  0.14121310104E+03  0.80405087032E+02 0.  0.
          5    1    5    5  501    0  0.44807090663E+02 -0.73314067332E+02  0.13879034814E+03  0.16330180213E+03  0.47000000000E+01 0. -1.
        -11    1    6    6    0    0  0.16211639554E+02 -0.71580187987E+02  0.22265504231E+02  0.76696109731E+02  0.00000000000E+00 0.  1.
         12    1    6    6    0    0 -0.53884915786E+02 -0.30572506493E+02  0.18004995573E+02  0.64516991313E+02  0.00000000000E+00 0. -1.
         -5    1    3    3    0  503  0.82370567884E+01  0.14125961553E+03 -0.38544785211E+03  0.41062667325E+03  0.47000000000E+01 0.  1.
         11    1    4    4    0    0 -0.85195740094E+01 -0.25565248223E+02 -0.13125411711E+03  0.13399182183E+03  0.00000000000E+00 0. -1.
        -12    1    4    4    0    0 -0.68512972100E+01  0.59772394505E+02 -0.40530648575E+03  0.40974751593E+03  0.00000000000E+00 0.  1.
</event>
<event>
12    1  0.8462562E-002  0.2105689E+03  0.7818608E-02  0.1141262E+00
         21   -1    0    0  501  502  0.00000000000E+00  0.00000000000E+00  0.88563713642E+03  0.88563713642E+03  0.00000000000E+00 0. -1.
         21   -1    0    0  502  503 -0.00000000000E+00 -0.00000000000E+00 -0.74485776445E+02  0.74485776445E+02  0.00000000000E+00 0. -1.
         -6    2    1    2    0  503 -0.10236908065E+03 -0.67826971969E+02  0.12923431191E+03  0.24643521799E+03  0.17014371129E+03 0.  0.
        -24    2    3    3    0    0 -0.83325853498E+02 -0.10296133746E+03  0.13277497634E+03  0.20604098024E+03  0.85319729961E+02 0.  0.
          6    2    1    2  501    0  0.10236908065E+03  0.67826971969E+02  0.68191704806E+03  0.71368769488E+03  0.17105361318E+03 0.  0.
         24    2    5    5    0    0  0.96437262277E+02 -0.19961616352E+02  0.35731761727E+03  0.37734129133E+03  0.70795189434E+02 0.  0.
          5    1    5    5  501    0  0.59318183679E+01  0.87788588321E+02  0.32459943079E+03  0.33634640355E+03  0.47000000000E+01 0. -1.
        -13    1    6    6    0    0 -0.15498667934E+01 -0.11093999484E+02  0.64195636538E+01  0.12910836887E+02  0.00000000000E+00 0.  1.
         14    1    6    6    0    0  0.97987129071E+02 -0.88676168679E+01  0.35089805362E+03  0.36443045444E+03  0.00000000000E+00 0. -1.
         -5    1    3    3    0  503 -0.19043227148E+02  0.35134365495E+02 -0.35406644310E+01  0.40394237752E+02  0.47000000000E+01 0.  1.
         13    1    4    4    0    0 -0.65869035206E+01 -0.39397363387E+02  0.88311914890E+02  0.96925403540E+02  0.00000000000E+00 0. -1.
        -14    1    4    4    0    0 -0.76738949977E+02 -0.63563974077E+02  0.44463061451E+02  0.10911557670E+03  0.00000000000E+00 0.  1.
</event>
<event>
12    1  0.8462562E-002  0.2114919E+03  0.7818608E-02  0.1140407E+00
         21   -1    0    0  501  502  0.00000000000E+00  0.00000000000E+00  0.77215710434E+03  0.77215710434E+03  0.00000000000E+00 0.  1.
         21   -1    0    0  502  503 -0.00000000000E+00 -0.00000000000E+00 -0.88001509723E+02  0.88001509723E+02  0.00000000000E+00 0. -1.
         -6    2    1    2    0  503  0.80707210582E+01 -0.12363902961E+03  0.90602603825E+02  0.23008183177E+03  0.17139740754E+03 0.  0.
        -24    2    3    3    0    0  0.56143920646E+02 -0.12198597977E+03  0.44330030705E+02  0.16317139824E+03  0.81406599821E+02 0.  0.
          6    2    1    2  501    0 -0.80707210582E+01  0.12363902961E+03  0.59355299079E+03  0.63007678229E+03  0.17128879859E+03 0.  0.
         24    2    5    5    0    0  0.19979243488E+02  0.15072295321E+03  0.49823512388E+03  0.52698495341E+03  0.79739097433E+02 0.  0.
          5    1    5    5  501    0 -0.28049964546E+02 -0.27083923605E+02  0.95317866913E+02  0.10309182888E+03  0.47000000000E+01 0. -1.
        -11    1    6    6    0    0 -0.27775132113E+02  0.30388083457E+02  0.14672772795E+03  0.15239396225E+03  0.00000000000E+00 0.  1.
         12    1    6    6    0    0  0.47754375601E+02  0.12033486976E+03  0.35150739593E+03  0.37459099117E+03  0.00000000000E+00 0. -1.
         -5    1    3    3    0  503 -0.48073199588E+02 -0.16530498347E+01  0.46272573119E+02  0.66910433532E+02  0.47000000000E+01 0.  1.
         13    1    4    4    0    0  0.62808794702E+01 -0.88606173779E+02  0.51600065993E+02  0.10272813777E+03  0.00000000000E+00 0. -1.
        -14    1    4    4    0    0  0.49863041176E+02 -0.33379805996E+02 -0.72700352875E+01  0.60443260474E+02  0.00000000000E+00 0.  1.
</event>
<event>
12    1  0.8462562E-002  0.1851867E+03  0.7818608E-02  0.1165163E+00
         21   -1    0    0  501  502  0.00000000000E+00  0.00000000000E+00  0.98177653415E+02  0.98177653415E+02  0.00000000000E+00 0.  1.
         21   -1    0    0  502  503 -0.00000000000E+00 -0.00000000000E+00 -0.44598580345E+03  0.44598580345E+03  0.00000000000E+00 0.  1.
         -6    2    1    2    0  503  0.41922443563E+02 -0.55864463928E+02 -0.30827440421E+03  0.35480390359E+03  0.16116566665E+03 0.  0.
        -24    2    3    3    0    0  0.77979947736E+02 -0.56537893262E+02 -0.15917833644E+03  0.20133623749E+03  0.76948892846E+02 0.  0.
          6    2    1    2  501    0 -0.41922443563E+02  0.55864463928E+02 -0.39533745832E+02  0.18935955328E+03  0.17151033134E+03 0.  0.
         24    2    5    5    0    0 -0.33083802851E+02  0.75014043006E+02 -0.79307679821E+02  0.14409495593E+03  0.88045463182E+02 0.  0.
          5    1    5    5  501    0 -0.88386407121E+01 -0.19149579078E+02  0.39773933989E+02  0.45264597352E+02  0.47000000000E+01 0. -1.
        -11    1    6    6    0    0 -0.31369094626E+02  0.90745293167E+02 -0.44431073808E+02  0.10579626009E+03  0.00000000000E+00 0.  1.
         12    1    6    6    0    0 -0.17147082245E+01 -0.15731250162E+02 -0.34876606013E+02  0.38298695838E+02  0.00000000000E+00 0. -1.
         -5    1    3    3    0  503 -0.36057504173E+02  0.67342933434E+00 -0.14909606777E+03  0.15346766610E+03  0.47000000000E+01 0.  1.
         13    1    4    4    0    0  0.50599627521E+01  0.14320723197E+02 -0.38169419915E+01  0.15660631600E+02  0.00000000000E+00 0. -1.
        -14    1    4    4    0    0  0.72919984984E+02 -0.70858616459E+02 -0.15536139445E+03  0.18567560589E+03  0.00000000000E+00 0.  1.
</event>
<event>
12    1  0.8462562E-002  0.1730981E+03  0.7818608E-02  0.1174775E+00
         21   -1    0    0  503  502  0.00000000000E+00  0.00000000000E+00  0.57702864664E+02  0.57702864664E+02  0.00000000000E+00 0.  1.
         21   -1    0    0  501  503 -0.00000000000E+00 -0.00000000000E+00 -0.53180711051E+03  0.53180711051E+03  0.00000000000E+00 0.  1.
          6    2    1    2  501    0 -0.24409510203E+01 -0.70959827450E+01 -0.28449362616E+03  0.33277051481E+03  0.17246240458E+03 0.  0.
         24    2    3    3    0    0  0.39661894929E+02  0.35197062910E+02 -0.23892201328E+03  0.25753612608E+03  0.80182471023E+02 0.  0.
         -6    2    1    2    0  502  0.24409510203E+01  0.70959827450E+01 -0.18961061969E+03  0.25673946036E+03  0.17293539891E+03 0.  0.
        -24    2    5    5    0    0 -0.53063100862E+02 -0.26417742265E+02 -0.15204984573E+03  0.18166102617E+03  0.79799643269E+02 0.  0.
          5    1    3    3  501    0 -0.42102845950E+02 -0.42293045655E+02 -0.45571612874E+02  0.75234388731E+02  0.47000000000E+01 0. -1.
        -13    1    4    4    0    0  0.37547517724E+02 -0.17861636711E+02 -0.12748348515E+03  0.13409285268E+03  0.00000000000E+00 0.  1.
         14    1    4    4    0    0  0.21143772057E+01  0.53058699620E+02 -0.11143852813E+03  0.12344327340E+03  0.00000000000E+00 0. -1.
         -5    1    5    5    0  502  0.55504051882E+02  0.33513725010E+02 -0.37560773968E+02  0.75078434191E+02  0.47000000000E+01 0.  1.
         11    1    6    6    0    0  0.54634762813E+01 -0.34250714208E+02 -0.87779906409E+02  0.94383647768E+02  0.00000000000E+00 0. -1.
        -12    1    6    6    0    0 -0.58526577143E+02  0.78329719430E+01 -0.64269939317E+02  0.87277378405E+02  0.00000000000E+00 0.  1.
</event>
<event>
12    1  0.8462562E-002  0.1848778E+03  0.7818608E-02  0.1163369E+00
         21   -1    0    0  503  502  0.00000000000E+00  0.00000000000E+00  0.92490801956E+02  0.92490801956E+02  0.00000000000E+00 0. -1.
         21   -1    0    0  501  503 -0.00000000000E+00 -0.00000000000E+00 -0.54417417299E+03  0.54417417299E+03  0.00000000000E+00 0. -1.
          6    2    1    2  501    0  0.37118300373E+02  0.55296132632E+02 -0.40743543536E+03  0.44741863626E+03  0.17246556637E+03 0.  0.
         24    2    3    3    0    0  0.55457166384E+02 -0.24541710840E+02 -0.26091796462E+03  0.27949051328E+03  0.79743149411E+02 0.  0.
         -6    2    1    2    0  502 -0.37118300373E+02 -0.55296132632E+02 -0.44247935679E+02  0.18924633869E+03  0.17152511882E+03 0.  0.
        -24    2    5    5    0    0  0.26609619207E+02 -0.57992555554E+02 -0.65807141851E+02  0.12175257748E+03  0.80136769784E+02 0.  0.
          5    1    3    3  501    0 -0.18338866012E+02  0.79837843473E+02 -0.14651747074E+03  0.16792812298E+03  0.47000000000E+01 0. -1.
        -13    1    4    4    0    0  0.49057257854E+02 -0.40976714794E+02 -0.10754273592E+03  0.12510453930E+03  0.00000000000E+00 0.  1.
         14    1    4    4    0    0  0.63999085302E+01  0.16435003954E+02 -0.15337522870E+03  0.15438597398E+03  0.00000000000E+00 0. -1.
         -5    1    5    5    0  502 -0.63727919579E+02  0.26964229216E+01  0.21559206172E+02  0.67493761202E+02  0.47000000000E+01 0.  1.
         11    1    6    6    0    0 -0.25658818537E+02 -0.81057896611E+01 -0.32491627740E+02  0.42187494213E+02  0.00000000000E+00 0. -1.
        -12    1    6    6    0    0  0.52268437744E+02 -0.49886765893E+02 -0.33315514111E+02  0.79565083271E+02  0.00000000000E+00 0.  1.
</event>
<event>
12    1  0.8462562E-002  0.1909273E+03  0.7818608E-02  0.1161224E+00
         21   -1    0    0  501  502  0.00000000000E+00  0.00000000000E+00  0.23561337696E+03  0.23561337696E+03  0.00000000000E+00 0. -1.
         21   -1    0    0  502  503 -0.00000000000E+00 -0.00000000000E+00 -0.14253516405E+03  0.14253516405E+03  0.00000000000E+00 0. -1.
         -6    2    1    2    0  503  0.34777077925E+02 -0.22716197521E+02  0.45929358107E+02  0.18148576402E+03  0.17059339327E+03 0.  0.
        -24    2    3    3    0    0  0.51205282185E+02  0.20722639464E+02 -0.21159715008E+02  0.99755401329E+02  0.80324329098E+02 0.  0.
          6    2    1    2  501    0 -0.34777077925E+02  0.22716197521E+02  0.47148854801E+02  0.19666277700E+03  0.18635386384E+03 0.  0.
         24    2    5    5    0    0 -0.28096940809E+02  0.33255745570E+02  0.10441894195E+03  0.13786091319E+03  0.78784092616E+02 0.  0.
          5    1    5    5  501    0 -0.66801371159E+01 -0.10539548049E+02 -0.57270087154E+02  0.58801863810E+02  0.47000000000E+01 0. -1.
        -13    1    6    6    0    0  0.16209540701E+02 -0.10804074670E+02  0.44681908928E+01  0.19986044358E+02  0.00000000000E+00 0.  1.
         14    1    6    6    0    0 -0.44306481511E+02  0.44059820240E+02  0.99950751062E+02  0.11787486883E+03  0.00000000000E+00 0. -1.
         -5    1    3    3    0  503 -0.16428204260E+02 -0.43438836985E+02  0.67089073115E+02  0.81730362689E+02  0.47000000000E+01 0.  1.
         11    1    4    4    0    0  0.48949645474E+02 -0.81321250888E+01  0.16469954949E+02  0.52282489100E+02  0.00000000000E+00 0. -1.
        -12    1    4    4    0    0  0.22556367113E+01  0.28854764553E+02 -0.37629669958E+02  0.47472912229E+02  0.00000000000E+00 0.  1.
</event>
<event>
12    1  0.8462562E-002  0.1749362E+03  0.7818608E-02  0.1177608E+00
         21   -1    0    0  501  502  0.00000000000E+00  0.00000000000E+00  0.18029246088E+02  0.18029246088E+02  0.00000000000E+00 0.  1.
         21   -1    0    0  502  503 -0.00000000000E+00 -0.00000000000E+00 -0.28670041892E+04  0.28670041892E+04  0.00000000000E+00 0.  1.
         -6    2    1    2    0  503 -0.84752364226E+01  0.33261777363E+02 -0.23687515598E+04  0.23739393403E+04  0.15305510032E+03 0.  0.
        -24    2    3    3    0    0  0.40953817453E+02 -0.10657254557E+02 -0.11991676260E+04  0.12024783802E+04  0.78488644932E+02 0.  0.
          6    2    1    2  501    0  0.84752364226E+01 -0.33261777363E+02 -0.48022338327E+03  0.51109409498E+03  0.17153571237E+03 0.  0.
         24    2    5    5    0    0  0.71741078798E+02 -0.13749804659E+02 -0.28211357987E+03  0.30216140703E+03  0.79859905068E+02 0.  0.
          5    1    5    5  501    0 -0.63265842375E+02 -0.19511972705E+02 -0.19810980340E+03  0.20893268795E+03  0.47000000000E+01 0. -1.
        -11    1    6    6    0    0  0.54971687360E+01 -0.34576010410E+02 -0.60236329933E+02  0.69671621222E+02  0.00000000000E+00 0.  1.
         12    1    6    6    0    0  0.66243910062E+02  0.20826205751E+02 -0.22187724994E+03  0.23248978581E+03  0.00000000000E+00 0. -1.
         -5    1    3    3    0  503 -0.49429053876E+02  0.43919031920E+02 -0.11695839338E+04  0.11714609601E+04  0.47000000000E+01 0.  1.
         13    1    4    4    0    0  0.45323605763E+02  0.74290569780E+01 -0.11274904699E+04  0.11284255314E+04  0.00000000000E+00 0. -1.
        -14    1    4    4    0    0 -0.43697883093E+01 -0.18086311535E+02 -0.71677156095E+02  0.74052848836E+02  0.00000000000E+00 0.  1.
</event>
<event>
12    1  0.8462562E-002  0.1808975E+03  0.7818608E-02  0.1167912E+00
         21   -1    0    0  503  502  0.00000000000E+00  0.00000000000E+00  0.19583244346E+03  0.19583244346E+03  0.00000000000E+00 0.  1.
         21   -1    0    0  501  503 -0.00000000000E+00 -0.00000000000E+00 -0.18525014711E+03  0.18525014711E+03  0.00000000000E+00 0.  1.
          6    2    1    2  501    0  0.48507019375E+02  0.31067106284E+02 -0.60166273862E+02  0.18684233334E+03  0.16724826156E+03 0.  0.
         24    2    3    3    0    0 -0.74117500042E+01  0.46428047796E+02 -0.78658820197E+02  0.12579373333E+03  0.86176305849E+02 0.  0.
         -6    2    1    2    0  502 -0.48507019375E+02 -0.31067106284E+02  0.70748570213E+02  0.19424025724E+03  0.17148125648E+03 0.  0.
        -24    2    5    5    0    0 -0.93017809760E+02  0.11015768707E+02  0.36135512652E+02  0.12372548870E+03  0.72308790520E+02 0.  0.
          5    1    3    3  501    0  0.55918769379E+02 -0.15360941512E+02  0.18492546335E+02  0.61048600008E+02  0.47000000000E+01 0. -1.
        -13    1    4    4    0    0 -0.31020668504E+02  0.20162361106E+02  0.27046232290E+01  0.37096059988E+02  0.00000000000E+00 0.  1.
         14    1    4    4    0    0  0.23608918500E+02  0.26265686691E+02 -0.81363443426E+02  0.88697673341E+02  0.00000000000E+00 0. -1.
         -5    1    5    5    0  502  0.44510790385E+02 -0.42082874990E+02  0.34613057560E+02  0.70514768537E+02  0.47000000000E+01 0.  1.
         11    1    6    6    0    0 -0.36681302967E+01  0.22028179366E+02  0.24171342941E+02  0.32908200887E+02  0.00000000000E+00 0. -1.
        -12    1    6    6    0    0 -0.89349679463E+02 -0.11012410659E+02  0.11964169711E+02  0.90817287812E+02  0.00000000000E+00 0.  1.
</event>
<event>
12    1  0.8462562E-002  0.2301399E+03  0.7818608E-02  0.1126929E+00
         21   -1    0    0  503  502  0.00000000000E+00  0.00000000000E+00  0.59639418417E+03  0.59639418417E+03  0.00000000000E+00 0.  1.
         21   -1    0    0  501  503 -0.00000000000E+00 -0.00000000000E+00 -0.12528065549E+03  0.12528065549E+03  0.00000000000E+00 0. -1.
          6    2    1    2  501    0 -0.96431110337E+02  0.11403619013E+03  0.39413737936E+02  0.23349047032E+03  0.17510324180E+03 0.  0.
         24    2    3    3    0    0  0.17367229893E+02  0.63435968829E+02 -0.42475855519E+01  0.10143424818E+03  0.77104616634E+02 0.  0.
         -6    2    1    2    0  502  0.96431110337E+02 -0.11403619013E+03  0.43169979074E+03  0.48818436935E+03  0.17220934192E+03 0.  0.
        -24    2    5    5    0    0  0.58051276360E+02 -0.65711371805E+02  0.40253438459E+03  0.41976645766E+03  0.80510950395E+02 0.  0.
          5    1    3    3  501    0 -0.11379834023E+03  0.50600221306E+02  0.43661323488E+02  0.13205622213E+03  0.47000000000E+01 0. -1.
        -13    1    4    4    0    0 -0.23249329512E+02  0.49255910308E+02  0.11416117028E+02  0.55650730013E+02  0.00000000000E+00 0.  1.
         14    1    4    4    0    0  0.40616559405E+02  0.14180058521E+02 -0.15663702580E+02  0.45783518171E+02  0.00000000000E+00 0. -1.
         -5    1    5    5    0  502  0.38379833977E+02 -0.48324818329E+02  0.29165406156E+02  0.68417911682E+02  0.47000000000E+01 0.  1.
         11    1    6    6    0    0  0.15142674746E+02  0.17991673339E+02  0.10986387692E+03  0.11235244706E+03  0.00000000000E+00 0. -1.
        -12    1    6    6    0    0  0.42908601613E+02 -0.83703045145E+02  0.29267050767E+03  0.30741401061E+03  0.00000000000E+00 0.  1.
</event>
<event>
12    1  0.8462562E-002  0.2308454E+03  0.7818608E-02  0.1127401E+00
         21   -1    0    0  503  502  0.00000000000E+00  0.00000000000E+00  0.12552033332E+03  0.12552033332E+03  0.00000000000E+00 0. -1.
         21   -1    0    0  501  503 -0.00000000000E+00 -0.00000000000E+00 -0.64771092074E+03  0.64771092074E+03  0.00000000000E+00 0.  1.
          6    2    1    2  501    0 -0.14594457119E+03 -0.19370770351E+02 -0.49772075687E+03  0.54864883770E+03  0.17780481063E+03 0.  0.
         24    2    3    3    0    0 -0.13352013722E+03 -0.62819067002E+01 -0.50504695260E+03  0.52861266903E+03  0.80571956205E+02 0.  0.
         -6    2    1    2    0  502  0.14594457119E+03  0.19370770351E+02 -0.24469830546E+02  0.22458241637E+03  0.16781967861E+03 0.  0.
        -24    2    5    5    0    0  0.10367070785E+03  0.89166417716E+01  0.47964731301E+02  0.13993476975E+03  0.80336804589E+02 0.  0.
          5    1    3    3  501    0 -0.12424433973E+02 -0.13088863651E+02  0.73261957315E+01  0.20036168674E+02  0.47000000000E+01 0. -1.
        -11    1    4    4    0    0 -0.10618795818E+03  0.97171662718E+01 -0.25256455218E+03  0.27415170764E+03  0.00000000000E+00 0.  1.
         12    1    4    4    0    0 -0.27332179038E+02 -0.15999072972E+02 -0.25248240042E+03  0.25446096139E+03  0.00000000000E+00 0. -1.
         -5    1    5    5    0  502  0.42273863347E+02  0.10454128580E+02 -0.72434561848E+02  0.84647646611E+02  0.47000000000E+01 0.  1.
         11    1    6    6    0    0  0.81255121776E+01  0.15442950022E+02  0.40234197685E+02  0.43855436572E+02  0.00000000000E+00 0. -1.
        -12    1    6    6    0    0  0.95545195670E+02 -0.65263082505E+01  0.77305336162E+01  0.96079333183E+02  0.00000000000E+00 0.  1.
</event>
<event>
12    1  0.8462562E-002  0.1951963E+03  0.7818608E-02  0.1154259E+00
         21   -1    0    0  503  502  0.00000000000E+00  0.00000000000E+00  0.50284140883E+02  0.50284140883E+02  0.00000000000E+00 0.  1.
         21   -1    0    0  501  503 -0.00000000000E+00 -0.00000000000E+00 -0.91247178999E+03  0.91247178999E+03  0.00000000000E+00 0.  1.
          6    2    1    2  501    0 -0.29174669871E+02  0.85449263633E+02 -0.23002490535E+03  0.30168370652E+03  0.17305739996E+03 0.  0.
         24    2    3    3    0    0 -0.82006440883E+02  0.62470063804E+02 -0.11721867452E+03  0.17492971105E+03  0.78946950132E+02 0.  0.
         -6    2    1    2    0  502  0.29174669871E+02 -0.85449263633E+02 -0.63216274375E+03  0.66107222435E+03  0.17097956953E+03 0.  0.
        -24    2    5    5    0    0 -0.96695837586E+01  0.16009904813E+02 -0.33305043983E+03  0.34280645606E+03  0.79018054562E+02 0.  0.
          5    1    3    3  501    0  0.52831771012E+02  0.22979199829E+02 -0.11280623083E+03  0.12675399547E+03  0.47000000000E+01 0. -1.
        -11    1    4    4    0    0 -0.47987736536E+02  0.77319067111E+02 -0.69666335743E+02  0.11460566885E+03  0.00000000000E+00 0.  1.
         12    1    4    4    0    0 -0.34018704347E+02 -0.14849003307E+02 -0.47552338775E+02  0.60324042202E+02  0.00000000000E+00 0. -1.
         -5    1    5    5    0  502  0.38844253629E+02 -0.10145916845E+03 -0.29911230392E+03  0.31826576828E+03  0.47000000000E+01 0.  1.
         11    1    6    6    0    0  0.29174400067E+02  0.28058560574E+02 -0.17239325770E+03  0.17708151722E+03  0.00000000000E+00 0. -1.
        -12    1    6    6    0    0 -0.38843983825E+02 -0.12048655761E+02 -0.16065718213E+03  0.16572493884E+03  0.00000000000E+00 0.  1.
</event>
<event>
12    1  0.8462562E-002  0.1925085E+03  0.7818608E-02  0.1157357E+00
         21   -1    0    0  503  502  0.00000000000E+00  0.00000000000E+00  0.52248305345E+03  0.52248305345E+03  0.00000000000E+00 0. -1.
         21   -1    0    0  501  503 -0.00000000000E+00 -0.00000000000E+00 -0.75806009510E+02  0.75806009510E+02  0.00000000000E+00 0.  1.
          6    2    1    2  501    0 -0.21708412858E+02  0.72642018862E+02  0.13149533965E+03  0.22896668851E+03  0.17142520820E+03 0.  0.
         24    2    3    3    0    0 -0.80469745174E+02  0.43256236028E+02  0.83456264321E+02  0.14744208384E+03  0.80173176249E+02 0.  0.
         -6    2    1    2    0  502  0.21708412858E+02 -0.72642018862E+02  0.31518170430E+03  0.36932237445E+03  0.17695025135E+03 0.  0.
        -24    2    5    5    0    0 -0.45014499290E+02 -0.37095144663E+02  0.88133276586E+02  0.12997199155E+03  0.75649780176E+02 0.  0.
          5    1    3    3  501    0  0.58761332316E+02  0.29385782834E+02  0.48039075325E+02  0.81524604669E+02  0.47000000000E+01 0. -1.
        -11    1    4    4    0    0 -0.54010980621E+02  0.26146198957E+02  0.96259243309E+02  0.11343126408E+03  0.00000000000E+00 0.  1.
         12    1    4    4    0    0 -0.26458764553E+02  0.17110037071E+02 -0.12802978988E+02  0.34010819767E+02  0.00000000000E+00 0. -1.
         -5    1    5    5    0  502  0.66722912148E+02 -0.35546874199E+02  0.22704842771E+03  0.23935038290E+03  0.47000000000E+01 0.  1.
         13    1    6    6    0    0  0.12825337395E+02 -0.34756701025E+02  0.41559836213E+02  0.55675286541E+02  0.00000000000E+00 0. -1.
        -14    1    6    6    0    0 -0.57839836685E+02 -0.23384436382E+01  0.46573440373E+02  0.74296705005E+02  0.00000000000E+00 0.  1.
</event>
<event>
12    1  0.8462562E-002  0.2730059E+03  0.7818608E-02  0.1099779E+00
         21   -1    0    0  501  502  0.00000000000E+00  0.00000000000E+00  0.82895029735E+03  0.82895029735E+03  0.00000000000E+00 0. -1.
         21   -1    0    0  502  503 -0.00000000000E+00 -0.00000000000E+00 -0.20388012011E+03  0.20388012011E+03  0.00000000000E+00 0.  1.
         -6    2    1    2    0  503  0.20224152290E+03 -0.62306561537E+02 -0.74015034497E+02  0.28286114294E+03  0.17247741782E+03 0.  0.
        -24    2    3    3    0    0  0.20455795865E+03 -0.79111795710E+02 -0.31792080734E+02  0.23711565579E+03  0.84323562277E+02 0.  0.
          6    2    1    2  501    0 -0.20224152290E+03  0.62306561537E+02  0.69908521174E+03  0.74996927452E+03  0.17014710767E+03 0.  0.
         24    2    5    5    0    0 -0.52060323985E+02  0.51195367326E+02  0.40769660016E+03  0.42193381286E+03  0.80500817910E+02 0.  0.
          5    1    5    5  501    0 -0.15018119892E+03  0.11111194211E+02  0.29138861158E+03  0.32803546165E+03  0.47000000000E+01 0. -1.
        -13    1    6    6    0    0  0.16119313719E+02 -0.39050412509E+01  0.12109782752E+03  0.12222833326E+03  0.00000000000E+00 0.  1.
         14    1    6    6    0    0 -0.68179637704E+02  0.55100408577E+02  0.28659877264E+03  0.29970547960E+03  0.00000000000E+00 0. -1.
         -5    1    3    3    0  503 -0.23164357468E+01  0.16805234173E+02 -0.42222953763E+02  0.45745487151E+02  0.47000000000E+01 0.  1.
         11    1    4    4    0    0 -0.37012435037E+01  0.78812146062E+01  0.19127179501E+01  0.89146641607E+01  0.00000000000E+00 0. -1.
        -12    1    4    4    0    0  0.20825920215E+03 -0.86993010316E+02 -0.33704798684E+02  0.22820099163E+03  0.00000000000E+00 0.  1.
</event>
<event>
12    1  0.8462562E-002  0.2489243E+03  0.7818608E-02  0.1114082E+00
         21   -1    0    0  503  502  0.00000000000E+00  0.00000000000E+00  0.16413131484E+03  0.16413131484E+03  0.00000000000E+00 0.  1.
         21   -1    0    0  501  503 -0.00000000000E+00 -0.00000000000E+00 -0.39182888666E+03  0.39182888666E+03  0.00000000000E+00 0.  1.
          6    2    1    2  501    0 -0.17944975014E+03  0.66529197937E+01 -0.58938293061E+02  0.25522278707E+03  0.17151814623E+03 0.  0.
         24    2    3    3    0    0 -0.19788178535E+03 -0.21027964422E+02 -0.44031158035E+02  0.21847657710E+03  0.78701306223E+02 0.  0.
         -6    2    1    2    0  502  0.17944975014E+03 -0.66529197937E+01 -0.16875927876E+03  0.30073741443E+03  0.17238568416E+03 0.  0.
        -24    2    5    5    0    0  0.11216456522E+03 -0.45394238730E+02 -0.39355134041E+02  0.14975493673E+03  0.78969537789E+02 0.  0.
          5    1    3    3  501    0  0.18432035209E+02  0.27680884215E+02 -0.14907135026E+02  0.36746209976E+02  0.47000000000E+01 0. -1.
        -13    1    4    4    0    0 -0.72803852287E+02 -0.15942389955E+02 -0.55277738713E+02  0.92791104652E+02  0.00000000000E+00 0.  1.
         14    1    4    4    0    0 -0.12507793306E+03 -0.50855744666E+01  0.11246580678E+02  0.12568547244E+03  0.00000000000E+00 0. -1.
         -5    1    5    5    0  502  0.67285184923E+02  0.38741318936E+02 -0.12940414472E+03  0.15098247770E+03  0.47000000000E+01 0.  1.
         11    1    6    6    0    0  0.31682460816E+02 -0.20128311656E+02  0.23740799047E+02  0.44413430321E+02  0.00000000000E+00 0. -1.
        -12    1    6    6    0    0  0.80482104401E+02 -0.25265927074E+02 -0.63095933088E+02  0.10534150641E+03  0.00000000000E+00 0.  1.
</event>
<event>
12    1  0.8462562E-002  0.2306221E+03  0.7818608E-02  0.1126466E+00
         21   -1    0    0  503  502  0.00000000000E+00  0.00000000000E+00  0.43529821394E+03  0.43529821394E+03  0.00000000000E+00 0. -1.
         21   -1    0    0  501  503 -0.00000000000E+00 -0.00000000000E+00 -0.12139399575E+03  0.12139399575E+03  0.00000000000E+00 0. -1.
          6    2    1    2  501    0  0.14964214787E+03 -0.22132138690E+02  0.15847361037E+03  0.27982212325E+03  0.17408024442E+03 0.  0.
         24    2    3    3    0    0  0.18049187739E+03 -0.22849309453E+02  0.13086626641E+03  0.23815108312E+03  0.80563949513E+02 0.  0.
         -6    2    1    2    0  502 -0.14964214787E+03  0.22132138690E+02  0.15543060782E+03  0.27687008643E+03  0.17209232096E+03 0.  0.
        -24    2    5    5    0    0 -0.54138208153E+02  0.72927619575E+02  0.53587867460E+02  0.12822548632E+03  0.72943351473E+02 0.  0.
          5    1    3    3  501    0 -0.30849729519E+02  0.71717076245E+00  0.27607343959E+02  0.41671040133E+02  0.47000000000E+01 0. -1.
        -11    1    4    4    0    0 -0.71476958061E+01  0.56497991082E+01  0.73570350365E+01  0.11710497420E+02  0.00000000000E+00 0.  1.
         12    1    4    4    0    0  0.18763957319E+03 -0.28499108561E+02  0.12350923138E+03  0.22644058570E+03  0.00000000000E+00 0. -1.
         -5    1    5    5    0  502 -0.95503939715E+02 -0.50795480885E+02  0.10184274036E+03  0.14864460011E+03  0.47000000000E+01 0.  1.
         13    1    6    6    0    0 -0.35196424014E+02  0.39277885349E+01  0.43297954961E+02  0.55936827672E+02  0.00000000000E+00 0. -1.
        -14    1    6    6    0    0 -0.18941784139E+02  0.68999831040E+02  0.10289912499E+02  0.72288658648E+02  0.00000000000E+00 0.  1.
</event>
<event>
12    1  0.8462562E-002  0.1717310E+03  0.7818608E-02  0.1177768E+00
         21   -1    0    0  501  502  0.00000000000E+00  0.00000000000E+00  0.14647493590E+03  0.14647493590E+03  0.00000000000E+00 0.  1.
         21   -1    0    0  502  503 -0.00000000000E+00 -0.00000000000E+00 -0.43102800814E+03  0.43102800814E+03  0.00000000000E+00 0.  1.
         -6    2    1    2    0  503  0.15469978235E+01 -0.10423075563E+02 -0.35525205315E+03  0.39178846081E+03  0.16487311196E+03 0.  0.
        -24    2    3    3    0    0 -0.14100179424E+00  0.13633908827E+02 -0.74891162188E+02  0.11035302057E+03  0.79894928648E+02 0.  0.
          6    2    1    2  501    0 -0.15469978235E+01  0.10423075563E+02  0.70698980905E+02  0.18571448324E+03  0.17140737929E+03 0.  0.
         24    2    5    5    0    0  0.48118270076E+02  0.23478845182E+01  0.93053496703E+02  0.13045453461E+03  0.77708119742E+02 0.  0.
          5    1    5    5  501    0 -0.49665267900E+02  0.80751910451E+01 -0.22354515798E+02  0.55259948630E+02  0.47000000000E+01 0. -1.
        -13    1    6    6    0    0  0.27822398632E+02 -0.33710242296E+02  0.71495278059E+02  0.83797619811E+02  0.00000000000E+00 0.  1.
         14    1    6    6    0    0  0.20295871445E+02  0.36058126815E+02  0.21558218644E+02  0.46656914795E+02  0.00000000000E+00 0. -1.
         -5    1    3    3    0  503  0.16879996178E+01 -0.24056984390E+02 -0.28036089096E+03  0.28143544024E+03  0.47000000000E+01 0.  1.
         11    1    4    4    0    0  0.33329147432E+02  0.29032905988E+02 -0.41525416786E+02  0.60647357221E+02  0.00000000000E+00 0. -1.
        -12    1    4    4    0    0 -0.33470149226E+02 -0.15398997161E+02 -0.33365745402E+02  0.49705663349E+02  0.00000000000E+00 0.  1.
</event>
<event>
12    1  0.8462562E-002  0.1805666E+03  0.7818608E-02  0.1167377E+00
         21   -1    0    0  503  502  0.00000000000E+00  0.00000000000E+00  0.92403958384E+02  0.92403958384E+02  0.00000000000E+00 0. -1.
         21   -1    0    0  501  503 -0.00000000000E+00 -0.00000000000E+00 -0.39123290107E+03  0.39123290107E+03  0.00000000000E+00 0. -1.
          6    2    1    2  501    0  0.42085470545E+02  0.34498026521E+02 -0.22593508507E+03  0.28891190633E+03  0.17164535032E+03 0.  0.
         24    2    3    3    0    0  0.27485697959E+02 -0.31803647941E+02 -0.55564443441E+02  0.10545261677E+03  0.79157510024E+02 0.  0.
         -6    2    1    2    0  502 -0.42085470545E+02 -0.34498026521E+02 -0.72893857618E+02  0.19472495313E+03  0.17217140363E+03 0.  0.
        -24    2    5    5    0    0  0.24225871311E+02  0.25019981393E+02 -0.13489283496E+02  0.87530826655E+02  0.79163075585E+02 0.  0.
          5    1    3    3  501    0  0.14599772586E+02  0.66301674462E+02 -0.17037064163E+03  0.18345928956E+03  0.47000000000E+01 0. -1.
        -13    1    4    4    0    0 -0.13651862049E+02 -0.37528501303E+02 -0.49306342011E+02  0.63449799921E+02  0.00000000000E+00 0.  1.
         14    1    4    4    0    0  0.41137560008E+02  0.57248533619E+01 -0.62581014300E+01  0.42002816846E+02  0.00000000000E+00 0. -1.
         -5    1    5    5    0  502 -0.66311341856E+02 -0.59518007913E+02 -0.59404574122E+02  0.10719412648E+03  0.47000000000E+01 0.  1.
         11    1    6    6    0    0 -0.13676953991E+02 -0.15246852410E+02 -0.23670276255E+02  0.31301877849E+02  0.00000000000E+00 0. -1.
        -12    1    6    6    0    0  0.37902825302E+02  0.40266833802E+02  0.10180992759E+02  0.56228948806E+02  0.00000000000E+00 0.  1.
</event>
<event>
12    1  0.8462562E-002  0.2122778E+03  0.7818608E-02  0.1139802E+00
         21   -1    0    0  501  502  0.00000000000E+00  0.00000000000E+00  0.88055435573E+02  0.88055435573E+02  0.00000000000E+00 0. -1.
         21   -1    0    0  502  503 -0.00000000000E+00 -0.00000000000E+00 -0.70415599622E+03  0.70415599622E+03  0.00000000000E+00 0.  1.
         -6    2    1    2    0  503 -0.10709318573E+03 -0.65090902516E+02 -0.51536109518E+03  0.55736786761E+03  0.17133623492E+03 0.  0.
        -24    2    3    3    0    0 -0.12661199642E+03 -0.92535202204E+02 -0.45795209632E+03  0.49064413340E+03  0.80113555887E+02 0.  0.
          6    2    1    2  501    0  0.10709318573E+03  0.65090902516E+02 -0.10073946547E+03  0.23484356419E+03  0.17116449315E+03 0.  0.
         24    2    5    5    0    0  0.10639372089E+03  0.34970986580E+02 -0.13282872332E+03  0.19057722194E+03  0.78317392921E+02 0.  0.
          5    1    5    5  501    0  0.69946484007E+00  0.30119915935E+02  0.32089257850E+02  0.44266342252E+02  0.47000000000E+01 0. -1.
        -13    1    6    6    0    0  0.29398125169E+01  0.22868083981E+02 -0.57741137073E+02  0.62174196200E+02  0.00000000000E+00 0.  1.
         14    1    6    6    0    0  0.10345390838E+03  0.12102902599E+02 -0.75087586247E+02  0.12840302574E+03  0.00000000000E+00 0. -1.
         -5    1    3    3    0  503  0.19518810684E+02  0.27444299688E+02 -0.57408998865E+02  0.66723734208E+02  0.47000000000E+01 0.  1.
         11    1    4    4    0    0 -0.56915003278E+02  0.20047010688E+01 -0.11916075768E+03  0.13207052130E+03  0.00000000000E+00 0. -1.
        -12    1    4    4    0    0 -0.69696993141E+02 -0.94539903273E+02 -0.33879133863E+03  0.35857361210E+03  0.00000000000E+00 0.  1.
</event>
<event>
12    1  0.8462562E-002  0.1768437E+03  0.7818608E-02  0.1171969E+00
         21   -1    0    0  503  502  0.00000000000E+00  0.00000000000E+00  0.46140984159E+03  0.46140984159E+03  0.00000000000E+00 0.  1.
         21   -1    0    0  501  503 -0.00000000000E+00 -0.00000000000E+00 -0.67792383682E+02  0.67792383682E+02  0.00000000000E+00 0.  1.
          6    2    1    2  501    0 -0.16351096356E+02  0.19010008598E+02  0.23569002432E+03  0.29210570955E+03  0.17072556694E+03 0.  0.
         24    2    3    3    0    0 -0.66376268936E+02 -0.39014487415E+01  0.94751908671E+02  0.14073498843E+03  0.80046126651E+02 0.  0.
         -6    2    1    2    0  502  0.16351096356E+02 -0.19010008598E+02  0.15792743359E+03  0.23709651572E+03  0.17505697561E+03 0.  0.
        -24    2    5    5    0    0  0.34380804320E+02 -0.69174521559E+02  0.14461782560E+03  0.18195320793E+03  0.78901839365E+02 0.  0.
          5    1    3    3  501    0  0.50025172580E+02  0.22911457339E+02  0.14093811565E+03  0.15137072111E+03  0.47000000000E+01 0. -1.
        -13    1    4    4    0    0 -0.33975295085E+02 -0.24405684182E+02  0.37685297102E+01  0.42001903679E+02  0.00000000000E+00 0.  1.
         14    1    4    4    0    0 -0.32400973851E+02  0.20504235441E+02  0.90983378961E+02  0.98733084752E+02  0.00000000000E+00 0. -1.
         -5    1    5    5    0  502 -0.18029707964E+02  0.50164512961E+02  0.13309607990E+02  0.55143307797E+02  0.47000000000E+01 0.  1.
         13    1    6    6    0    0  0.23370448239E+02 -0.44045688699E+01  0.74963561866E+00  0.23793697303E+02  0.00000000000E+00 0. -1.
        -14    1    6    6    0    0  0.11010356081E+02 -0.64769952689E+02  0.14386818998E+03  0.15815951062E+03  0.00000000000E+00 0.  1.
</event>
<event>
12    1  0.8462562E-002  0.2284586E+03  0.7818608E-02  0.1127834E+00
         21   -1    0    0  501  502  0.00000000000E+00  0.00000000000E+00  0.18872138436E+03  0.18872138436E+03  0.00000000000E+00 0.  1.
         21   -1    0    0  502  503 -0.00000000000E+00 -0.00000000000E+00 -0.34229065974E+03  0.34229065974E+03  0.00000000000E+00 0.  1.
         -6    2    1    2    0  503  0.14200928741E+03  0.49411176058E+02 -0.19368059169E+03  0.29905890836E+03  0.17121903237E+03 0.  0.
        -24    2    3    3    0    0  0.57061240611E+02  0.30291055875E+02 -0.20810786523E+02  0.10544122015E+03  0.80692185652E+02 0.  0.
          6    2    1    2  501    0 -0.14200928741E+03 -0.49411176058E+02  0.40111316307E+02  0.23195313574E+03  0.17200359721E+03 0.  0.
         24    2    5    5    0    0 -0.27863754708E+02 -0.48374369762E+02  0.62346536785E+02  0.11556253202E+03  0.79694037936E+02 0.  0.
          5    1    5    5  501    0 -0.11414553271E+03 -0.10368062961E+01 -0.22235220478E+02  0.11639060372E+03  0.47000000000E+01 0. -1.
        -13    1    6    6    0    0 -0.13063811055E+02  0.21331584782E+02  0.91438319241E+01  0.26632861860E+02  0.00000000000E+00 0.  1.
         14    1    6    6    0    0 -0.14799943654E+02 -0.69705954545E+02  0.53202704861E+02  0.88929670165E+02  0.00000000000E+00 0. -1.
         -5    1    3    3    0  503  0.84948046803E+02  0.19120120183E+02 -0.17286980516E+03  0.19361768821E+03  0.47000000000E+01 0.  1.
         13    1    4    4    0    0  0.33652362781E+02 -0.23290321524E+02 -0.22967008291E+02  0.46929778044E+02  0.00000000000E+00 0. -1.
        -14    1    4    4    0    0  0.23408877830E+02  0.53581377399E+02  0.21562217682E+01  0.58511442108E+02  0.00000000000E+00 0.  1.
</event>
<event>
12    1  0.8462562E-002  0.1766642E+03  0.7818608E-02  0.1171733E+00
         21   -1    0    0  501  502  0.00000000000E+00  0.00000000000E+00  0.49665244736E+02  0.49665244736E+02  0.00000000000E+00 0. -1.
         21   -1    0    0  502  503 -0.00000000000E+00 -0.00000000000E+00 -0.17314816389E+04  0.17314816389E+04  0.00000000000E+00 0. -1.
         -6    2    1    2    0  503 -0.22282612948E+02 -0.13987455831E+02 -0.15570136880E+04  0.15670041007E+04  0.17469419864E+03 0.  0.
        -24    2    3    3    0    0  0.24013619958E+02 -0.65829225034E+02 -0.88236579089E+03  0.88876904899E+03  0.80192846873E+02 0.  0.
          6    2    1    2  501    0  0.22282612948E+02  0.13987455831E+02 -0.12480270614E+03  0.21414278298E+03  0.17201526758E+03 0.  0.
         24    2    5    5    0    0  0.50471726552E+02 -0.47947710118E+02 -0.80198324461E+02  0.13264289480E+03  0.79473191764E+02 0.  0.
          5    1    5    5  501    0 -0.28189113603E+02  0.61935165949E+02 -0.44604381681E+02  0.81499888172E+02  0.47000000000E+01 0. -1.
        -11    1    6    6    0    0  0.37319996167E+02 -0.94154878231E+01 -0.83348494834E+02  0.91806345728E+02  0.00000000000E+00 0.  1.
         12    1    6    6    0    0  0.13151730385E+02 -0.38532222295E+02  0.31501703735E+01  0.40836549076E+02  0.00000000000E+00 0. -1.
         -5    1    3    3    0  503 -0.46296232907E+02  0.51841769202E+02 -0.67464789713E+03  0.67823505168E+03  0.47000000000E+01 0.  1.
         13    1    4    4    0    0  0.56645237998E+01 -0.28936855551E+02 -0.73930677499E+03  0.73989454383E+03  0.00000000000E+00 0. -1.
        -14    1    4    4    0    0  0.18349096159E+02 -0.36892369483E+02 -0.14305901590E+03  0.14887450516E+03  0.00000000000E+00 0.  1.
</event>
<event>
12    1  0.8462562E-002  0.1725316E+03  0.7818608E-02  0.1175429E+00
         21   -1    0    0  503  502  0.00000000000E+00  0.00000000000E+00  0.18088516965E+03  0.18088516965E+03  0.00000000000E+00 0. -1.
         21   -1    0    0  501  503 -0.00000000000E+00 -0.00000000000E+00 -0.16386567065E+03  0.16386567065E+03  0.00000000000E+00 0. -1.
          6    2    1    2  501    0  0.59826044899E+00  0.79950299553E+01  0.10870377831E+02  0.17287373950E+03  0.17234525313E+03 0.  0.
         24    2    3    3    0    0  0.23211068892E+02  0.42009457724E+02  0.56732690263E+02  0.11128021627E+03  0.82831999442E+02 0.  0.
         -6    2    1    2    0  502 -0.59826044899E+00 -0.79950299553E+01  0.61491211722E+01  0.17187710080E+03  0.17157985799E+03 0.  0.
        -24    2    5    5    0    0 -0.30545693713E+01  0.47449424519E+02  0.46344477736E+02  0.10319029221E+03  0.78991439459E+02 0.  0.
          5    1    3    3  501    0 -0.22612808443E+02 -0.34014427769E+02 -0.45862312432E+02  0.61593523229E+02  0.47000000000E+01 0. -1.
        -11    1    4    4    0    0 -0.18267870969E+02  0.28144279897E+02 -0.67159587862E+01  0.34218703995E+02  0.00000000000E+00 0.  1.
         12    1    4    4    0    0  0.41478939861E+02  0.13865177827E+02  0.63448649049E+02  0.77061512276E+02  0.00000000000E+00 0. -1.
         -5    1    5    5    0  502  0.24563089223E+01 -0.55444454475E+02 -0.40195356563E+02  0.68686808594E+02  0.47000000000E+01 0.  1.
         13    1    6    6    0    0 -0.87044264727E+01  0.65818818867E+02  0.17725987662E+02  0.68717498469E+02  0.00000000000E+00 0. -1.
        -14    1    6    6    0    0  0.56498571014E+01 -0.18369394348E+02  0.28618490074E+02  0.34472793738E+02  0.00000000000E+00 0.  1.
</event>
<event>
12    1  0.8462562E-002  0.2002185E+03  0.7818608E-02  0.1149853E+00
         21   -1    0    0  501  502  0.00000000000E+00  0.00000000000E+00  0.57562108151E+03  0.57562108151E+03  0.00000000000E+00 0. -1.
         21   -1    0    0  502  503 -0.00000000000E+00 -0.00000000000E+00 -0.10587718322E+03  0.10587718322E+03  0.00000000000E+00 0. -1.
         -6    2    1    2    0  503 -0.47754815248E+02 -0.88441981192E+02  0.34729707814E+02  0.20320825193E+03  0.17316158532E+03 0.  0.
        -24    2    3    3    0    0 -0.77921894200E+02 -0.82498960623E+01  0.47695984580E+01  0.11232084178E+03  0.80332683563E+02 0.  0.
          6    2    1    2  501    0  0.47754815248E+02  0.88441981192E+02  0.43501419048E+03  0.47829001281E+03  0.17152691921E+03 0.  0.
         24    2    5    5    0    0  0.66363185420E+02  0.12893841972E+02  0.15768469387E+03  0.19021444552E+03  0.82138596666E+02 0.  0.
          5    1    5    5  501    0 -0.18608370173E+02  0.75548139220E+02  0.27732949661E+03  0.28807556729E+03  0.47000000000E+01 0. -1.
        -13    1    6    6    0    0 -0.81997688012E+01 -0.24814160036E+00  0.84553105212E+02  0.84950134689E+02  0.00000000000E+00 0.  1.
         14    1    6    6    0    0  0.74562954221E+02  0.13141983572E+02  0.73131588662E+02  0.10526431083E+03  0.00000000000E+00 0. -1.
         -5    1    3    3    0  503  0.30167078952E+02 -0.80192085129E+02  0.29960109356E+02  0.90887410143E+02  0.47000000000E+01 0.  1.
         13    1    4    4    0    0 -0.13869618588E+02  0.23230741791E+02  0.26341965569E+02  0.37761525842E+02  0.00000000000E+00 0. -1.
        -14    1    4    4    0    0 -0.64052275612E+02 -0.31480637853E+02 -0.21572367111E+02  0.74559315940E+02  0.00000000000E+00 0.  1.
</event>
<event>
12    1  0.8462562E-002  0.1848374E+03  0.7818608E-02  0.1163332E+00
         21   -1    0    0  503  502  0.00000000000E+00  0.00000000000E+00  0.18500262852E+04  0.18500262852E+04  0.00000000000E+00 0. -1.
         21   -1    0    0  501  503 -0.00000000000E+00 -0.00000000000E+00 -0.38098849771E+02  0.38098849771E+02  0.00000000000E+00 0. -1.
          6    2    1    2  501    0  0.60449149392E+02  0.25517849105E+02  0.22666927307E+03  0.29212753988E+03  0.17220418089E+03 0.  0.
         24    2    3    3    0    0 -0.29166717523E+02  0.15005623534E+02  0.68015629294E+02  0.10954994220E+03  0.79367486163E+02 0.  0.
         -6    2    1    2    0  502 -0.60449149392E+02 -0.25517849105E+02  0.15852581624E+04  0.15959975951E+04  0.17279936902E+03 0.  0.
        -24    2    5    5    0    0 -0.98711040085E+02 -0.28343990070E+01  0.13890617763E+04  0.13947673213E+04  0.78302994465E+02 0.  0.
          5    1    3    3  501    0  0.89615866915E+02  0.10512225571E+02  0.15865364378E+03  0.18257759768E+03  0.47000000000E+01 0. -1.
        -13    1    4    4    0    0  0.10337978925E+02 -0.70748437804E+01  0.62749713737E+02  0.63987919147E+02  0.00000000000E+00 0.  1.
         14    1    4    4    0    0 -0.39504696448E+02  0.22080467315E+02  0.52659155573E+01  0.45562023056E+02  0.00000000000E+00 0. -1.
         -5    1    5    5    0  502  0.38261890693E+02 -0.22683450098E+02  0.19619638609E+03  0.20123027382E+03  0.47000000000E+01 0.  1.
         13    1    6    6    0    0 -0.16311303719E+02 -0.31241315530E+02  0.56801381566E+03  0.56910611770E+03  0.00000000000E+00 0. -1.
        -14    1    6    6    0    0 -0.82399736366E+02  0.28406916523E+02  0.82104796064E+03  0.82566120360E+03  0.00000000000E+00 0.  1.
</event>
<event>
12    1  0.8462562E-002  0.1824534E+03  0.7818608E-02  0.1165727E+00
         21   -1    0    0  501  502  0.00000000000E+00  0.00000000000E+00  0.17206321447E+03  0.17206321447E+03  0.00000000000E+00 0.  1.
         21   -1    0    0  502  503 -0.00000000000E+00 -0.00000000000E+00 -0.28018391778E+03  0.28018391778E+03  0.00000000000E+00 0.  1.
         -6    2    1    2    0  503 -0.53329724856E+02 -0.18945318903E+02 -0.18086483657E+03  0.25690727526E+03  0.17345395444E+03 0.  0.
        -24    2    3    3    0    0 -0.92028683118E+02  0.12397347800E+02 -0.85746551545E+02  0.14943844129E+03  0.79727058680E+02 0.  0.
          6    2    1    2  501    0  0.53329724856E+02  0.18945318903E+02  0.72744133261E+02  0.19533985700E+03  0.17222939978E+03 0.  0.
         24    2    5    5    0    0  0.36802658365E+02  0.15884370903E+02  0.11721877553E+03  0.14756332370E+03  0.80174461409E+02 0.  0.
          5    1    5    5  501    0  0.16527066491E+02  0.30609480007E+01 -0.44474642270E+02  0.47776533303E+02  0.47000000000E+01 0. -1.
        -11    1    6    6    0    0  0.15389981345E+02  0.29464029900E+02  0.11759694473E+03  0.12220483621E+03  0.00000000000E+00 0.  1.
         12    1    6    6    0    0  0.21412677020E+02 -0.13579658997E+02 -0.37816919940E+00  0.25358487486E+02  0.00000000000E+00 0. -1.
         -5    1    3    3    0  503  0.38698958262E+02 -0.31342666703E+02 -0.95118285027E+02  0.10746883396E+03  0.47000000000E+01 0.  1.
         13    1    4    4    0    0 -0.47356125854E+02  0.15370174943E+01  0.50667610042E+01  0.47651202984E+02  0.00000000000E+00 0. -1.
        -14    1    4    4    0    0 -0.44672557264E+02  0.10860330306E+02 -0.90813312549E+02  0.10178723831E+03  0.00000000000E+00 0.  1.
</event>
<event>
12    1  0.8462562E-002  0.2158914E+03  0.7818608E-02  0.1138800E+00
         21   -1    0    0  501  502  0.00000000000E+00  0.00000000000E+00  0.79997450666E+02  0.79997450666E+02  0.00000000000E+00 0. -1.
         21   -1    0    0  502  503 -0.00000000000E+00 -0.00000000000E+00 -0.77932704314E+03  0.77932704314E+03  0.00000000000E+00 0. -1.
         -6    2    1    2    0  503 -0.47033718075E+00 -0.11623468195E+03 -0.58418351225E+03  0.62279969111E+03  0.18192953792E+03 0.  0.
        -24    2    3    3    0    0 -0.24794803466E+02 -0.15732302834E+02 -0.42259359883E+03  0.43089920131E+03  0.78908074923E+02 0.  0.
          6    2    1    2  501    0  0.47033718075E+00  0.11623468195E+03 -0.11514608022E+03  0.23652480269E+03  0.17080585467E+03 0.  0.
         24    2    5    5    0    0 -0.61095778416E+02  0.55550261667E+02 -0.91511784150E+02  0.14678264200E+03  0.79700763117E+02 0.  0.
          5    1    5    5  501    0  0.61566115596E+02  0.60684420285E+02 -0.23634296074E+02  0.89742160693E+02  0.47000000000E+01 0. -1.
        -13    1    6    6    0    0 -0.54426993515E+01 -0.11344317622E+02 -0.47750412319E+02  0.49380344219E+02  0.00000000000E+00 0.  1.
         14    1    6    6    0    0 -0.55653079064E+02  0.66894579289E+02 -0.43761371831E+02  0.97402297776E+02  0.00000000000E+00 0. -1.
         -5    1    3    3    0  503  0.24324466285E+02 -0.10050237912E+03 -0.16158991341E+03  0.19190048980E+03  0.47000000000E+01 0.  1.
         13    1    4    4    0    0 -0.16359192761E+02 -0.41222697674E+02 -0.36091639376E+03  0.36363110053E+03  0.00000000000E+00 0. -1.
        -14    1    4    4    0    0 -0.84356107045E+01  0.25490394839E+02 -0.61677205074E+02  0.67268100782E+02  0.00000000000E+00 0.  1.
</event>
<event>
12    1  0.8462562E-002  0.2538253E+03  0.7818608E-02  0.1111642E+00
         21   -1    0    0  503  502  0.00000000000E+00  0.00000000000E+00  0.43085100951E+03  0.43085100951E+03  0.00000000000E+00 0.  1.
         21   -1    0    0  501  503 -0.00000000000E+00 -0.00000000000E+00 -0.16660168796E+03  0.16660168796E+03  0.00000000000E+00 0. -1.
          6    2    1    2  501    0 -0.13134438944E+03  0.12450973514E+03  0.28045447925E+02  0.25072576261E+03  0.17123912551E+03 0.  0.
         24    2    3    3    0    0 -0.83890158934E+02  0.30877964359E+02 -0.42180943209E+02  0.12434281873E+03  0.75438035174E+02 0.  0.
         -6    2    1    2    0  502  0.13134438944E+03 -0.12450973514E+03  0.23620387362E+03  0.34672693486E+03  0.17796987009E+03 0.  0.
        -24    2    5    5    0    0  0.14355229396E+03 -0.50856192304E+02  0.19924848013E+03  0.26329032171E+03  0.80176201443E+02 0.  0.
          5    1    3    3  501    0 -0.47454230510E+02  0.93631770783E+02  0.70226391134E+02  0.12638294388E+03  0.47000000000E+01 0. -1.
        -13    1    4    4    0    0  0.93682426894E+01  0.18509313021E+02  0.11317182461E+01  0.20775933813E+02  0.00000000000E+00 0.  1.
         14    1    4    4    0    0 -0.93258401623E+02  0.12368651338E+02 -0.43312661455E+02  0.10356688492E+03  0.00000000000E+00 0. -1.
         -5    1    5    5    0  502 -0.12207904512E+02 -0.73653542838E+02  0.36955393491E+02  0.83436613145E+02  0.47000000000E+01 0.  1.
         13    1    6    6    0    0  0.52847717902E+02  0.45590746539E+01  0.23762562667E+02  0.58123367364E+02  0.00000000000E+00 0. -1.
        -14    1    6    6    0    0  0.90704576053E+02 -0.55415266958E+02  0.17548591746E+03  0.20516695435E+03  0.00000000000E+00 0.  1.
</event>
<event>
12    1  0.8462562E-002  0.1983377E+03  0.7818608E-02  0.1152015E+00
         21   -1    0    0  501  502  0.00000000000E+00  0.00000000000E+00  0.17776287519E+03  0.17776287519E+03  0.00000000000E+00 0.  1.
         21   -1    0    0  502  503 -0.00000000000E+00 -0.00000000000E+00 -0.30475939126E+03  0.30475939126E+03  0.00000000000E+00 0. -1.
         -6    2    1    2    0  503  0.97111078373E+02  0.86541635038E+01 -0.19261834938E+03  0.27361061902E+03  0.16809368290E+03 0.  0.
        -24    2    3    3    0    0  0.86623065181E+02  0.54666440106E+02 -0.18385519549E+03  0.22538188396E+03  0.80636751008E+02 0.  0.
          6    2    1    2  501    0 -0.97111078373E+02 -0.86541635038E+01  0.65621833317E+02  0.20891164744E+03  0.17272057011E+03 0.  0.
         24    2    5    5    0    0 -0.87043566506E+02 -0.61459729785E+02  0.18708214505E+02  0.13740807931E+03  0.84717779206E+02 0.  0.
          5    1    5    5  501    0 -0.10067511867E+02  0.52805566281E+02  0.46913618812E+02  0.71503568131E+02  0.47000000000E+01 0. -1.
        -13    1    6    6    0    0 -0.20258386875E+02 -0.10221512364E+02  0.44006862282E+02  0.49512478041E+02  0.00000000000E+00 0.  1.
         14    1    6    6    0    0 -0.66785179630E+02 -0.51238217420E+02 -0.25298647777E+02  0.87895601266E+02  0.00000000000E+00 0. -1.
         -5    1    3    3    0  503  0.10488013191E+02 -0.46012276603E+02 -0.87631538903E+01  0.48228735055E+02  0.47000000000E+01 0.  1.
         13    1    4    4    0    0 -0.89250313077E+01  0.12594250512E+02 -0.18325431595E+01  0.15544437727E+02  0.00000000000E+00 0. -1.
        -14    1    4    4    0    0  0.95548096489E+02  0.42072189594E+02 -0.18202265234E+03  0.20983744624E+03  0.00000000000E+00 0.  1.
</event>
<event>
12    1  0.8462562E-002  0.2641573E+03  0.7818608E-02  0.1105846E+00
         21   -1    0    0  501  502  0.00000000000E+00  0.00000000000E+00  0.12893439601E+03  0.12893439601E+03  0.00000000000E+00 0.  1.
         21   -1    0    0  502  503 -0.00000000000E+00 -0.00000000000E+00 -0.53273280772E+03  0.53273280772E+03  0.00000000000E+00 0. -1.
         -6    2    1    2    0  503  0.13795870181E+03 -0.13094684305E+03 -0.24417081296E+03  0.35971996888E+03  0.18330136660E+03 0.  0.
        -24    2    3    3    0    0  0.12078262189E+03 -0.14975534220E+02 -0.15154863129E+03  0.21023645564E+03  0.80122851037E+02 0.  0.
          6    2    1    2  501    0 -0.13795870181E+03  0.13094684305E+03 -0.15962759875E+03  0.30194723486E+03  0.17178906614E+03 0.  0.
         24    2    5    5    0    0 -0.15585590007E+03  0.13280426808E+03 -0.10341313845E+03  0.24273646489E+03  0.79364217254E+02 0.  0.
          5    1    5    5  501    0  0.17897198254E+02 -0.18574250252E+01 -0.56214460298E+02  0.59210769963E+02  0.47000000000E+01 0. -1.
        -13    1    6    6    0    0 -0.52266595506E+02  0.28133507768E+01 -0.35137160057E+02  0.63042302982E+02  0.00000000000E+00 0.  1.
         14    1    6    6    0    0 -0.10358930456E+03  0.12999091730E+03 -0.68275978390E+02  0.17969416191E+03  0.00000000000E+00 0. -1.
         -5    1    3    3    0  503  0.17176079925E+02 -0.11597130883E+03 -0.92622181668E+02  0.14948351324E+03  0.47000000000E+01 0.  1.
         11    1    4    4    0    0  0.61222392119E+01  0.16106715331E+02  0.55191799378E+00  0.17239858039E+02  0.00000000000E+00 0. -1.
        -12    1    4    4    0    0  0.11466038267E+03 -0.31082249551E+02 -0.15210054929E+03  0.19299659760E+03  0.00000000000E+00 0.  1.
</event>
<event>
12    1  0.8462562E-002  0.2315957E+03  0.7818608E-02  0.1125620E+00
         21   -1    0    0  501  502  0.00000000000E+00  0.00000000000E+00  0.43499343382E+03  0.43499343382E+03  0.00000000000E+00 0. -1.
         21   -1    0    0  502  503 -0.00000000000E+00 -0.00000000000E+00 -0.13106994369E+03  0.13106994369E+03  0.00000000000E+00 0.  1.
         -6    2    1    2    0  503  0.15248858668E+03  0.31657158234E+02  0.81920887199E+02  0.24565743991E+03  0.17141062187E+03 0.  0.
        -24    2    3    3    0    0  0.11847054257E+02  0.42632928734E+02  0.22970139394E+02  0.92694082057E+02  0.78145033352E+02 0.  0.
          6    2    1    2  501    0 -0.15248858668E+03 -0.31657158234E+02  0.22200260293E+03  0.32040593760E+03  0.17064543476E+03 0.  0.
         24    2    5    5    0    0 -0.25736697853E+02 -0.15755411874E+02  0.32175782848E+02  0.91549610439E+02  0.80221191402E+02 0.  0.
          5    1    5    5  501    0 -0.12675188883E+03 -0.15901746359E+02  0.18982682008E+03  0.22885632716E+03  0.47000000000E+01 0. -1.
        -11    1    6    6    0    0 -0.29296172702E+02  0.17638710853E+02 -0.11837385851E+02  0.36187201596E+02  0.00000000000E+00 0.  1.
         12    1    6    6    0    0  0.35594748491E+01 -0.33394122728E+02  0.44013168699E+02  0.55362408843E+02  0.00000000000E+00 0. -1.
         -5    1    3    3    0  503  0.14064153242E+03 -0.10975770500E+02  0.58950747805E+02  0.15296335786E+03  0.47000000000E+01 0.  1.
         13    1    4    4    0    0  0.26236777167E+02  0.60339999525E+02  0.23508882724E+02  0.69870963825E+02  0.00000000000E+00 0. -1.
        -14    1    4    4    0    0 -0.14389722910E+02 -0.17707070792E+02 -0.53874332999E+00  0.22823118232E+02  0.00000000000E+00 0.  1.
</event>
<event>
12    1  0.8462562E-002  0.1824788E+03  0.7818608E-02  0.1165434E+00
         21   -1    0    0  503  502  0.00000000000E+00  0.00000000000E+00  0.69165394605E+02  0.69165394605E+02  0.00000000000E+00 0. -1.
         21   -1    0    0  501  503 -0.00000000000E+00 -0.00000000000E+00 -0.50932744349E+03  0.50932744349E+03  0.00000000000E+00 0.  1.
          6    2    1    2  501    0  0.35497594781E+02 -0.50062540994E+02 -0.28786562794E+03  0.34081085374E+03  0.17181117841E+03 0.  0.
         24    2    3    3    0    0 -0.36403785293E+02 -0.21793595176E+02 -0.86558183520E+02  0.12513582288E+03  0.79790091235E+02 0.  0.
         -6    2    1    2    0  502 -0.35497594781E+02  0.50062540994E+02 -0.15229642094E+03  0.23768198436E+03  0.17184931950E+03 0.  0.
        -24    2    5    5    0    0 -0.79722128989E+02  0.63948097544E+02 -0.98166249997E+02  0.16626221460E+03  0.86957083287E+02 0.  0.
          5    1    3    3  501    0  0.71901380074E+02 -0.28268945818E+02 -0.20130744442E+03  0.21567503086E+03  0.47000000000E+01 0. -1.
        -11    1    4    4    0    0  0.28578049422E+01  0.45742395898E+00 -0.79388635727E+02  0.79441373153E+02  0.00000000000E+00 0.  1.
         12    1    4    4    0    0 -0.39261590235E+02 -0.22251019135E+02 -0.71695477921E+01  0.45694449727E+02  0.00000000000E+00 0. -1.
         -5    1    5    5    0  502  0.44224534207E+02 -0.13885556550E+02 -0.54130170945E+02  0.71419769764E+02  0.47000000000E+01 0.  1.
         13    1    6    6    0    0 -0.51980917015E+02 -0.89502942652E+01 -0.58462502528E+02  0.78740000654E+02  0.00000000000E+00 0. -1.
        -14    1    6    6    0    0 -0.27741211973E+02  0.72898391810E+02 -0.39703747470E+02  0.87522213942E+02  0.00000000000E+00 0.  1.
</event>
<event>
12    1  0.8462562E-002  0.2102387E+03  0.7818608E-02  0.1142345E+00
         21   -1    0    0  503  502  0.00000000000E+00  0.00000000000E+00  0.20591503827E+03  0.20591503827E+03  0.00000000000E+00 0.  1.
         21   -1    0    0  501  503 -0.00000000000E+00 -0.00000000000E+00 -0.41458361452E+03  0.41458361452E+03  0.00000000000E+00 0.  1.
          6    2    1    2  501    0  0.34708402777E+02 -0.11645435681E+03 -0.32301889357E+03  0.38541083731E+03  0.17156345028E+03 0.  0.
         24    2    3    3    0    0  0.34179996375E+00 -0.97189869999E+02 -0.32145681301E+03  0.34570297994E+03  0.82037065117E+02 0.  0.
         -6    2    1    2    0  502 -0.34708402777E+02  0.11645435681E+03  0.11435031732E+03  0.23508781548E+03  0.16560191869E+03 0.  0.
        -24    2    5    5    0    0 -0.57579706686E+01  0.63491022401E+02  0.13621729782E+03  0.17071781356E+03  0.80778434562E+02 0.  0.
          5    1    3    3  501    0  0.34366602813E+02 -0.19264486816E+02 -0.15620805583E+01  0.39707857370E+02  0.47000000000E+01 0. -1.
        -13    1    4    4    0    0 -0.40190678480E+02 -0.53772980377E+02 -0.15295315591E+03  0.16703739689E+03  0.00000000000E+00 0.  1.
         14    1    4    4    0    0  0.40532478443E+02 -0.43416889621E+02 -0.16850365710E+03  0.17866558306E+03  0.00000000000E+00 0. -1.
         -5    1    5    5    0  502 -0.28950432109E+02  0.52963334414E+02 -0.21866980498E+02  0.64370001923E+02  0.47000000000E+01 0.  1.
         11    1    6    6    0    0 -0.25264324699E+01  0.58959780376E+02  0.33518782842E+02  0.67868603686E+02  0.00000000000E+00 0. -1.
        -12    1    6    6    0    0 -0.32315381986E+01  0.45312420241E+01  0.10269851498E+03  0.10284920987E+03  0.00000000000E+00 0.  1.
</event>
<event>
12    1  0.8462562E-002  0.1826277E+03  0.7818608E-02  0.1165693E+00
         21   -1    0    0  501  502  0.00000000000E+00  0.00000000000E+00  0.18883845706E+04  0.18883845706E+04  0.00000000000E+00 0.  1.
         21   -1    0    0  502  503 -0.00000000000E+00 -0.00000000000E+00 -0.21383393068E+02  0.21383393068E+02  0.00000000000E+00 0.  1.
         -6    2    1    2    0  503  0.33791356665E+02 -0.44579129045E+02  0.52279292526E+03  0.55321030112E+03  0.17204662170E+03 0.  0.
        -24    2    3    3    0    0  0.20362365519E+02  0.33385441598E+02  0.14141222644E+03  0.16368220264E+03  0.72561918617E+02 0.  0.
          6    2    1    2  501    0 -0.33791356665E+02  0.44579129045E+02  0.13442082522E+04  0.13565576625E+04  0.17384968161E+03 0.  0.
         24    2    5    5    0    0 -0.38676118189E+02  0.72603708296E+02  0.58219502642E+03  0.59399915049E+03  0.84361136870E+02 0.  0.
          5    1    5    5  501    0  0.48847615242E+01 -0.28024579251E+02  0.76201322581E+03  0.76255851201E+03  0.47000000000E+01 0. -1.
        -11    1    6    6    0    0 -0.26085316322E+02 -0.11983813381E+02  0.21889849793E+03  0.22077275173E+03  0.00000000000E+00 0.  1.
         12    1    6    6    0    0 -0.12590801867E+02  0.84587521678E+02  0.36329652849E+03  0.37322639875E+03  0.00000000000E+00 0. -1.
         -5    1    3    3    0  503  0.13428991145E+02 -0.77964570643E+02  0.38138069882E+03  0.38952809848E+03  0.47000000000E+01 0.  1.
         13    1    4    4    0    0 -0.25114683361E+02  0.14907342648E+02  0.29667094475E+02  0.41630669941E+02  0.00000000000E+00 0. -1.
        -14    1    4    4    0    0  0.45477048880E+02  0.18478098950E+02  0.11174513197E+03  0.12205153270E+03  0.00000000000E+00 0.  1.
</event>
<event>
12    1  0.8462562E-002  0.1868062E+03  0.7818608E-02  0.1161709E+00
         21   -1    0    0  501  502  0.00000000000E+00  0.00000000000E+00  0.17136238140E+03  0.17136238140E+03  0.00000000000E+00 0.  1.
         21   -1    0    0  502  503 -0.00000000000E+00 -0.00000000000E+00 -0.28484814705E+03  0.28484814705E+03  0.00000000000E+00 0.  1.
         -6    2    1    2    0  503  0.42780842284E+01  0.71170508236E+02 -0.17986896486E+03  0.25932486525E+03  0.17266440852E+03 0.  0.
        -24    2    3    3    0    0 -0.58611424143E+02  0.59606478752E+02 -0.79342143111E+02  0.14009169482E+03  0.79638407404E+02 0.  0.
          6    2    1    2  501    0 -0.42780842284E+01 -0.71170508236E+02  0.66383199203E+02  0.19688566320E+03  0.17109556391E+03 0.  0.
         24    2    5    5    0    0 -0.58999939973E+02 -0.82940783549E+02  0.52518313428E+02  0.13902941086E+03  0.78808865911E+02 0.  0.
          5    1    5    5  501    0  0.54721855745E+02  0.11770275313E+02  0.13864885775E+02  0.57856252338E+02  0.47000000000E+01 0. -1.
        -11    1    6    6    0    0 -0.27711340929E+02 -0.44695560487E+02 -0.15620123481E+02  0.54859819548E+02  0.00000000000E+00 0.  1.
         12    1    6    6    0    0 -0.31288599044E+02 -0.38245223062E+02  0.68138436909E+02  0.84169591312E+02  0.00000000000E+00 0. -1.
         -5    1    3    3    0  503  0.62889508371E+02  0.11564029483E+02 -0.10052682175E+03  0.11923317043E+03  0.47000000000E+01 0.  1.
         11    1    4    4    0    0 -0.25201647581E+02  0.83062467373E+01  0.12803657371E+02  0.29462695358E+02  0.00000000000E+00 0. -1.
        -12    1    4    4    0    0 -0.33409776562E+02  0.51300232015E+02 -0.92145800482E+02  0.11062899946E+03  0.00000000000E+00 0.  1.
</event>
<event>
12    1  0.8462562E-002  0.1793069E+03  0.7818608E-02  0.1168585E+00
         21   -1    0    0  501  502  0.00000000000E+00  0.00000000000E+00  0.72803433055E+03  0.72803433055E+03  0.00000000000E+00 0. -1.
         21   -1    0    0  502  503 -0.00000000000E+00 -0.00000000000E+00 -0.95776759286E+02  0.95776759286E+02  0.00000000000E+00 0. -1.
         -6    2    1    2    0  503  0.16467558127E+02  0.48571380435E+02  0.13238197611E+02  0.17934547230E+03  0.17134523364E+03 0.  0.
        -24    2    3    3    0    0  0.36111575746E+02 -0.33465896494E+02  0.47174110291E+01  0.94429654942E+02  0.80440621795E+02 0.  0.
          6    2    1    2  501    0 -0.16467558127E+02 -0.48571380435E+02  0.61901937366E+03  0.64446561754E+03  0.17181556319E+03 0.  0.
         24    2    5    5    0    0  0.16189268287E+02  0.35831410440E+02  0.28667730998E+03  0.29998973056E+03  0.79145284145E+02 0.  0.
          5    1    5    5  501    0 -0.32656826414E+02 -0.84402790875E+02  0.33234206368E+03  0.34447588698E+03  0.47000000000E+01 0. -1.
        -11    1    6    6    0    0 -0.31595230894E+02  0.15118548002E+02  0.91238560480E+02  0.97730773185E+02  0.00000000000E+00 0.  1.
         12    1    6    6    0    0  0.47784499180E+02  0.20712862437E+02  0.19543874950E+03  0.20225895738E+03  0.00000000000E+00 0. -1.
         -5    1    3    3    0  503 -0.19644017619E+02  0.82037276929E+02  0.85207865817E+01  0.84915817361E+02  0.47000000000E+01 0.  1.
         11    1    4    4    0    0  0.30816784904E+02 -0.34974588619E+02 -0.32488249787E+02  0.56818856510E+02  0.00000000000E+00 0. -1.
        -12    1    4    4    0    0  0.52947908424E+01  0.15086921256E+01  0.37205660816E+02  0.37610798432E+02  0.00000000000E+00 0.  1.
</event>
<event>
12    1  0.8462562E-002  0.1906835E+03  0.7818608E-02  0.1159414E+00
         21   -1    0    0  501  502  0.00000000000E+00  0.00000000000E+00  0.11139933023E+03  0.11139933023E+03  0.00000000000E+00 0. -1.
         21   -1    0    0  502  503 -0.00000000000E+00 -0.00000000000E+00 -0.45918426172E+03  0.45918426172E+03  0.00000000000E+00 0.  1.
         -6    2    1    2    0  503 -0.15642091466E+02  0.63001764806E+02 -0.33604302166E+03  0.38637428825E+03  0.17929383932E+03 0.  0.
        -24    2    3    3    0    0  0.22497865690E+02  0.10204781935E+03 -0.19405202449E+03  0.23418104272E+03  0.79149612543E+02 0.  0.
          6    2    1    2  501    0  0.15642091466E+02 -0.63001764806E+02 -0.11741909825E+02  0.18420930370E+03  0.17199214438E+03 0.  0.
         24    2    5    5    0    0  0.40722289473E+02 -0.36580525743E+02 -0.67216505514E+02  0.11767646239E+03  0.79581728202E+02 0.  0.
          5    1    5    5  501    0 -0.25080198007E+02 -0.26421239064E+02  0.55474595689E+02  0.66532841309E+02  0.47000000000E+01 0. -1.
        -13    1    6    6    0    0  0.55867365646E+01 -0.54778774745E+02 -0.27253745563E+02  0.61438525659E+02  0.00000000000E+00 0.  1.
         14    1    6    6    0    0  0.35135552908E+02  0.18198249002E+02 -0.39962759951E+02  0.56237936732E+02  0.00000000000E+00 0. -1.
         -5    1    3    3    0  503 -0.38139957156E+02 -0.39046054544E+02 -0.14199099718E+03  0.15219324553E+03  0.47000000000E+01 0.  1.
         13    1    4    4    0    0  0.73977791711E+01  0.24327137997E+01  0.62376874258E+01  0.99776739532E+01  0.00000000000E+00 0. -1.
        -14    1    4    4    0    0  0.15100086519E+02  0.99615105551E+02 -0.20028971191E+03  0.22420336877E+03  0.00000000000E+00 0.  1.
</event>
<event>
12    1  0.8462562E-002  0.1935865E+03  0.7818608E-02  0.1155308E+00
         21   -1    0    0  503  502  0.00000000000E+00  0.00000000000E+00  0.93352517313E+02  0.93352517313E+02  0.00000000000E+00 0.  1.
         21   -1    0    0  501  503 -0.00000000000E+00 -0.00000000000E+00 -0.42303219506E+03  0.42303219506E+03  0.00000000000E+00 0.  1.
          6    2    1    2  501    0  0.84986504328E+02 -0.25515179931E+02 -0.22362373538E+03  0.29565049972E+03  0.17183687797E+03 0.  0.
         24    2    3    3    0    0 -0.17350201743E+01 -0.47986061846E+02 -0.16925586184E+03  0.19075283997E+03  0.73711781718E+02 0.  0.
         -6    2    1    2    0  502 -0.84986504328E+02  0.25515179931E+02 -0.10605594236E+03  0.22073421265E+03  0.17205231588E+03 0.  0.
        -24    2    5    5    0    0 -0.11149124664E+03  0.23719147761E+02 -0.30063063066E+02  0.14009467645E+03  0.75695670690E+02 0.  0.
          5    1    3    3  501    0  0.86721524503E+02  0.22470881915E+02 -0.54367873547E+02  0.10489765975E+03  0.47000000000E+01 0. -1.
        -11    1    4    4    0    0  0.12787645526E+02 -0.21202279523E+02 -0.70977688333E+01  0.25757306876E+02  0.00000000000E+00 0.  1.
         12    1    4    4    0    0 -0.14522665700E+02 -0.26783782323E+02 -0.16215809300E+03  0.16499553309E+03  0.00000000000E+00 0. -1.
         -5    1    5    5    0  502  0.26504742307E+02  0.17960321694E+01 -0.75992879292E+02  0.80639536205E+02  0.47000000000E+01 0.  1.
         13    1    6    6    0    0  0.37977056799E+01 -0.10672288323E+02 -0.15073086089E+02  0.18855191082E+02  0.00000000000E+00 0. -1.
        -14    1    6    6    0    0 -0.11528895232E+03  0.34391436085E+02 -0.14989976977E+02  0.12123948537E+03  0.00000000000E+00 0.  1.
</event>
<event>
12    1  0.8462562E-002  0.1766819E+03  0.7818608E-02  0.1174607E+00
         21   -1    0    0  501  502  0.00000000000E+00  0.00000000000E+00  0.37788447019E+02  0.37788447019E+02  0.00000000000E+00 0. -1.
         21   -1    0    0  502  503 -0.00000000000E+00 -0.00000000000E+00 -0.86634129725E+03  0.86634129725E+03  0.00000000000E+00 0. -1.
         -6    2    1    2    0  503  0.36111307401E+02 -0.80756437664E+01 -0.55543517891E+03  0.57884565397E+03  0.15869722934E+03 0.  0.
        -24    2    3    3    0    0  0.76775612923E+02 -0.10401618814E+02 -0.48147093379E+03  0.49427736523E+03  0.80580179197E+02 0.  0.
          6    2    1    2  501    0 -0.36111307401E+02  0.80756437664E+01 -0.27311767132E+03  0.32528409030E+03  0.17276352182E+03 0.  0.
         24    2    5    5    0    0  0.24190480972E+02 -0.41579434380E+02 -0.11018787323E+03  0.14453525470E+03  0.80218724191E+02 0.  0.
          5    1    5    5  501    0 -0.60301788373E+02  0.49655078147E+02 -0.16292979809E+03  0.18074883560E+03  0.47000000000E+01 0. -1.
        -11    1    6    6    0    0  0.12609020535E+01  0.23302086578E+02 -0.17872092151E+02  0.29393686239E+02  0.00000000000E+00 0.  1.
         12    1    6    6    0    0  0.22929578919E+02 -0.64881520958E+02 -0.92315781077E+02  0.11514156846E+03  0.00000000000E+00 0. -1.
         -5    1    3    3    0  503 -0.40664305522E+02  0.23259750477E+01 -0.73964245120E+02  0.84568288735E+02  0.47000000000E+01 0.  1.
         11    1    4    4    0    0  0.66400856602E+02 -0.22821886570E+02 -0.19337912085E+03  0.20573137011E+03  0.00000000000E+00 0. -1.
        -12    1    4    4    0    0  0.10374756322E+02  0.12420267756E+02 -0.28809181294E+03  0.28854599513E+03  0.00000000000E+00 0.  1.
</event>
<event>
12    1  0.8462562E-002  0.1737623E+03  0.7818608E-02  0.1174375E+00
         21   -1    0    0  503  502  0.00000000000E+00  0.00000000000E+00  0.35500698245E+02  0.35500698245E+02  0.00000000000E+00 0. -1.
         21   -1    0    0  501  503 -0.00000000000E+00 -0.00000000000E+00 -0.12355140627E+04  0.12355140627E+04  0.00000000000E+00 0. -1.
          6    2    1    2  501    0  0.20815729308E+02 -0.75725513298E+01 -0.95640274274E+03  0.97178327341E+03  0.17078022731E+03 0.  0.
         24    2    3    3    0    0  0.41198066334E+02 -0.60257974816E+02 -0.44396634360E+03  0.45622110774E+03  0.75520068177E+02 0.  0.
         -6    2    1    2    0  502 -0.20815729308E+02  0.75725513298E+01 -0.24361062166E+03  0.29923148748E+03  0.17234474170E+03 0.  0.
        -24    2    5    5    0    0 -0.69484271765E+02  0.31608972961E+02 -0.20050323225E+03  0.22975693378E+03  0.82216247081E+02 0.  0.
          5    1    3    3  501    0 -0.20382337025E+02  0.52685423487E+02 -0.51243639914E+03  0.51556216567E+03  0.47000000000E+01 0. -1.
        -13    1    4    4    0    0  0.21446146873E+02 -0.51176439172E+02 -0.12802456818E+03  0.13953227297E+03  0.00000000000E+00 0.  1.
         14    1    4    4    0    0  0.19751919460E+02 -0.90815356448E+01 -0.31594177543E+03  0.31668883478E+03  0.00000000000E+00 0. -1.
         -5    1    5    5    0  502  0.48668542456E+02 -0.24036421631E+02 -0.43107389413E+02  0.69474553699E+02  0.47000000000E+01 0.  1.
         13    1    6    6    0    0 -0.57433508788E+02 -0.18743972169E+02 -0.10753756598E+03  0.12334614920E+03  0.00000000000E+00 0. -1.
        -14    1    6    6    0    0 -0.12050762977E+02  0.50352945129E+02 -0.92965666266E+02  0.10641078458E+03  0.00000000000E+00 0.  1.
</event>
<event>
12    1  0.8462562E-002  0.2425826E+03  0.7818608E-02  0.1118186E+00
         21   -1    0    0  503  502  0.00000000000E+00  0.00000000000E+00  0.18331860435E+03  0.18331860435E+03  0.00000000000E+00 0.  1.
         21   -1    0    0  501  503 -0.00000000000E+00 -0.00000000000E+00 -0.42206534896E+03  0.42206534896E+03  0.00000000000E+00 0. -1.
          6    2    1    2  501    0 -0.62834548763E+02  0.15760013452E+03 -0.26820092951E+03  0.36163246360E+03  0.17337911413E+03 0.  0.
         24    2    3    3    0    0 -0.10559380088E+03  0.77608351433E+02 -0.17914587844E+03  0.23443210541E+03  0.75445737368E+02 0.  0.
         -6    2    1    2    0  502  0.62834548763E+02 -0.15760013452E+03  0.29454184896E+02  0.24375148972E+03  0.17251451189E+03 0.  0.
        -24    2    5    5    0    0 -0.30978493496E+02 -0.47558170973E+02  0.25617303749E+02  0.99020939052E+02  0.76989956708E+02 0.  0.
          5    1    3    3  501    0  0.42759252113E+02  0.79991783085E+02 -0.89055051069E+02  0.12720035819E+03  0.47000000000E+01 0. -1.
        -11    1    4    4    0    0 -0.47504985625E+02  0.14394641168E+02 -0.12088506293E+03  0.13067948497E+03  0.00000000000E+00 0.  1.
         12    1    4    4    0    0 -0.58088815251E+02  0.63213710265E+02 -0.58260815516E+02  0.10375262044E+03  0.00000000000E+00 0. -1.
         -5    1    5    5    0  502  0.93813042259E+02 -0.11004196355E+03  0.38368811470E+01  0.14473055066E+03  0.47000000000E+01 0.  1.
         13    1    6    6    0    0 -0.29169742499E+02 -0.52868447873E+02 -0.11512804122E+02  0.61469434003E+02  0.00000000000E+00 0. -1.
        -14    1    6    6    0    0 -0.18087509970E+01  0.53102769000E+01  0.37130107871E+02  0.37551505049E+02  0.00000000000E+00 0.  1.
</event>
<event>
12    1  0.8462562E-002  0.2289069E+03  0.7818608E-02  0.1127475E+00
         21   -1    0    0  503  502  0.00000000000E+00  0.00000000000E+00  0.26345882965E+03  0.26345882965E+03  0.00000000000E+00 0. -1.
         21   -1    0    0  501  503 -0.00000000000E+00 -0.00000000000E+00 -0.19867984064E+03  0.19867984064E+03  0.00000000000E+00 0.  1.
          6    2    1    2  501    0 -0.28207677094E+02  0.14857027870E+03  0.27086906393E+02  0.23050391973E+03  0.17184165895E+03 0.  0.
         24    2    3    3    0    0 -0.97797525736E+00  0.12282186457E+03 -0.42625668649E+02  0.15121728396E+03  0.77224040869E+02 0.  0.
         -6    2    1    2    0  502  0.28207677094E+02 -0.14857027870E+03  0.37692082609E+02  0.23163475056E+03  0.17136266751E+03 0.  0.
        -24    2    5    5    0    0  0.32657741326E+02 -0.95244920512E+02  0.89042957188E+02  0.15732190364E+03  0.81752126507E+02 0.  0.
          5    1    3    3  501    0 -0.27229701837E+02  0.25748414127E+02  0.69712575042E+02  0.79286635766E+02  0.47000000000E+01 0. -1.
        -13    1    4    4    0    0  0.36169966778E+02  0.68502916761E+02 -0.34880976380E+02  0.84956451284E+02  0.00000000000E+00 0.  1.
         14    1    4    4    0    0 -0.37147942035E+02  0.54318947813E+02 -0.77446922688E+01  0.66260832678E+02  0.00000000000E+00 0. -1.
         -5    1    5    5    0  502 -0.44500642314E+01 -0.53325358189E+02 -0.51350874579E+02  0.74312846922E+02  0.47000000000E+01 0.  1.
         13    1    6    6    0    0  0.15006678005E+02  0.25233805183E+01  0.47073154831E+02  0.49471706456E+02  0.00000000000E+00 0. -1.
        -14    1    6    6    0    0  0.17651063320E+02 -0.97768301031E+02  0.41969802357E+02  0.10785019718E+03  0.00000000000E+00 0.  1.
</event>
<event>
12    1  0.8462562E-002  0.1985289E+03  0.7818608E-02  0.1151171E+00
         21   -1    0    0  501  502  0.00000000000E+00  0.00000000000E+00  0.16842996579E+03  0.16842996579E+03  0.00000000000E+00 0. -1.
         21   -1    0    0  502  503 -0.00000000000E+00 -0.00000000000E+00 -0.23395513102E+03  0.23395513102E+03  0.00000000000E+00 0. -1.
         -6    2    1    2    0  503 -0.13741377455E+02 -0.95543111738E+02 -0.45630576003E+02  0.20286190155E+03  0.17249199975E+03 0.  0.
        -24    2    3    3    0    0  0.34895123779E+02 -0.37663549205E+02 -0.75653231506E+02  0.12138182512E+03  0.79836855088E+02 0.  0.
          6    2    1    2  501    0  0.13741377455E+02  0.95543111738E+02 -0.19894589218E+02  0.19952319526E+03  0.17348313783E+03 0.  0.
         24    2    5    5    0    0  0.20924321743E+02 -0.11544999824E+02  0.21758333136E+02  0.84299437869E+02  0.77857921260E+02 0.  0.
          5    1    5    5  501    0 -0.71829442880E+01  0.10708811156E+03 -0.41652922354E+02  0.11522375739E+03  0.47000000000E+01 0. -1.
        -13    1    6    6    0    0 -0.22932611572E+02  0.42782067154E+00  0.30340490563E+02  0.38034629900E+02  0.00000000000E+00 0.  1.
         14    1    6    6    0    0  0.43856933315E+02 -0.11972820495E+02 -0.85821574263E+01  0.46264807970E+02  0.00000000000E+00 0. -1.
         -5    1    3    3    0  503 -0.48636501234E+02 -0.57879562533E+02  0.30022655503E+02  0.81480076428E+02  0.47000000000E+01 0.  1.
         13    1    4    4    0    0 -0.21551266050E+02 -0.31403562683E+02 -0.28605852188E+02  0.47633345431E+02  0.00000000000E+00 0. -1.
        -14    1    4    4    0    0  0.56446389829E+02 -0.62599865218E+01 -0.47047379318E+02  0.73748479691E+02  0.00000000000E+00 0.  1.
</event>
<event>
12    1  0.8462562E-002  0.1942190E+03  0.7818608E-02  0.1154891E+00
         21   -1    0    0  501  502  0.00000000000E+00  0.00000000000E+00  0.18062524645E+04  0.18062524645E+04  0.00000000000E+00 0.  1.
         21   -1    0    0  502  503 -0.00000000000E+00 -0.00000000000E+00 -0.49594151530E+02  0.49594151530E+02  0.00000000000E+00 0.  1.
         -6    2    1    2    0  503 -0.86881426284E+01 -0.90434540499E+02  0.17200451072E+03  0.25943508218E+03  0.17165989695E+03 0.  0.
        -24    2    3    3    0    0 -0.33836086222E+02 -0.26024635419E+01  0.13548054722E+03  0.16093136286E+03  0.79951681228E+02 0.  0.
          6    2    1    2  501    0  0.86881426284E+01  0.90434540499E+02  0.15846538022E+04  0.15964115338E+04  0.17072850519E+03 0.  0.
         24    2    5    5    0    0 -0.18714062653E+02  0.12281567113E+03  0.11015588608E+04  0.11114350076E+04  0.80137053142E+02 0.  0.
          5    1    5    5  501    0  0.27402205281E+02 -0.32381130632E+02  0.48309494150E+03  0.48497652621E+03  0.47000000000E+01 0. -1.
        -11    1    6    6    0    0 -0.49333787536E+02  0.78562404792E+02  0.76439431796E+03  0.77000295283E+03  0.00000000000E+00 0.  1.
         12    1    6    6    0    0  0.30619724883E+02  0.44253266340E+02  0.33716454279E+03  0.34143205481E+03  0.00000000000E+00 0. -1.
         -5    1    3    3    0  503  0.25147943593E+02 -0.87832076957E+02  0.36523963503E+02  0.98503719319E+02  0.47000000000E+01 0.  1.
         13    1    4    4    0    0  0.15677707483E+02 -0.24486931602E+02  0.26930320413E+02  0.39631332159E+02  0.00000000000E+00 0. -1.
        -14    1    4    4    0    0 -0.49513793705E+02  0.21884468060E+02  0.10855022680E+03  0.12130003070E+03  0.00000000000E+00 0.  1.
</event>
<event>
12    1  0.8462562E-002  0.2113666E+03  0.7818608E-02  0.1141083E+00
         21   -1    0    0  501  502  0.00000000000E+00  0.00000000000E+00  0.41833016693E+02  0.41833016693E+02  0.00000000000E+00 0.  1.
         21   -1    0    0  502  503 -0.00000000000E+00 -0.00000000000E+00 -0.15805642258E+04  0.15805642258E+04  0.00000000000E+00 0.  1.
         -6    2    1    2    0  503 -0.21382149782E+02 -0.12141036355E+03 -0.12417730050E+04  0.12596332945E+04  0.17169207260E+03 0.  0.
        -24    2    3    3    0    0  0.16742709509E+02 -0.14379982987E+03 -0.10281980532E+04  0.10414793508E+04  0.80804035146E+02 0.  0.
          6    2    1    2  501    0  0.21382149782E+02  0.12141036355E+03 -0.29695820409E+03  0.36276394805E+03  0.16797569561E+03 0.  0.
         24    2    5    5    0    0  0.49255910107E+02  0.14485231920E+02 -0.11292470207E+03  0.14805402709E+03  0.80821036719E+02 0.  0.
          5    1    5    5  501    0 -0.27873760326E+02  0.10692513163E+03 -0.18403350203E+03  0.21470992096E+03  0.47000000000E+01 0. -1.
        -11    1    6    6    0    0  0.55206048749E+02  0.38933700257E+02 -0.64092537219E+02  0.93120320883E+02  0.00000000000E+00 0.  1.
         12    1    6    6    0    0 -0.59501386415E+01 -0.24448468338E+02 -0.48832164847E+02  0.54933706206E+02  0.00000000000E+00 0. -1.
         -5    1    3    3    0  503 -0.38124859291E+02  0.22389466314E+02 -0.21357495183E+03  0.21815394369E+03  0.47000000000E+01 0.  1.
         11    1    4    4    0    0 -0.83437629258E+01 -0.15915299180E+02 -0.31240201575E+02  0.36039774170E+02  0.00000000000E+00 0. -1.
        -12    1    4    4    0    0  0.25086472435E+02 -0.12788453068E+03 -0.99695785164E+03  0.10054395766E+04  0.00000000000E+00 0.  1.
</event>
<event>
12    1  0.8462562E-002  0.1769130E+03  0.7818608E-02  0.1172448E+00
         21   -1    0    0  503  502  0.00000000000E+00  0.00000000000E+00  0.19846597124E+03  0.19846597124E+03  0.00000000000E+00 0. -1.
         21   -1    0    0  501  503 -0.00000000000E+00 -0.00000000000E+00 -0.15896343764E+03  0.15896343764E+03  0.00000000000E+00 0. -1.
          6    2    1    2  501    0  0.23758777406E+02  0.34965903283E+02 -0.17245475089E+02  0.17775159450E+03  0.17178803521E+03 0.  0.
         24    2    3    3    0    0 -0.45607859650E+02 -0.16523096833E+01 -0.32574534465E+02  0.97691030434E+02  0.79997688358E+02 0.  0.
         -6    2    1    2    0  502 -0.23758777406E+02 -0.34965903283E+02  0.56748008692E+02  0.17967781438E+03  0.16515655178E+03 0.  0.
        -24    2    5    5    0    0  0.99330873740E+00 -0.27292065921E+02  0.98009816986E+02  0.13072701897E+03  0.82084016335E+02 0.  0.
          5    1    3    3  501    0  0.69366637056E+02  0.36618212966E+02  0.15329059376E+02  0.80060564066E+02  0.47000000000E+01 0. -1.
        -11    1    4    4    0    0 -0.49319343007E+02  0.31238193245E+02 -0.15283041093E+02  0.60347275473E+02  0.00000000000E+00 0.  1.
         12    1    4    4    0    0  0.37114833577E+01 -0.32890502929E+02 -0.17291493371E+02  0.37343754961E+02  0.00000000000E+00 0. -1.
         -5    1    5    5    0  502 -0.24752086144E+02 -0.76738373621E+01 -0.41261808294E+02  0.48950795418E+02  0.47000000000E+01 0.  1.
         11    1    6    6    0    0 -0.23028093269E+02  0.13084817604E+02  0.56171012255E+01  0.27075031995E+02  0.00000000000E+00 0. -1.
        -12    1    6    6    0    0  0.24021402006E+02 -0.40376883524E+02  0.92392715761E+02  0.10365198697E+03  0.00000000000E+00 0.  1.
</event>
<event>
12    1  0.8462562E-002  0.2324834E+03  0.7818608E-02  0.1127309E+00
         21   -1    0    0  501  502  0.00000000000E+00  0.00000000000E+00  0.24179598173E+03  0.24179598173E+03  0.00000000000E+00 0.  1.
         21   -1    0    0  502  503 -0.00000000000E+00 -0.00000000000E+00 -0.21082057616E+03  0.21082057616E+03  0.00000000000E+00 0. -1.
         -6    2    1    2    0  503 -0.15660401359E+03 -0.58310027640E+01  0.13326709436E+02  0.21946425393E+03  0.15306253591E+03 0.  0.
        -24    2    3    3    0    0 -0.47466613686E+02 -0.41977756361E+02 -0.10928765190E+02  0.10187183111E+03  0.79014053314E+02 0.  0.
          6    2    1    2  501    0  0.15660401359E+03  0.58310027640E+01  0.17648696132E+02  0.23315230397E+03  0.17172566117E+03 0.  0.
         24    2    5    5    0    0  0.73602025031E+02  0.23590685338E+02  0.71768856495E+02  0.13237622453E+03  0.79993234301E+02 0.  0.
          5    1    5    5  501    0  0.83001988563E+02 -0.17759682574E+02 -0.54120160363E+02  0.10077607944E+03  0.47000000000E+01 0. -1.
        -13    1    6    6    0    0  0.73535918461E+01 -0.69104735944E+01  0.57097690121E+02  0.57982550612E+02  0.00000000000E+00 0.  1.
         14    1    6    6    0    0  0.66248433185E+02  0.30501158932E+02  0.14671166374E+02  0.74393673915E+02  0.00000000000E+00 0. -1.
         -5    1    3    3    0  503 -0.10913739991E+03  0.36146753597E+02  0.24255474626E+02  0.11759242282E+03  0.47000000000E+01 0.  1.
         13    1    4    4    0    0 -0.11422891573E+02 -0.24967691875E+02 -0.42793142357E+02  0.50844086403E+02  0.00000000000E+00 0. -1.
        -14    1    4    4    0    0 -0.36043722113E+02 -0.17010064486E+02  0.31864377167E+02  0.51027744706E+02  0.00000000000E+00 0.  1.
</event>
<event>
12    1  0.8462562E-002  0.1757862E+03  0.7818608E-02  0.1175194E+00
         21   -1    0    0  503  502  0.00000000000E+00  0.00000000000E+00  0.62389323255E+02  0.62389323255E+02  0.00000000000E+00 0. -1.
         21   -1    0    0  501  503 -0.00000000000E+00 -0.00000000000E+00 -0.59645753858E+03  0.59645753858E+03  0.00000000000E+00 0. -1.
          6    2    1    2  501    0  0.28370327196E+02 -0.76027795916E+01 -0.11754178915E+03  0.21146359520E+03  0.17331503736E+03 0.  0.
         24    2    3    3    0    0 -0.38643155380E+02 -0.25860257277E+01 -0.10904003110E+03  0.14356407712E+03  0.84976084102E+02 0.  0.
         -6    2    1    2    0  502 -0.28370327196E+02  0.76027795916E+01 -0.41652642618E+03  0.44738326664E+03  0.16060773903E+03 0.  0.
        -24    2    5    5    0    0 -0.25403817018E+02  0.32373244020E+02 -0.41184738677E+03  0.42156932659E+03  0.80056519348E+02 0.  0.
          5    1    3    3  501    0  0.67013482576E+02 -0.50167538639E+01 -0.85017580492E+01  0.67899518086E+02  0.47000000000E+01 0. -1.
        -13    1    4    4    0    0  0.99994625646E+01  0.30756829690E+02 -0.24907419618E+02  0.40820967359E+02  0.00000000000E+00 0.  1.
         14    1    4    4    0    0 -0.48642617945E+02 -0.33342855417E+02 -0.84132611480E+02  0.10274310976E+03  0.00000000000E+00 0. -1.
         -5    1    5    5    0  502 -0.29665101784E+01 -0.24770464428E+02 -0.46790394108E+01  0.25813940041E+02  0.47000000000E+01 0.  1.
         11    1    6    6    0    0 -0.16330237151E+02  0.29358708546E+02 -0.54020073700E+02  0.63614296943E+02  0.00000000000E+00 0. -1.
        -12    1    6    6    0    0 -0.90735798667E+01  0.30145354736E+01 -0.35782731307E+03  0.35795502965E+03  0.00000000000E+00 0.  1.
</event>
<event>
12    1  0.8462562E-002  0.1984416E+03  0.7818608E-02  0.1151684E+00
         21   -1    0    0  501  502  0.00000000000E+00  0.00000000000E+00  0.27350183180E+02  0.27350183180E+02  0.00000000000E+00 0.  1.
         21   -1    0    0  502  503 -0.00000000000E+00 -0.00000000000E+00 -0.16436345363E+04  0.16436345363E+04  0.00000000000E+00 0.  1.
         -6    2    1    2    0  503 -0.23232789145E+02 -0.92573474573E+02 -0.11119872363E+04  0.11290486935E+04  0.17066261382E+03 0.  0.
        -24    2    3    3    0    0  0.27323310380E+02 -0.66736840582E+02 -0.39421925668E+03  0.40902340677E+03  0.81798262641E+02 0.  0.
          6    2    1    2  501    0  0.23232789145E+02  0.92573474573E+02 -0.50429711676E+03  0.54193602599E+03  0.17398121625E+03 0.  0.
         24    2    5    5    0    0  0.74544828961E+02  0.33054140228E+02 -0.37156253672E+03  0.38761157774E+03  0.74394279279E+02 0.  0.
          5    1    5    5  501    0 -0.51312039816E+02  0.59519334345E+02 -0.13273458004E+03  0.15432444825E+03  0.47000000000E+01 0. -1.
        -11    1    6    6    0    0  0.25494471298E+02  0.24797272990E+02 -0.45368675094E+02  0.57647111760E+02  0.00000000000E+00 0.  1.
         12    1    6    6    0    0  0.49050357663E+02  0.82568672379E+01 -0.32619386163E+03  0.32996446598E+03  0.00000000000E+00 0. -1.
         -5    1    3    3    0  503 -0.50556099525E+02 -0.25836633991E+02 -0.71776797967E+03  0.72002528670E+03  0.47000000000E+01 0.  1.
         13    1    4    4    0    0  0.53670313337E+02 -0.24365153770E+02 -0.22607878281E+03  0.23363599742E+03  0.00000000000E+00 0. -1.
        -14    1    4    4    0    0 -0.26347002957E+02 -0.42371686811E+02 -0.16814047386E+03  0.17538740935E+03  0.00000000000E+00 0.  1.
</event>
<event>
12    1  0.8462562E-002  0.1937615E+03  0.7818608E-02  0.1155177E+00
         21   -1    0    0  501  502  0.00000000000E+00  0.00000000000E+00  0.50065863786E+02  0.50065863786E+02  0.00000000000E+00 0.  1.
         21   -1    0    0  502  503 -0.00000000000E+00 -0.00000000000E+00 -0.93436861657E+03  0.93436861657E+03  0.00000000000E+00 0. -1.
         -6    2    1    2    0  503  0.87442060349E+02  0.10410855143E+02 -0.22249142759E+03  0.29484202699E+03  0.17226400003E+03 0.  0.
        -24    2    3    3    0    0  0.24812195188E+02 -0.11331423850E+02 -0.24968913503E+02  0.86437467833E+02  0.78127735199E+02 0.  0.
          6    2    1    2  501    0 -0.87442060349E+02 -0.10410855143E+02 -0.66181132520E+03  0.68959245337E+03  0.17259496448E+03 0.  0.
         24    2    5    5    0    0  0.15926864369E+02 -0.15058034057E+01 -0.19595147065E+03  0.21229597463E+03  0.80104116871E+02 0.  0.
          5    1    5    5  501    0 -0.10336892472E+03 -0.89050517371E+01 -0.46585985454E+03  0.47729647874E+03  0.47000000000E+01 0. -1.
        -13    1    6    6    0    0  0.12504460762E+02 -0.92890883759E+01  0.57294429595E+00  0.15587718466E+02  0.00000000000E+00 0.  1.
         14    1    6    6    0    0  0.34224036076E+01  0.77832849703E+01 -0.19652441495E+03  0.19670825616E+03  0.00000000000E+00 0. -1.
         -5    1    3    3    0  503  0.62629865160E+02  0.21742278992E+02 -0.19752251408E+03  0.20840455915E+03  0.47000000000E+01 0.  1.
         11    1    4    4    0    0 -0.21199991323E+02 -0.11855195519E+02 -0.31696489467E+02  0.39933103278E+02  0.00000000000E+00 0. -1.
        -12    1    4    4    0    0  0.46012186511E+02  0.52377166897E+00  0.67275759643E+01  0.46504364555E+02  0.00000000000E+00 0.  1.
</event>
<event>
12    1  0.8462562E-002  0.1740010E+03  0.7818608E-02  0.1173894E+00
         21   -1    0    0  501  502  0.00000000000E+00  0.00000000000E+00  0.11687452504E+03  0.11687452504E+03  0.00000000000E+00 0.  1.
         21   -1    0    0  502  503 -0.00000000000E+00 -0.00000000000E+00 -0.50665075135E+03  0.50665075135E+03  0.00000000000E+00 0.  1.
         -6    2    1    2    0  503 -0.56650660936E+01 -0.10823473278E+02 -0.41305879265E+03  0.44797353474E+03  0.17295514186E+03 0.  0.
        -24    2    3    3    0    0 -0.12836014966E+02 -0.52478867127E+01 -0.42479835073E+03  0.43240379174E+03  0.79543049569E+02 0.  0.
          6    2    1    2  501    0  0.56650660936E+01  0.10823473278E+02  0.23282566339E+02  0.17555174165E+03  0.17357158625E+03 0.  0.
         24    2    5    5    0    0  0.36250325596E+02 -0.28185718671E+02  0.63791865476E+02  0.11136242422E+03  0.78890218560E+02 0.  0.
          5    1    5    5  501    0 -0.30585259502E+02  0.39009191949E+02 -0.40509299137E+02  0.64189317428E+02  0.47000000000E+01 0. -1.
        -11    1    6    6    0    0  0.56418902719E+02 -0.34458874292E+01  0.53492008811E+02  0.77822629940E+02  0.00000000000E+00 0.  1.
         12    1    6    6    0    0 -0.20168577123E+02 -0.24739831241E+02  0.10299856665E+02  0.33539794280E+02  0.00000000000E+00 0. -1.
         -5    1    3    3    0  503  0.71709488724E+01 -0.55755865655E+01  0.11739558079E+02  0.15569743002E+02  0.47000000000E+01 0.  1.
         13    1    4    4    0    0 -0.40018891265E+01 -0.18074595199E+02 -0.19800426356E+02  0.27106511986E+02  0.00000000000E+00 0. -1.
        -14    1    4    4    0    0 -0.88341258395E+01  0.12826708486E+02 -0.40499792437E+03  0.40529727975E+03  0.00000000000E+00 0.  1.
</event>
<event>
12    1  0.8462562E-002  0.2553407E+03  0.7818608E-02  0.1109987E+00
         21   -1    0    0  503  502  0.00000000000E+00  0.00000000000E+00  0.13661567989E+03  0.13661567989E+03  0.00000000000E+00 0.  1.
         21   -1    0    0  501  503 -0.00000000000E+00 -0.00000000000E+00 -0.72593033938E+03  0.72593033938E+03  0.00000000000E+00 0. -1.
          6    2    1    2  501    0 -0.17765876549E+03 -0.63580863003E+02 -0.54718269816E+03  0.60382762272E+03  0.17202828169E+03 0.  0.
         24    2    3    3    0    0 -0.18702828658E+03 -0.81251187602E+02 -0.53864340069E+03  0.58157817558E+03  0.80716328769E+02 0.  0.
         -6    2    1    2    0  502  0.17765876549E+03  0.63580863003E+02 -0.42131961322E+02  0.25871839655E+03  0.17191551254E+03 0.  0.
        -24    2    5    5    0    0  0.32593431511E+02  0.63137140379E+02 -0.40253690604E+02  0.11356411341E+03  0.78916525354E+02 0.  0.
          5    1    3    3  501    0  0.93695210924E+01  0.17670324599E+02 -0.85392974655E+01  0.22249447142E+02  0.47000000000E+01 0. -1.
        -11    1    4    4    0    0 -0.15740798987E+03 -0.90451484087E+02 -0.39643814764E+03  0.43602975948E+03  0.00000000000E+00 0.  1.
         12    1    4    4    0    0 -0.29620296716E+02  0.92002964854E+01 -0.14220525305E+03  0.14554841610E+03  0.00000000000E+00 0. -1.
         -5    1    5    5    0  502  0.14506533398E+03  0.44372262384E+00 -0.18782707179E+01  0.14515428314E+03  0.47000000000E+01 0.  1.
         13    1    6    6    0    0 -0.82849029445E+00  0.20464033079E+02 -0.53907826823E+02  0.57667294360E+02  0.00000000000E+00 0. -1.
        -14    1    6    6    0    0  0.33421921805E+02  0.42673107300E+02  0.13654136219E+02  0.55896819048E+02  0.00000000000E+00 0.  1.
</event>
<event>
12    1  0.8462562E-002  0.1860580E+03  0.7818608E-02  0.1162654E+00
         21   -1    0    0  503  502  0.00000000000E+00  0.00000000000E+00  0.10336268068E+03  0.10336268068E+03  0.00000000000E+00 0.  1.
         21   -1    0    0  501  503 -0.00000000000E+00 -0.00000000000E+00 -0.49287336871E+03  0.49287336871E+03  0.00000000000E+00 0.  1.
          6    2    1    2  501    0 -0.66162454790E+02 -0.26833932320E+02 -0.36503139235E+03  0.40857462588E+03  0.16907920382E+03 0.  0.
         24    2    3    3    0    0 -0.10421011212E+03 -0.71921065619E+01 -0.20593980567E+03  0.24375457704E+03  0.78061619278E+02 0.  0.
         -6    2    1    2    0  502  0.66162454790E+02  0.26833932320E+02 -0.24479295680E+02  0.18766142351E+03  0.17181397967E+03 0.  0.
        -24    2    5    5    0    0 -0.13042362422E+02  0.15930070037E+02 -0.59569213744E+02  0.10022178930E+03  0.77923330746E+02 0.  0.
          5    1    3    3  501    0  0.38047657329E+02 -0.19641825758E+02 -0.15909158669E+03  0.16482004885E+03  0.47000000000E+01 0. -1.
        -11    1    4    4    0    0 -0.74945850329E+02  0.20928313042E+02 -0.80705868185E+02  0.11210848285E+03  0.00000000000E+00 0.  1.
         12    1    4    4    0    0 -0.29264261790E+02 -0.28120419604E+02 -0.12523393748E+03  0.13164609418E+03  0.00000000000E+00 0. -1.
         -5    1    5    5    0  502  0.79204817211E+02  0.10903862283E+02  0.35089918064E+02  0.87439634216E+02  0.47000000000E+01 0.  1.
         13    1    6    6    0    0 -0.33089640893E+02  0.46769118060E+01  0.30095257909E+01  0.33553764080E+02  0.00000000000E+00 0. -1.
        -14    1    6    6    0    0  0.20047278472E+02  0.11253158231E+02 -0.62578739535E+02  0.66668025215E+02  0.00000000000E+00 0.  1.
</event>
<event>
12    1  0.8462562E-002  0.3657537E+03  0.7818608E-02  0.1056378E+00
         21   -1    0    0  503  502  0.00000000000E+00  0.00000000000E+00  0.10401231043E+03  0.10401231043E+03  0.00000000000E+00 0.  1.
         21   -1    0    0  501  503 -0.00000000000E+00 -0.00000000000E+00 -0.13934548523E+04  0.13934548523E+04  0.00000000000E+00 0. -1.
          6    2    1    2  501    0 -0.32229921312E+03 -0.11035499796E+02 -0.85380152799E+03  0.92864483450E+03  0.17148065321E+03 0.  0.
         24    2    3    3    0    0 -0.88211299640E+02 -0.32378462278E+02 -0.22433533710E+03  0.25670551525E+03  0.82108342366E+02 0.  0.
         -6    2    1    2    0  502  0.32229921312E+03  0.11035499796E+02 -0.43564101386E+03  0.56882232820E+03  0.17256066488E+03 0.  0.
        -24    2    5    5    0    0  0.65767719696E+02  0.16776836221E+02 -0.90711172221E+02  0.13889203650E+03  0.80346909404E+02 0.  0.
          5    1    3    3  501    0 -0.23408791348E+03  0.21342962482E+02 -0.62946619089E+03  0.67193931925E+03  0.47000000000E+01 0. -1.
        -11    1    4    4    0    0 -0.38273293821E+02 -0.46879353803E+02 -0.17443591703E+03  0.18463587946E+03  0.00000000000E+00 0.  1.
         12    1    4    4    0    0 -0.49938005820E+02  0.14500891525E+02 -0.49899420064E+02  0.72069635791E+02  0.00000000000E+00 0. -1.
         -5    1    5    5    0  502  0.25653149343E+03 -0.57413364254E+01 -0.34492984164E+03  0.42993029169E+03  0.47000000000E+01 0.  1.
         11    1    6    6    0    0  0.32776895629E+01 -0.25342848446E+02 -0.41990071046E+02  0.49154544883E+02  0.00000000000E+00 0. -1.
        -12    1    6    6    0    0  0.62490030133E+02  0.42119684668E+02 -0.48721101176E+02  0.89737491620E+02  0.00000000000E+00 0.  1.
</event>
<event>
12    1  0.8462562E-002  0.2886272E+03  0.7818608E-02  0.1091070E+00
         21   -1    0    0  501  502  0.00000000000E+00  0.00000000000E+00  0.27514725710E+03  0.27514725710E+03  0.00000000000E+00 0.  1.
         21   -1    0    0  502  503 -0.00000000000E+00 -0.00000000000E+00 -0.36722919232E+03  0.36722919232E+03  0.00000000000E+00 0. -1.
         -6    2    1    2    0  503  0.22822737958E+03  0.40726179914E+02  0.88541938122E+02  0.30189052420E+03  0.17190653064E+03 0.  0.
        -24    2    3    3    0    0  0.43420156487E+02 -0.76636088796E+01  0.59213896981E+02  0.10855789539E+03  0.79589510394E+02 0.  0.
          6    2    1    2  501    0 -0.22822737958E+03 -0.40726179914E+02 -0.18062387334E+03  0.34048592521E+03  0.17192824994E+03 0.  0.
         24    2    5    5    0    0 -0.10179456950E+03  0.35702507527E+02 -0.12516343774E+03  0.18261081747E+03  0.77743302514E+02 0.  0.
          5    1    5    5  501    0 -0.12643281008E+03 -0.76428687440E+02 -0.55460435602E+02  0.15787510775E+03  0.47000000000E+01 0. -1.
        -11    1    6    6    0    0  0.87313524630E+01  0.16141634404E+02 -0.31343003272E+02  0.36320417552E+02  0.00000000000E+00 0.  1.
         12    1    6    6    0    0 -0.11052592197E+03  0.19560873122E+02 -0.93820434464E+02  0.14629039991E+03  0.00000000000E+00 0. -1.
         -5    1    3    3    0  503  0.18480722310E+03  0.48389788793E+02  0.29328041141E+02  0.19333262882E+03  0.47000000000E+01 0.  1.
         11    1    4    4    0    0  0.22949823877E+02 -0.36639691718E+02  0.46620156132E+01  0.43484431866E+02  0.00000000000E+00 0. -1.
        -12    1    4    4    0    0  0.20470332610E+02  0.28976082838E+02  0.54551881368E+02  0.65073463521E+02  0.00000000000E+00 0.  1.
</event>
<event>
12    1  0.8462562E-002  0.2071105E+03  0.7818608E-02  0.1147048E+00
         21   -1    0    0  503  502  0.00000000000E+00  0.00000000000E+00  0.83930972015E+03  0.83930972015E+03  0.00000000000E+00 0.  1.
         21   -1    0    0  501  503 -0.00000000000E+00 -0.00000000000E+00 -0.88358243353E+02  0.88358243353E+02  0.00000000000E+00 0.  1.
          6    2    1    2  501    0  0.53008588961E+02 -0.65842278583E+02  0.67608099371E+02  0.21786605076E+03  0.18907576477E+03 0.  0.
         24    2    3    3    0    0  0.71457170005E+01  0.20139400061E+01 -0.33785049252E+02  0.87441628153E+02  0.80308726520E+02 0.  0.
         -6    2    1    2    0  502 -0.53008588961E+02  0.65842278583E+02  0.68334337743E+03  0.70980191274E+03  0.17238174991E+03 0.  0.
        -24    2    5    5    0    0 -0.75235448806E+02 -0.11418420540E+02  0.42803790034E+03  0.44209642988E+03  0.80262420176E+02 0.  0.
          5    1    3    3  501    0  0.45862871960E+02 -0.67856218589E+02  0.10139314862E+03  0.13042442261E+03  0.47000000000E+01 0. -1.
        -11    1    4    4    0    0 -0.17524397765E+02 -0.18957922197E+02  0.14268203016E+02  0.29497270185E+02  0.00000000000E+00 0.  1.
         12    1    4    4    0    0  0.24670114765E+02  0.20971862203E+02 -0.48053252268E+02  0.57944357968E+02  0.00000000000E+00 0. -1.
         -5    1    5    5    0  502  0.22226859845E+02  0.77260699123E+02  0.25530547708E+03  0.26770548287E+03  0.47000000000E+01 0.  1.
         13    1    6    6    0    0 -0.71696602895E+02  0.16459823143E+02  0.37423757124E+03  0.38139885733E+03  0.00000000000E+00 0. -1.
        -14    1    6    6    0    0 -0.35388459104E+01 -0.27878243683E+02  0.53800329105E+02  0.60697572546E+02  0.00000000000E+00 0.  1.
</event>
<event>
12    1  0.8462562E-002  0.2260647E+03  0.7818608E-02  0.1129632E+00
         21   -1    0    0  501  502  0.00000000000E+00  0.00000000000E+00  0.25980452837E+03  0.25980452837E+03  0.00000000000E+00 0.  1.
         21   -1    0    0  502  503 -0.00000000000E+00 -0.00000000000E+00 -0.34108976173E+03  0.34108976173E+03  0.00000000000E+00 0.  1.
         -6    2    1    2    0  503  0.79050575411E+01 -0.14426242822E+03 -0.23679431469E+03  0.32737869759E+03  0.17387100401E+03 0.  0.
        -24    2    3    3    0    0 -0.63547044585E+02 -0.87865539685E+02 -0.13880622010E+03  0.19355131393E+03  0.80226955863E+02 0.  0.
          6    2    1    2  501    0 -0.79050575411E+01  0.14426242822E+03  0.15550908134E+03  0.27351559251E+03  0.17249222254E+03 0.  0.
         24    2    5    5    0    0  0.23600468779E+02  0.68958852745E+02  0.15833003093E+03  0.19170315810E+03  0.79808499753E+02 0.  0.
          5    1    5    5  501    0 -0.31505526320E+02  0.75303575475E+02 -0.28209495876E+01  0.81812434413E+02  0.47000000000E+01 0. -1.
        -13    1    6    6    0    0  0.23109399793E+02  0.85867804550E+02  0.11632634126E+03  0.14642111148E+03  0.00000000000E+00 0.  1.
         14    1    6    6    0    0  0.49106898591E+00 -0.16908951806E+02  0.42003689669E+02  0.45282046616E+02  0.00000000000E+00 0. -1.
         -5    1    3    3    0  503  0.71452102126E+02 -0.56396888534E+02 -0.97988094598E+02  0.13382738366E+03  0.47000000000E+01 0.  1.
         11    1    4    4    0    0 -0.16109206068E+02 -0.81664950964E+02 -0.65067316091E+02  0.10565238454E+03  0.00000000000E+00 0. -1.
        -12    1    4    4    0    0 -0.47437838517E+02 -0.62005887206E+01 -0.73738904004E+02  0.87898929387E+02  0.00000000000E+00 0.  1.
</event>
<event>
12    1  0.8462562E-002  0.1776266E+03  0.7818608E-02  0.1174117E+00
         21   -1    0    0  503  502  0.00000000000E+00  0.00000000000E+00  0.97399609282E+03  0.97399609282E+03  0.00000000000E+00 0. -1.
         21   -1    0    0  501  503 -0.00000000000E+00 -0.00000000000E+00 -0.16120798050E+03  0.16120798050E+03  0.00000000000E+00 0. -1.
          6    2    1    2  501    0  0.21835518304E+02 -0.34563901939E+02 -0.10969320141E+03  0.19577712453E+03  0.15692237213E+03 0.  0.
         24    2    3    3    0    0  0.55186716818E+02 -0.59261463703E+02 -0.10229626170E+03  0.15336160005E+03  0.80608686999E+02 0.  0.
         -6    2    1    2    0  502 -0.21835518304E+02  0.34563901939E+02  0.92248131373E+03  0.93942694879E+03  0.17285764307E+03 0.  0.
        -24    2    5    5    0    0  0.46888451602E+02 -0.12410081977E+02  0.44368169896E+03  0.45342211311E+03  0.79910109744E+02 0.  0.
          5    1    3    3  501    0 -0.33351198515E+02  0.24697561764E+02 -0.73969397120E+01  0.42415524476E+02  0.47000000000E+01 0. -1.
        -13    1    4    4    0    0  0.31557806480E+02 -0.78719070286E+01 -0.89699681422E+02  0.95414332872E+02  0.00000000000E+00 0.  1.
         14    1    4    4    0    0  0.23628910338E+02 -0.51389556674E+02 -0.12596580274E+02  0.57947267179E+02  0.00000000000E+00 0. -1.
         -5    1    5    5    0  502 -0.68723969905E+02  0.46973983916E+02  0.47879961477E+03  0.48600483568E+03  0.47000000000E+01 0.  1.
         13    1    6    6    0    0  0.41078608477E+02  0.29149277616E+02  0.27677400006E+03  0.28132006606E+03  0.00000000000E+00 0. -1.
        -14    1    6    6    0    0  0.58098431244E+01 -0.41559359593E+02  0.16690769890E+03  0.17210204705E+03  0.00000000000E+00 0.  1.
</event>
<event>
12    1  0.8462562E-002  0.2196222E+03  0.7818608E-02  0.1134210E+00
         21   -1    0    0  503  502  0.00000000000E+00  0.00000000000E+00  0.64339217400E+03  0.64339217400E+03  0.00000000000E+00 0.  1.
         21   -1    0    0  501  503 -0.00000000000E+00 -0.00000000000E+00 -0.92092653657E+02  0.92092653657E+02  0.00000000000E+00 0.  1.
          6    2    1    2  501    0  0.13495675186E+03  0.20251867544E+02  0.11681299143E+03  0.24875528563E+03  0.17207688442E+03 0.  0.
         24    2    3    3    0    0  0.70205982696E+02  0.62723543285E+01  0.14129747507E+03  0.17797627154E+03  0.82111840404E+02 0.  0.
         -6    2    1    2    0  502 -0.13495675186E+03 -0.20251867544E+02  0.43448652891E+03  0.48672954202E+03  0.17176623725E+03 0.  0.
        -24    2    5    5    0    0  0.27745077904E+01  0.70838398983E+00  0.95817996455E+02  0.12049505852E+03  0.73005280506E+02 0.  0.
          5    1    3    3  501    0  0.64750769162E+02  0.13979513216E+02 -0.24484483643E+02  0.70779014094E+02  0.47000000000E+01 0. -1.
        -13    1    4    4    0    0  0.80489389331E+02 -0.12313903103E+02  0.84549406355E+02  0.11738303165E+03  0.00000000000E+00 0.  1.
         14    1    4    4    0    0 -0.10283406634E+02  0.18586257431E+02  0.56748068714E+02  0.60593239888E+02  0.00000000000E+00 0. -1.
         -5    1    5    5    0  502 -0.13773125965E+03 -0.20960251534E+02  0.33866853246E+03  0.36623448350E+03  0.47000000000E+01 0.  1.
         11    1    6    6    0    0 -0.69987345408E+01  0.35874163765E+02  0.46836401107E+02  0.59410322165E+02  0.00000000000E+00 0. -1.
        -12    1    6    6    0    0  0.97732423312E+01 -0.35165779775E+02  0.48981595348E+02  0.61084736356E+02  0.00000000000E+00 0.  1.
</event>
<event>
12    1  0.8462562E-002  0.1931728E+03  0.7818608E-02  0.1155671E+00
         21   -1    0    0  503  502  0.00000000000E+00  0.00000000000E+00  0.21158801974E+03  0.21158801974E+03  0.00000000000E+00 0.  1.
         21   -1    0    0  501  503 -0.00000000000E+00 -0.00000000000E+00 -0.21468412053E+03  0.21468412053E+03  0.00000000000E+00 0.  1.
          6    2    1    2  501    0 -0.88495313867E+02  0.24642560591E+01 -0.91796539086E+02  0.21387460552E+03  0.17169230957E+03 0.  0.
         24    2    3    3    0    0 -0.10532010173E+03 -0.25912245768E+02 -0.11209878976E+03  0.17485447322E+03  0.79020122942E+02 0.  0.
         -6    2    1    2    0  502  0.88495313867E+02 -0.24642560591E+01  0.88700438296E+02  0.21239753475E+03  0.17148601073E+03 0.  0.
        -24    2    5    5    0    0 -0.44899052545E+01 -0.39390044259E+02  0.21459698254E+02  0.91761006568E+02  0.79923894057E+02 0.  0.
          5    1    3    3  501    0  0.16824787868E+02  0.28376501827E+02  0.20302250670E+02  0.39020132304E+02  0.47000000000E+01 0. -1.
        -13    1    4    4    0    0 -0.43451070378E+02 -0.83505313527E+01 -0.10008451659E+03  0.10942868615E+03  0.00000000000E+00 0.  1.
         14    1    4    4    0    0 -0.61869031356E+02 -0.17561714415E+02 -0.12014273165E+02  0.65425787071E+02  0.00000000000E+00 0. -1.
         -5    1    5    5    0  502  0.92985219121E+02  0.36925788200E+02  0.67240740042E+02  0.12063652818E+03  0.47000000000E+01 0.  1.
         11    1    6    6    0    0  0.27494233554E+02  0.92530226896E+01 -0.18111511741E+01  0.29065986586E+02  0.00000000000E+00 0. -1.
        -12    1    6    6    0    0 -0.31984138808E+02 -0.48643066949E+02  0.23270849428E+02  0.62695019983E+02  0.00000000000E+00 0.  1.
</event>
<event>
12    1  0.8462562E-002  0.2154588E+03  0.7818608E-02  0.1137530E+00
         21   -1    0    0  503  502  0.00000000000E+00  0.00000000000E+00  0.56400770713E+03  0.56400770713E+03  0.00000000000E+00 0. -1.
         21   -1    0    0  501  503 -0.00000000000E+00 -0.00000000000E+00 -0.84281804457E+02  0.84281804457E+02  0.00000000000E+00 0. -1.
          6    2    1    2  501    0  0.12081248929E+03  0.50022538426E+02  0.29397010923E+03  0.36381153785E+03  0.16983079237E+03 0.  0.
         24    2    3    3    0    0  0.45881911622E+02  0.49628135148E+02  0.63994755502E+02  0.12189109567E+03  0.78702025771E+02 0.  0.
         -6    2    1    2    0  502 -0.12081248929E+03 -0.50022538426E+02  0.18575579344E+03  0.28447797373E+03  0.17124424317E+03 0.  0.
        -24    2    5    5    0    0 -0.29198629218E+02  0.33805596670E+02  0.77087958914E+02  0.11939907183E+03  0.79487147576E+02 0.  0.
          5    1    3    3  501    0  0.74930577671E+02  0.39440327880E+00  0.22997535372E+03  0.24192044218E+03  0.47000000000E+01 0. -1.
        -11    1    4    4    0    0  0.46951658695E+02  0.67838644001E+02  0.62662113914E+02  0.10360058105E+03  0.00000000000E+00 0.  1.
         12    1    4    4    0    0 -0.10697470729E+01 -0.18210508854E+02  0.13326415879E+01  0.18290514621E+02  0.00000000000E+00 0. -1.
         -5    1    5    5    0  502 -0.91613860075E+02 -0.83828135096E+02  0.10866783453E+03  0.16507890190E+03  0.47000000000E+01 0.  1.
         13    1    6    6    0    0 -0.34238581340E+02  0.47766412237E+02  0.22665975438E+02  0.62989340628E+02  0.00000000000E+00 0. -1.
        -14    1    6    6    0    0  0.50399521221E+01 -0.13960815568E+02  0.54421983477E+02  0.56409731202E+02  0.00000000000E+00 0.  1.
</event>
<event>
12    1  0.8462562E-002  0.2111960E+03  0.7818608E-02  0.1140838E+00
         21   -1    0    0  501  502  0.00000000000E+00  0.00000000000E+00  0.52621974477E+03  0.52621974477E+03  0.00000000000E+00 0. -1.
         21   -1    0    0  502  503 -0.00000000000E+00 -0.00000000000E+00 -0.11000259386E+03  0.11000259386E+03  0.00000000000E+00 0. -1.
         -6    2    1    2    0  503 -0.10836708296E+03 -0.60019415171E+02  0.54828912323E+02  0.21819708463E+03  0.17104970987E+03 0.  0.
        -24    2    3    3    0    0 -0.64642540948E+02 -0.86400292125E+02  0.81838868998E+02  0.16023663257E+03  0.85641750100E+02 0.  0.
          6    2    1    2  501    0  0.10836708296E+03  0.60019415171E+02  0.36138823859E+03  0.41802525401E+03  0.16969943761E+03 0.  0.
         24    2    5    5    0    0 -0.10211704970E+02  0.34890744499E+02  0.17088043073E+03  0.19217642427E+03  0.80062559718E+02 0.  0.
          5    1    5    5  501    0  0.11857878793E+03  0.25128670672E+02  0.19050780786E+03  0.22584882974E+03  0.47000000000E+01 0. -1.
        -11    1    6    6    0    0  0.19298842252E+02  0.16442428794E+01  0.13109584283E+03  0.13251893772E+03  0.00000000000E+00 0.  1.
         12    1    6    6    0    0 -0.29510547222E+02  0.33246501619E+02  0.39784587901E+02  0.59657486552E+02  0.00000000000E+00 0. -1.
         -5    1    3    3    0  503 -0.43724542007E+02  0.26380876954E+02 -0.27009956675E+02  0.57960452053E+02  0.47000000000E+01 0.  1.
         11    1    4    4    0    0 -0.61925530590E+02 -0.24500661790E+02  0.70984681752E+02  0.97333852335E+02  0.00000000000E+00 0. -1.
        -12    1    4    4    0    0 -0.27170103587E+01 -0.61899630336E+02  0.10854187245E+02  0.62902780238E+02  0.00000000000E+00 0.  1.
</event>
<event>
12    1  0.8462562E-002  0.2936176E+03  0.7818608E-02  0.1088596E+00
         21   -1    0    0  501  502  0.00000000000E+00  0.00000000000E+00  0.36861159930E+03  0.36861159930E+03  0.00000000000E+00 0.  1.
         21   -1    0    0  502  503 -0.00000000000E+00 -0.00000000000E+00 -0.24274485596E+03  0.24274485596E+03  0.00000000000E+00 0. -1.
         -6    2    1    2    0  503 -0.15005158724E+03  0.18376001499E+03  0.12365609532E+03  0.31773052544E+03  0.17140196889E+03 0.  0.
        -24    2    3    3    0    0 -0.13994292342E+03  0.20724254855E+03  0.12820779532E+03  0.29134070847E+03  0.76867898940E+02 0.  0.
          6    2    1    2  501    0  0.15005158724E+03 -0.18376001499E+03  0.22106480268E+01  0.29362592983E+03  0.17299733454E+03 0.  0.
         24    2    5    5    0    0  0.16167529908E+03 -0.10549506795E+03  0.29009214223E+02  0.20995535099E+03  0.77276149005E+02 0.  0.
          5    1    5    5  501    0 -0.11623711841E+02 -0.78264947043E+02 -0.26798566197E+02  0.83670578836E+02  0.47000000000E+01 0. -1.
        -13    1    6    6    0    0  0.86225908743E+02 -0.16294013262E+02 -0.60984823349E+01  0.87963593000E+02  0.00000000000E+00 0.  1.
         14    1    6    6    0    0  0.75449390337E+02 -0.89201054690E+02  0.35107696558E+02  0.12199175799E+03  0.00000000000E+00 0. -1.
         -5    1    3    3    0  503 -0.10108663820E+02 -0.23482533558E+02 -0.45516999986E+01  0.26389816964E+02  0.47000000000E+01 0.  1.
         13    1    4    4    0    0 -0.47787462280E+02  0.93216643361E+02  0.94109437475E+02  0.14081750734E+03  0.00000000000E+00 0. -1.
        -14    1    4    4    0    0 -0.92155461140E+02  0.11402590519E+03  0.34098357841E+02  0.15052320113E+03  0.00000000000E+00 0.  1.
</event>
<event>
12    1  0.8462562E-002  0.1951208E+03  0.7818608E-02  0.1154016E+00
         21   -1    0    0  503  502  0.00000000000E+00  0.00000000000E+00  0.12503030049E+02  0.12503030049E+02  0.00000000000E+00 0. -1.
         21   -1    0    0  501  503 -0.00000000000E+00 -0.00000000000E+00 -0.31606786652E+04  0.31606786652E+04  0.00000000000E+00 0. -1.
          6    2    1    2  501    0  0.84632480592E+02  0.36528299750E+02 -0.18845699594E+04  0.18945998973E+04  0.17148721651E+03 0.  0.
         24    2    3    3    0    0  0.45423720702E+02 -0.47122738473E+02 -0.11006177198E+04  0.11052089757E+04  0.76443757146E+02 0.  0.
         -6    2    1    2    0  502 -0.84632480592E+02 -0.36528299750E+02 -0.12636056758E+04  0.12785817980E+04  0.17197423315E+03 0.  0.
        -24    2    5    5    0    0 -0.95336406309E+02 -0.68446030817E+02 -0.11779396364E+04  0.11864184871E+04  0.79203219096E+02 0.  0.
          5    1    3    3  501    0  0.39208759891E+02  0.83651038222E+02 -0.78395223964E+03  0.78939092159E+03  0.47000000000E+01 0. -1.
        -13    1    4    4    0    0 -0.10539811481E+02 -0.10689369290E+01 -0.24996819726E+02  0.27149056127E+02  0.00000000000E+00 0.  1.
         14    1    4    4    0    0  0.55963532182E+02 -0.46053801544E+02 -0.10756209001E+04  0.10780599196E+04  0.00000000000E+00 0. -1.
         -5    1    5    5    0  502  0.10703925717E+02  0.31917731067E+02 -0.85666039361E+02  0.92163310932E+02  0.47000000000E+01 0.  1.
         13    1    6    6    0    0 -0.96477626726E+02 -0.33211391742E+02 -0.98626473801E+03  0.99152864933E+03  0.00000000000E+00 0. -1.
        -14    1    6    6    0    0  0.11412204170E+01 -0.35234639074E+02 -0.19167489840E+03  0.19488983774E+03  0.00000000000E+00 0.  1.
</event>
<event>
12    1  0.8462562E-002  0.1853238E+03  0.7818608E-02  0.1162870E+00
         21   -1    0    0  503  502  0.00000000000E+00  0.00000000000E+00  0.30942449085E+03  0.30942449085E+03  0.00000000000E+00 0. -1.
         21   -1    0    0  501  503 -0.00000000000E+00 -0.00000000000E+00 -0.13422569654E+03  0.13422569654E+03  0.00000000000E+00 0. -1.
          6    2    1    2  501    0  0.44562869644E+02 -0.48491818029E+02 -0.52006752520E+01  0.18539671616E+03  0.17322698858E+03 0.  0.
         24    2    3    3    0    0  0.34143408140E+02 -0.52385152336E+01 -0.66214484549E+02  0.10973835042E+03  0.80404808485E+02 0.  0.
         -6    2    1    2    0  502 -0.44562869644E+02  0.48491818029E+02  0.18039946956E+03  0.25825347124E+03  0.17266609691E+03 0.  0.
        -24    2    5    5    0    0 -0.39394025909E+02  0.41098398805E+02  0.20614951617E+03  0.23056711189E+03  0.86154526343E+02 0.  0.
          5    1    3    3  501    0  0.10419461503E+02 -0.43253302795E+02  0.61013809297E+02  0.75658365735E+02  0.47000000000E+01 0. -1.
        -13    1    4    4    0    0 -0.10505665900E+01 -0.38566630273E+02 -0.23805943983E+02  0.45334441980E+02  0.00000000000E+00 0.  1.
         14    1    4    4    0    0  0.35193974730E+02  0.33328115039E+02 -0.42408540566E+02  0.64403908440E+02  0.00000000000E+00 0. -1.
         -5    1    5    5    0  502 -0.51688437353E+01  0.73934192246E+01 -0.25750046608E+02  0.27686359343E+02  0.47000000000E+01 0.  1.
         11    1    6    6    0    0 -0.55781760891E+02  0.11420195432E+02  0.69861631143E+02  0.90125874297E+02  0.00000000000E+00 0. -1.
        -12    1    6    6    0    0  0.16387734982E+02  0.29678203372E+02  0.13628788503E+03  0.14044123760E+03  0.00000000000E+00 0.  1.
</event>
<event>
12    1  0.8462562E-002  0.1961861E+03  0.7818608E-02  0.1153021E+00
         21   -1    0    0  501  502  0.00000000000E+00  0.00000000000E+00  0.23141235622E+03  0.23141235622E+03  0.00000000000E+00 0.  1.
         21   -1    0    0  502  503 -0.00000000000E+00 -0.00000000000E+00 -0.20860609149E+03  0.20860609149E+03  0.00000000000E+00 0.  1.
         -6    2    1    2    0  503 -0.42157142712E+02 -0.84477201223E+02 -0.87755926895E+02  0.21491880598E+03  0.17197490588E+03 0.  0.
        -24    2    3    3    0    0 -0.68978841149E+02 -0.83776214866E+02 -0.11443801917E+03  0.17678851701E+03  0.79884822169E+02 0.  0.
          6    2    1    2  501    0  0.42157142712E+02  0.84477201223E+02  0.11056219162E+03  0.22509964173E+03  0.17184943491E+03 0.  0.
         24    2    5    5    0    0  0.34627297387E+02 -0.13637996287E+01  0.10882184206E+03  0.13878339288E+03  0.78852565949E+02 0.  0.
          5    1    5    5  501    0  0.75298453246E+01  0.85841000852E+02  0.17403495623E+01  0.86316248844E+02  0.47000000000E+01 0. -1.
        -11    1    6    6    0    0  0.58163778080E+02 -0.99902477397E+01  0.89172472207E+02  0.10693250175E+03  0.00000000000E+00 0.  1.
         12    1    6    6    0    0 -0.23536480693E+02  0.86264481110E+01  0.19649369852E+02  0.31850891134E+02  0.00000000000E+00 0. -1.
         -5    1    3    3    0  503  0.26821698438E+02 -0.70098635727E+00  0.26682092273E+02  0.38130288971E+02  0.47000000000E+01 0.  1.
         11    1    4    4    0    0  0.13226515870E+01 -0.25357248912E+02  0.55093357878E+01  0.25982537606E+02  0.00000000000E+00 0. -1.
        -12    1    4    4    0    0 -0.70301492736E+02 -0.58418965954E+02 -0.11994735495E+03  0.15080597941E+03  0.00000000000E+00 0.  1.
</event>
<event>
12    1  0.8462562E-002  0.1961375E+03  0.7818608E-02  0.1154681E+00
         21   -1    0    0  501  502  0.00000000000E+00  0.00000000000E+00  0.51834895630E+03  0.51834895630E+03  0.00000000000E+00 0. -1.
         21   -1    0    0  502  503 -0.00000000000E+00 -0.00000000000E+00 -0.83094337925E+02  0.83094337925E+02  0.00000000000E+00 0. -1.
         -6    2    1    2    0  503  0.50139524193E+01  0.91786631725E+02  0.10859023733E+03  0.22419130695E+03  0.17326273975E+03 0.  0.
        -24    2    3    3    0    0  0.20591294462E+02 -0.13417193724E+02  0.19197470937E+02  0.85181756353E+02  0.79267687174E+02 0.  0.
          6    2    1    2  501    0 -0.50139524193E+01 -0.91786631725E+02  0.32666438105E+03  0.37725198728E+03  0.16480145199E+03 0.  0.
         24    2    5    5    0    0  0.25904715258E+02 -0.11878728483E+03  0.22973495851E+03  0.27188404988E+03  0.79757834139E+02 0.  0.
          5    1    5    5  501    0 -0.30918667678E+02  0.27000653100E+02  0.96929422536E+02  0.10536793740E+03  0.47000000000E+01 0. -1.
        -13    1    6    6    0    0  0.46805680213E+02 -0.60030200061E+02  0.83963218048E+02  0.11333233698E+03  0.00000000000E+00 0.  1.
         14    1    6    6    0    0 -0.20900964955E+02 -0.58757084764E+02  0.14577174046E+03  0.15855171290E+03  0.00000000000E+00 0. -1.
         -5    1    3    3    0  503 -0.15577342042E+02  0.10520382545E+03  0.89392766395E+02  0.13900955060E+03  0.47000000000E+01 0.  1.
         11    1    4    4    0    0 -0.41816368650E+00  0.29204264040E+02  0.23474296656E+02  0.37471409133E+02  0.00000000000E+00 0. -1.
        -12    1    4    4    0    0  0.21009458148E+02 -0.42621457764E+02 -0.42768257184E+01  0.47710347220E+02  0.00000000000E+00 0.  1.
</event>
<event>
12    1  0.8462562E-002  0.1935247E+03  0.7818608E-02  0.1156609E+00
         21   -1    0    0  501  502  0.00000000000E+00  0.00000000000E+00  0.44618765291E+02  0.44618765291E+02  0.00000000000E+00 0. -1.
         21   -1    0    0  502  503 -0.00000000000E+00 -0.00000000000E+00 -0.11952160100E+04  0.11952160100E+04  0.00000000000E+00 0. -1.
         -6    2    1    2    0  503  0.72414734216E+02  0.20146572661E+02 -0.93102887797E+03  0.95092931625E+03  0.17833119402E+03 0.  0.
        -24    2    3    3    0    0  0.66361878523E+02  0.17782366324E+02 -0.24623094591E+03  0.26608442557E+03  0.73831777257E+02 0.  0.
          6    2    1    2  501    0 -0.72414734216E+02 -0.20146572661E+02 -0.21956836675E+03  0.28890545905E+03  0.17206486705E+03 0.  0.
         24    2    5    5    0    0 -0.27864885770E+02 -0.54951609879E+02 -0.57061837986E+02  0.11678183632E+03  0.81153019987E+02 0.  0.
          5    1    5    5  501    0 -0.44549848446E+02  0.34805037218E+02 -0.16250652876E+03  0.17212362273E+03  0.47000000000E+01 0. -1.
        -13    1    6    6    0    0  0.24305307904E+02 -0.16936876607E+02 -0.40431331186E+02  0.50122832352E+02  0.00000000000E+00 0.  1.
         14    1    6    6    0    0 -0.52170193674E+02 -0.38014733272E+02 -0.16630506800E+02  0.66659003969E+02  0.00000000000E+00 0. -1.
         -5    1    3    3    0  503  0.60528556936E+01  0.23642063366E+01 -0.68479793206E+03  0.68484489068E+03  0.47000000000E+01 0.  1.
         13    1    4    4    0    0  0.52887299551E+02  0.44763129423E+02 -0.19062306230E+03  0.20282493952E+03  0.00000000000E+00 0. -1.
        -14    1    4    4    0    0  0.13474578972E+02 -0.26980763098E+02 -0.55607883609E+02  0.63259486050E+02  0.00000000000E+00 0.  1.
</event>
<event>
12    1  0.8462562E-002  0.2305632E+03  0.7818608E-02  0.1126390E+00
         21   -1    0    0  503  502  0.00000000000E+00  0.00000000000E+00  0.73196360571E+03  0.73196360571E+03  0.00000000000E+00 0.  1.
         21   -1    0    0  501  503 -0.00000000000E+00 -0.00000000000E+00 -0.10024450164E+03  0.10024450164E+03  0.00000000000E+00 0.  1.
          6    2    1    2  501    0 -0.11580581154E+03  0.96915869218E+02  0.96010275728E+02  0.24899001478E+03  0.17313111425E+03 0.  0.
         24    2    3    3    0    0 -0.81981221949E+01  0.53000168539E+02 -0.43773465017E+01  0.95341818337E+02  0.78706251904E+02 0.  0.
         -6    2    1    2    0  502  0.11580581154E+03 -0.96915869218E+02  0.53570882835E+03  0.58321809258E+03  0.17422893860E+03 0.  0.
        -24    2    5    5    0    0  0.40444124154E+02 -0.58092073294E+02  0.12636756225E+03  0.16516422860E+03  0.79372825716E+02 0.  0.
          5    1    3    3  501    0 -0.10760768935E+03  0.43915700679E+02  0.10038762223E+03  0.15364819644E+03  0.47000000000E+01 0. -1.
        -11    1    4    4    0    0  0.22441726179E+02  0.19413371618E+02  0.26986734436E+02  0.40109773211E+02  0.00000000000E+00 0.  1.
         12    1    4    4    0    0 -0.30639848374E+02  0.33586796921E+02 -0.31364080938E+02  0.55232045127E+02  0.00000000000E+00 0. -1.
         -5    1    5    5    0  502  0.75361687388E+02 -0.38823795925E+02  0.40934126609E+03  0.41805386397E+03  0.47000000000E+01 0.  1.
         11    1    6    6    0    0  0.52919080924E+00  0.15670441069E+02  0.47561968507E+02  0.50079772508E+02  0.00000000000E+00 0. -1.
        -12    1    6    6    0    0  0.39914933345E+02 -0.73762514363E+02  0.78805593747E+02  0.11508445610E+03  0.00000000000E+00 0.  1.
</event>
<event>
12    1  0.8462562E-002  0.1870530E+03  0.7818608E-02  0.1165039E+00
         21   -1    0    0  503  502  0.00000000000E+00  0.00000000000E+00  0.26673858759E+02  0.26673858759E+02  0.00000000000E+00 0.  1.
         21   -1    0    0  501  503 -0.00000000000E+00 -0.00000000000E+00 -0.12073325629E+04  0.12073325629E+04  0.00000000000E+00 0.  1.
          6    2    1    2  501    0 -0.13314107398E+02  0.36897613678E+01 -0.51968498360E+03  0.54707478431E+03  0.17037446305E+03 0.  0.
         24    2    3    3    0    0 -0.35321325327E+02  0.41407288826E+01 -0.51685853422E+03  0.52438999142E+03  0.81101029885E+02 0.  0.
         -6    2    1    2    0  502  0.13314107398E+02 -0.36897613678E+01 -0.66097372050E+03  0.68693163731E+03  0.18654204712E+03 0.  0.
        -24    2    5    5    0    0  0.51133137136E+02 -0.59645796087E+02 -0.49729644900E+03  0.50980542231E+03  0.80159788716E+02 0.  0.
          5    1    3    3  501    0  0.22007217928E+02 -0.45096751480E+00 -0.28264493842E+01  0.22684792897E+02  0.47000000000E+01 0. -1.
        -13    1    4    4    0    0  0.15407546104E+02  0.22116097864E+02 -0.84503429183E+02  0.88698048487E+02  0.00000000000E+00 0.  1.
         14    1    4    4    0    0 -0.50728871431E+02 -0.17975368981E+02 -0.43235510503E+03  0.43569194293E+03  0.00000000000E+00 0. -1.
         -5    1    5    5    0  502 -0.37819029738E+02  0.55956034720E+02 -0.16367727150E+03  0.17712621499E+03  0.47000000000E+01 0.  1.
         13    1    6    6    0    0  0.62456240837E+02 -0.30551034611E+02 -0.21921479449E+03  0.22997668112E+03  0.00000000000E+00 0. -1.
        -14    1    6    6    0    0 -0.11323103701E+02 -0.29094761476E+02 -0.27808165451E+03  0.27982874119E+03  0.00000000000E+00 0.  1.
</event>
<event>
12    1  0.8462562E-002  0.5293130E+03  0.7818608E-02  0.1006432E+00
         21   -1    0    0  503  502  0.00000000000E+00  0.00000000000E+00  0.24934330561E+03  0.24934330561E+03  0.00000000000E+00 0. -1.
         21   -1    0    0  501  503 -0.00000000000E+00 -0.00000000000E+00 -0.11240900551E+04  0.11240900551E+04  0.00000000000E+00 0.  1.
          6    2    1    2  501    0  0.25329348207E+02  0.49996006195E+03 -0.41112136774E+03  0.66978516770E+03  0.17026377308E+03 0.  0.
         24    2    3    3    0    0 -0.24452479885E+02  0.44747666398E+03 -0.37091637529E+03  0.58689205044E+03  0.77653286008E+02 0.  0.
         -6    2    1    2    0  502 -0.25329348207E+02 -0.49996006195E+03 -0.46362538175E+03  0.70364819302E+03  0.17196117439E+03 0.  0.
        -24    2    5    5    0    0 -0.32082489187E+02 -0.35885959914E+03 -0.23427715893E+03  0.43424581212E+03  0.62242591037E+02 0.  0.
          5    1    3    3  501    0  0.49781828092E+02  0.52483397979E+02 -0.40204992448E+02  0.82893117262E+02  0.47000000000E+01 0. -1.
        -13    1    4    4    0    0 -0.36728028648E+02  0.21554424131E+03 -0.21835646534E+03  0.30901102571E+03  0.00000000000E+00 0.  1.
         14    1    4    4    0    0  0.12275548763E+02  0.23193242266E+03 -0.15255990995E+03  0.27788102473E+03  0.00000000000E+00 0. -1.
         -5    1    5    5    0  502  0.67531409795E+01 -0.14110046281E+03 -0.22934822282E+03  0.26940238089E+03  0.47000000000E+01 0.  1.
         13    1    6    6    0    0  0.74747853066E+00 -0.93708162829E+02 -0.31607082527E+02  0.98897857261E+02  0.00000000000E+00 0. -1.
        -14    1    6    6    0    0 -0.32829967717E+02 -0.26515143631E+03 -0.20267007640E+03  0.33534795486E+03  0.00000000000E+00 0.  1.
</event>
<event>
12    1  0.8462562E-002  0.2019369E+03  0.7818608E-02  0.1148347E+00
         21   -1    0    0  503  502  0.00000000000E+00  0.00000000000E+00  0.49366970341E+03  0.49366970341E+03  0.00000000000E+00 0. -1.
         21   -1    0    0  501  503 -0.00000000000E+00 -0.00000000000E+00 -0.83999808048E+02  0.83999808048E+02  0.00000000000E+00 0. -1.
          6    2    1    2  501    0  0.88910780270E+02 -0.58016761547E+02  0.16141265287E+03  0.25765363503E+03  0.17047075898E+03 0.  0.
         24    2    3    3    0    0  0.10100390870E+03 -0.77349965320E+02  0.17481076888E+03  0.23079072312E+03  0.80751137779E+02 0.  0.
         -6    2    1    2    0  502 -0.88910780270E+02  0.58016761547E+02  0.24825724249E+03  0.32001587643E+03  0.17177727221E+03 0.  0.
        -24    2    5    5    0    0 -0.12134798980E+03  0.67192355943E+02  0.16845653352E+03  0.23325985504E+03  0.82416072229E+02 0.  0.
          5    1    3    3  501    0 -0.12093128431E+02  0.19333203773E+02 -0.13398116015E+02  0.26862911907E+02  0.47000000000E+01 0. -1.
        -13    1    4    4    0    0  0.15005676631E+02 -0.52382636153E+02  0.10092540411E+03  0.11469545805E+03  0.00000000000E+00 0.  1.
         14    1    4    4    0    0  0.85998232070E+02 -0.24967329168E+02  0.73885364772E+02  0.11609526507E+03  0.00000000000E+00 0. -1.
         -5    1    5    5    0  502  0.32437209533E+02 -0.91755943960E+01  0.79800708968E+02  0.86756021385E+02  0.47000000000E+01 0.  1.
         13    1    6    6    0    0 -0.82950114313E+02  0.81737018508E+02  0.10031488938E+03  0.15370341145E+03  0.00000000000E+00 0. -1.
        -14    1    6    6    0    0 -0.38397875490E+02 -0.14544662564E+02  0.68141644139E+02  0.79556443594E+02  0.00000000000E+00 0.  1.
</event>
<event>
12    1  0.8462562E-002  0.2816703E+03  0.7818608E-02  0.1094793E+00
         21   -1    0    0  503  502  0.00000000000E+00  0.00000000000E+00  0.12024615461E+04  0.12024615461E+04  0.00000000000E+00 0. -1.
         21   -1    0    0  501  503 -0.00000000000E+00 -0.00000000000E+00 -0.72992052672E+02  0.72992052672E+02  0.00000000000E+00 0. -1.
          6    2    1    2  501    0  0.21214208195E+03 -0.66272785872E+02  0.76261865756E+03  0.81294123312E+03  0.17288691846E+03 0.  0.
         24    2    3    3    0    0  0.14865439711E+03 -0.50957974549E+02  0.32436108425E+03  0.36981933101E+03  0.82833445304E+02 0.  0.
         -6    2    1    2    0  502 -0.21214208195E+03  0.66272785872E+02  0.36685083583E+03  0.46251236561E+03  0.17303701197E+03 0.  0.
        -24    2    5    5    0    0 -0.21177885980E+03  0.24335573806E+02  0.24881047674E+03  0.33715496431E+03  0.79525536865E+02 0.  0.
          5    1    3    3  501    0  0.63487684837E+02 -0.15314811324E+02  0.43825757331E+03  0.44312190212E+03  0.47000000000E+01 0. -1.
        -11    1    4    4    0    0 -0.13961893937E+01  0.75178918559E+01 -0.37637254431E-01  0.76465325045E+01  0.00000000000E+00 0.  1.
         12    1    4    4    0    0  0.15005058650E+03 -0.58475866405E+02  0.32439872150E+03  0.36217279850E+03  0.00000000000E+00 0. -1.
         -5    1    5    5    0  502 -0.36322214915E+00  0.41937212066E+02  0.11804035909E+03  0.12535740130E+03  0.47000000000E+01 0.  1.
         11    1    6    6    0    0 -0.19772056003E+03  0.34496360083E+02  0.19199561214E+03  0.27775120846E+03  0.00000000000E+00 0. -1.
        -12    1    6    6    0    0 -0.14058299766E+02 -0.10160786277E+02  0.56814864594E+02  0.59403755848E+02  0.00000000000E+00 0.  1.
</event>
<event>
12    1  0.8462562E-002  0.2280591E+03  0.7818608E-02  0.1128238E+00
         21   -1    0    0  501  502  0.00000000000E+00  0.00000000000E+00  0.55041960147E+03  0.55041960147E+03  0.00000000000E+00 0.  1.
         21   -1    0    0  502  503 -0.00000000000E+00 -0.00000000000E+00 -0.28554830813E+03  0.28554830813E+03  0.00000000000E+00 0. -1.
         -6    2    1    2    0  503 -0.99143940267E+02  0.11120073961E+03 -0.21004970952E+03  0.30912739133E+03  0.17100800630E+03 0.  0.
        -24    2    3    3    0    0 -0.17430880226E+02  0.10157829095E+03 -0.17837221174E+03  0.22083713386E+03  0.79563867364E+02 0.  0.
          6    2    1    2  501    0  0.99143940267E+02 -0.11120073961E+03  0.47492100287E+03  0.52684051826E+03  0.17267265950E+03 0.  0.
         24    2    5    5    0    0  0.99281246864E+02 -0.12665470415E+03  0.47778376945E+03  0.51043535731E+03  0.79804408292E+02 0.  0.
          5    1    5    5  501    0 -0.13730659691E+00  0.15453964542E+02 -0.28627665856E+01  0.16405160947E+02  0.47000000000E+01 0. -1.
        -11    1    6    6    0    0  0.41744272896E+02 -0.90227972923E+02  0.18700501925E+03  0.21178892474E+03  0.00000000000E+00 0.  1.
         12    1    6    6    0    0  0.57536973968E+02 -0.36426731230E+02  0.29077875020E+03  0.29864643258E+03  0.00000000000E+00 0. -1.
         -5    1    3    3    0  503 -0.81713060041E+02  0.96224486645E+01 -0.31677497780E+02  0.88290257475E+02  0.47000000000E+01 0.  1.
         13    1    4    4    0    0  0.13156399527E+02  0.28954038144E+02 -0.75090556893E+01  0.32677409486E+02  0.00000000000E+00 0. -1.
        -14    1    4    4    0    0 -0.30587279753E+02  0.72624252802E+02 -0.17086315605E+03  0.18815972437E+03  0.00000000000E+00 0.  1.
</event>
<event>
12    1  0.8462562E-002  0.2295722E+03  0.7818608E-02  0.1126987E+00
         21   -1    0    0  501  502  0.00000000000E+00  0.00000000000E+00  0.36723717131E+03  0.36723717131E+03  0.00000000000E+00 0. -1.
         21   -1    0    0  502  503 -0.00000000000E+00 -0.00000000000E+00 -0.35005922088E+03  0.35005922088E+03  0.00000000000E+00 0. -1.
         -6    2    1    2    0  503  0.70459450111E+02  0.13532899143E+03 -0.26700752888E+03  0.35213127056E+03  0.17153699659E+03 0.  0.
        -24    2    3    3    0    0  0.99115947420E+02  0.72625845939E+02 -0.23424690873E+03  0.27565756577E+03  0.77569290219E+02 0.  0.
          6    2    1    2  501    0 -0.70459450111E+02 -0.13532899143E+03  0.28418547932E+03  0.36516512163E+03  0.17118910412E+03 0.  0.
         24    2    5    5    0    0 -0.52222888982E+02 -0.13234785364E+03  0.29915523486E+03  0.34092377419E+03  0.80572828960E+02 0.  0.
          5    1    5    5  501    0 -0.18236561129E+02 -0.29811377876E+01 -0.14969755547E+02  0.24241347435E+02  0.47000000000E+01 0. -1.
        -11    1    6    6    0    0 -0.56745237437E+02 -0.42936214163E+02  0.16441236663E+03  0.17915068172E+03  0.00000000000E+00 0.  1.
         12    1    6    6    0    0  0.45223484552E+01 -0.89411639477E+02  0.13474286823E+03  0.16177309247E+03  0.00000000000E+00 0. -1.
         -5    1    3    3    0  503 -0.28656497309E+02  0.62703145489E+02 -0.32760620148E+02  0.76473704793E+02  0.47000000000E+01 0.  1.
         11    1    4    4    0    0  0.55950582205E+02  0.83382179148E+02 -0.15250415028E+03  0.18259400675E+03  0.00000000000E+00 0. -1.
        -12    1    4    4    0    0  0.43165365215E+02 -0.10756333209E+02 -0.81742758453E+02  0.93063559022E+02  0.00000000000E+00 0.  1.
</event>
<event>
12    1  0.8462562E-002  0.3733587E+03  0.7818608E-02  0.1053473E+00
         21   -1    0    0  503  502  0.00000000000E+00  0.00000000000E+00  0.58188768650E+03  0.58188768650E+03  0.00000000000E+00 0. -1.
         21   -1    0    0  501  503 -0.00000000000E+00 -0.00000000000E+00 -0.33839605936E+03  0.33839605936E+03  0.00000000000E+00 0.  1.
          6    2    1    2  501    0  0.33084173202E+03 -0.23487417723E+02 -0.12748650847E+03  0.39395542191E+03  0.17011805952E+03 0.  0.
         24    2    3    3    0    0  0.74678341782E+02 -0.27323036703E+02 -0.12216857420E+02  0.11298642553E+03  0.79330181419E+02 0.  0.
         -6    2    1    2    0  502 -0.33084173202E+03  0.23487417723E+02  0.37097813561E+03  0.52632832395E+03  0.17143166876E+03 0.  0.
        -24    2    5    5    0    0 -0.22237704241E+03 -0.12302184402E+02  0.32692923756E+03  0.40382167134E+03  0.81156165167E+02 0.  0.
          5    1    3    3  501    0  0.25616339024E+03  0.38356189803E+01 -0.11526965105E+03  0.28096899638E+03  0.47000000000E+01 0. -1.
        -13    1    4    4    0    0  0.19314194138E+02  0.10539551108E+02 -0.35687916563E+02  0.41925500848E+02  0.00000000000E+00 0.  1.
         14    1    4    4    0    0  0.55364147644E+02 -0.37862587811E+02  0.23471059143E+02  0.71060924687E+02  0.00000000000E+00 0. -1.
         -5    1    5    5    0  502 -0.10846468961E+03  0.35789602125E+02  0.44048898052E+02  0.12250665261E+03  0.47000000000E+01 0.  1.
         13    1    6    6    0    0 -0.14681506546E+03 -0.83754162274E-01  0.14455590487E+03  0.20603659892E+03  0.00000000000E+00 0. -1.
        -14    1    6    6    0    0 -0.75561976944E+02 -0.12218430240E+02  0.18237333269E+03  0.19778507243E+03  0.00000000000E+00 0.  1.
</event>
<event>
12    1  0.8462562E-002  0.1947079E+03  0.7818608E-02  0.1155689E+00
         21   -1    0    0  501  502  0.00000000000E+00  0.00000000000E+00  0.18535741027E+03  0.18535741027E+03  0.00000000000E+00 0. -1.
         21   -1    0    0  502  503 -0.00000000000E+00 -0.00000000000E+00 -0.24126040892E+03  0.24126040892E+03  0.00000000000E+00 0.  1.
         -6    2    1    2    0  503  0.81576358167E+02 -0.40330945013E+02 -0.11795159607E+03  0.22226229616E+03  0.16494442076E+03 0.  0.
        -24    2    3    3    0    0  0.21019226501E+02 -0.75604594467E+02 -0.44877462790E+02  0.12090493088E+03  0.80287938432E+02 0.  0.
          6    2    1    2  501    0 -0.81576358167E+02  0.40330945013E+02  0.62048597421E+02  0.20435552303E+03  0.17213327399E+03 0.  0.
         24    2    5    5    0    0 -0.64854190191E+02  0.93023028061E+02  0.48283372882E+02  0.14719209132E+03  0.80466626104E+02 0.  0.
          5    1    5    5  501    0 -0.16722167976E+02 -0.52692083047E+02  0.13765224539E+02  0.57163431705E+02  0.47000000000E+01 0. -1.
        -13    1    6    6    0    0 -0.61122917592E+02  0.65165860484E+02 -0.22442039578E+01  0.89373580431E+02  0.00000000000E+00 0.  1.
         14    1    6    6    0    0 -0.37312725991E+01  0.27857167576E+02  0.50527576840E+02  0.57818510893E+02  0.00000000000E+00 0. -1.
         -5    1    3    3    0  503  0.60557131666E+02  0.35273649454E+02 -0.73074133283E+02  0.10135736528E+03  0.47000000000E+01 0.  1.
         13    1    4    4    0    0  0.47965274877E+01 -0.40805373454E+02  0.19862777328E+02  0.45635677949E+02  0.00000000000E+00 0. -1.
        -14    1    4    4    0    0  0.16222699014E+02 -0.34799221013E+02 -0.64740240119E+02  0.75269252933E+02  0.00000000000E+00 0.  1.
</event>
<event>
12    1  0.8462562E-002  0.2131066E+03  0.7818608E-02  0.1139253E+00
         21   -1    0    0  501  502  0.00000000000E+00  0.00000000000E+00  0.16137430398E+03  0.16137430398E+03  0.00000000000E+00 0.  1.
         21   -1    0    0  502  503 -0.00000000000E+00 -0.00000000000E+00 -0.49406051047E+03  0.49406051047E+03  0.00000000000E+00 0.  1.
         -6    2    1    2    0  503  0.64143947081E+02 -0.10881313299E+03 -0.38190320368E+03  0.43733796827E+03  0.17163827558E+03 0.  0.
        -24    2    3    3    0    0  0.60703759353E+02 -0.14302014676E+03 -0.29163532658E+03  0.34063050051E+03  0.82693805043E+02 0.  0.
          6    2    1    2  501    0 -0.64143947081E+02  0.10881313299E+03  0.49216997187E+02  0.21809684618E+03  0.17084840545E+03 0.  0.
         24    2    5    5    0    0 -0.15677484037E+02 -0.66949008895E+01  0.43509206733E+02  0.92614684886E+02  0.79961388071E+02 0.  0.
          5    1    5    5  501    0 -0.48466463044E+02  0.11550803388E+03  0.57077904536E+01  0.12548216130E+03  0.47000000000E+01 0. -1.
        -11    1    6    6    0    0 -0.40980589022E+02  0.12548912184E+02  0.57300369928E+01  0.43240226612E+02  0.00000000000E+00 0.  1.
         12    1    6    6    0    0  0.25303104985E+02 -0.19243813074E+02  0.37779169740E+02  0.49374458273E+02  0.00000000000E+00 0. -1.
         -5    1    3    3    0  503  0.34401877277E+01  0.34207013764E+02 -0.90267877102E+02  0.96707467750E+02  0.47000000000E+01 0.  1.
         11    1    4    4    0    0  0.27997734678E+02 -0.50986885779E+02 -0.39699952772E+02  0.70424583197E+02  0.00000000000E+00 0. -1.
        -12    1    4    4    0    0  0.32706024675E+02 -0.92033260980E+02 -0.25193537381E+03  0.27020591732E+03  0.00000000000E+00 0.  1.
</event>
<event>
12    1  0.8462562E-002  0.1923209E+03  0.7818608E-02  0.1156516E+00
         21   -1    0    0  503  502  0.00000000000E+00  0.00000000000E+00  0.25164969221E+03  0.25164969221E+03  0.00000000000E+00 0. -1.
         21   -1    0    0  501  503 -0.00000000000E+00 -0.00000000000E+00 -0.44319081193E+03  0.44319081193E+03  0.00000000000E+00 0. -1.
          6    2    1    2  501    0 -0.84096624815E+02  0.70282668303E+01 -0.37996548139E+03  0.42559881878E+03  0.17215966037E+03 0.  0.
         24    2    3    3    0    0 -0.20960302463E+02 -0.54510973962E+02 -0.14853870711E+03  0.17790199763E+03  0.78578576517E+02 0.  0.
         -6    2    1    2    0  502  0.84096624815E+02 -0.70282668303E+01  0.18842436167E+03  0.26924168536E+03  0.17281697319E+03 0.  0.
        -24    2    5    5    0    0  0.61184509975E+02 -0.71325000644E+02  0.12291458508E+03  0.17451758170E+03  0.80731599247E+02 0.  0.
          5    1    3    3  501    0 -0.63136322352E+02  0.61539240792E+02 -0.23142677428E+03  0.24769682115E+03  0.47000000000E+01 0. -1.
        -13    1    4    4    0    0  0.12360042110E+01 -0.68151437204E+02 -0.12684728288E+03  0.14400131692E+03  0.00000000000E+00 0.  1.
         14    1    4    4    0    0 -0.22196306674E+02  0.13640463242E+02 -0.21691424228E+02  0.33900680708E+02  0.00000000000E+00 0. -1.
         -5    1    5    5    0  502  0.22912114840E+02  0.64296733814E+02  0.65509776589E+02  0.94724103661E+02  0.47000000000E+01 0.  1.
         11    1    6    6    0    0  0.55733578652E+02 -0.68687228066E+02  0.13476995344E+03  0.16120517187E+03  0.00000000000E+00 0. -1.
        -12    1    6    6    0    0  0.54509313233E+01 -0.26377725785E+01 -0.11855368355E+02  0.13312409823E+02  0.00000000000E+00 0.  1.
</event>
<event>
12    1  0.8462562E-002  0.1736703E+03  0.7818608E-02  0.1174159E+00
         21   -1    0    0  501  502  0.00000000000E+00  0.00000000000E+00  0.10765643973E+03  0.10765643973E+03  0.00000000000E+00 0.  1.
         21   -1    0    0  502  503 -0.00000000000E+00 -0.00000000000E+00 -0.10752308318E+04  0.10752308318E+04  0.00000000000E+00 0.  1.
         -6    2    1    2    0  503 -0.62840393774E+01 -0.27378026883E+02 -0.99266886971E+03  0.10077464225E+04  0.17138355164E+03 0.  0.
        -24    2    3    3    0    0 -0.44779698936E+02 -0.68181952042E+02 -0.62753871130E+03  0.63830224722E+03  0.83492063068E+02 0.  0.
          6    2    1    2  501    0  0.62840393774E+01  0.27378026883E+02  0.25094477596E+02  0.17514084901E+03  0.17104250548E+03 0.  0.
         24    2    5    5    0    0  0.28854598184E+02  0.36337115992E+02  0.71939311419E+02  0.12216704550E+03  0.87158181737E+02 0.  0.
          5    1    5    5  501    0 -0.22570558806E+02 -0.89590891095E+01 -0.46844833823E+02  0.52973803511E+02  0.47000000000E+01 0. -1.
        -13    1    6    6    0    0 -0.12669032606E+02  0.14301428881E+02  0.72683636625E+02  0.75152819563E+02  0.00000000000E+00 0.  1.
         14    1    6    6    0    0  0.41523630790E+02  0.22035687111E+02 -0.74432520560E+00  0.47014225937E+02  0.00000000000E+00 0. -1.
         -5    1    3    3    0  503  0.38495659559E+02  0.40803925160E+02 -0.36513015840E+03  0.36944417533E+03  0.47000000000E+01 0.  1.
         11    1    4    4    0    0 -0.55875945136E+02 -0.14520423685E+02 -0.23658753918E+03  0.24352952109E+03  0.00000000000E+00 0. -1.
        -12    1    4    4    0    0  0.11096246200E+02 -0.53661528357E+02 -0.39095117213E+03  0.39477272612E+03  0.00000000000E+00 0.  1.
</event>
<event>
12    1  0.8462562E-002  0.2010459E+03  0.7818608E-02  0.1149361E+00
         21   -1    0    0  503  502  0.00000000000E+00  0.00000000000E+00  0.65403084549E+03  0.65403084549E+03  0.00000000000E+00 0. -1.
         21   -1    0    0  501  503 -0.00000000000E+00 -0.00000000000E+00 -0.15006856700E+03  0.15006856700E+03  0.00000000000E+00 0.  1.
          6    2    1    2  501    0 -0.73741444524E+02 -0.71844610731E+02 -0.58242124812E+02  0.20702885308E+03  0.16990983542E+03 0.  0.
         24    2    3    3    0    0 -0.10224789191E+03 -0.53680628348E+02 -0.85091674355E+02  0.16360609281E+03  0.78677311226E+02 0.  0.
         -6    2    1    2    0  502  0.73741444524E+02  0.71844610731E+02  0.56220440330E+03  0.59707055941E+03  0.17268472164E+03 0.  0.
        -24    2    5    5    0    0  0.82464775367E+02  0.42012810475E+02  0.20836813329E+03  0.24184073411E+03  0.80648287531E+02 0.  0.
          5    1    3    3  501    0  0.28506447385E+02 -0.18163982383E+02  0.26849549543E+02  0.43422760267E+02  0.47000000000E+01 0. -1.
        -11    1    4    4    0    0 -0.25206530160E+02 -0.24008825751E+01 -0.63800510338E+02  0.68641376146E+02  0.00000000000E+00 0.  1.
         12    1    4    4    0    0 -0.77041361749E+02 -0.51279745773E+02 -0.21291164017E+02  0.94964716668E+02  0.00000000000E+00 0. -1.
         -5    1    5    5    0  502 -0.87233308428E+01  0.29831800256E+02  0.35383627001E+03  0.35522982530E+03  0.47000000000E+01 0.  1.
         11    1    6    6    0    0  0.24210444134E+02  0.27118625598E+02  0.16167455854E+03  0.16571128006E+03  0.00000000000E+00 0. -1.
        -12    1    6    6    0    0  0.58254331233E+02  0.14894184877E+02  0.46693574749E+02  0.76129454046E+02  0.00000000000E+00 0.  1.
</event>
<event>
12    1  0.8462562E-002  0.2331615E+03  0.7818608E-02  0.1124469E+00
         21   -1    0    0  503  502  0.00000000000E+00  0.00000000000E+00  0.19829524880E+03  0.19829524880E+03  0.00000000000E+00 0.  1.
         21   -1    0    0  501  503 -0.00000000000E+00 -0.00000000000E+00 -0.37545025234E+03  0.37545025234E+03  0.00000000000E+00 0. -1.
          6    2    1    2  501    0 -0.15450626264E+03  0.31336791766E+02 -0.23778363509E+03  0.33302452063E+03  0.17178502411E+03 0.  0.
         24    2    3    3    0    0 -0.91444276162E+02  0.46766521522E+02 -0.58464872920E+02  0.14225712518E+03  0.79181974722E+02 0.  0.
         -6    2    1    2    0  502  0.15450626264E+03 -0.31336791766E+02  0.60628631549E+02  0.24072098052E+03  0.17151262282E+03 0.  0.
        -24    2    5    5    0    0  0.12728910699E+03 -0.76991794713E+02  0.13901873408E+02  0.16979402667E+03  0.80662855131E+02 0.  0.
          5    1    3    3  501    0 -0.63061986475E+02 -0.15429729756E+02 -0.17931876217E+03  0.19076739545E+03  0.47000000000E+01 0. -1.
        -13    1    4    4    0    0 -0.75572248119E+02 -0.45635856973E+01 -0.29827708927E+02  0.81373725613E+02  0.00000000000E+00 0.  1.
         14    1    4    4    0    0 -0.15872028042E+02  0.51330107219E+02 -0.28637163993E+02  0.60883399567E+02  0.00000000000E+00 0. -1.
         -5    1    5    5    0  502  0.27217155646E+02  0.45655002947E+02  0.46726758141E+02  0.70926953846E+02  0.47000000000E+01 0.  1.
         13    1    6    6    0    0  0.44150657014E+02 -0.73542600445E+02  0.25708248257E+01  0.85816104172E+02  0.00000000000E+00 0. -1.
        -14    1    6    6    0    0  0.83138449977E+02 -0.34491942682E+01  0.11331048583E+02  0.83977922501E+02  0.00000000000E+00 0.  1.
</event>
<event>
12    1  0.8462562E-002  0.1742030E+03  0.7818608E-02  0.1173636E+00
         21   -1    0    0  501  502  0.00000000000E+00  0.00000000000E+00  0.54285091074E+02  0.54285091074E+02  0.00000000000E+00 0.  1.
         21   -1    0    0  502  503 -0.00000000000E+00 -0.00000000000E+00 -0.83064853051E+03  0.83064853051E+03  0.00000000000E+00 0.  1.
         -6    2    1    2    0  503  0.27854050303E+01 -0.24357480478E+02 -0.64210651497E+03  0.66531756024E+03  0.17246922641E+03 0.  0.
        -24    2    3    3    0    0 -0.19726228785E+02  0.25883668711E+02 -0.17891941748E+03  0.19884642071E+03  0.80427934642E+02 0.  0.
          6    2    1    2  501    0 -0.27854050303E+01  0.24357480478E+02 -0.13425692446E+03  0.21961606134E+03  0.17206175431E+03 0.  0.
         24    2    5    5    0    0 -0.42681031989E+02  0.65133289684E+02 -0.11459200569E+03  0.15909229165E+03  0.78198552283E+02 0.  0.
          5    1    5    5  501    0  0.39895626958E+02 -0.40775809205E+02 -0.19664918773E+02  0.60523769687E+02  0.47000000000E+01 0. -1.
        -11    1    6    6    0    0 -0.17774410820E+02 -0.83027118696E+00  0.65200404313E+01  0.18950724458E+02  0.00000000000E+00 0.  1.
         12    1    6    6    0    0 -0.24906621168E+02  0.65963560871E+02 -0.12111204612E+03  0.14014156719E+03  0.00000000000E+00 0. -1.
         -5    1    3    3    0  503  0.22511633816E+02 -0.50241149190E+02 -0.46318709749E+03  0.46647113953E+03  0.47000000000E+01 0.  1.
         13    1    4    4    0    0 -0.42582300404E+02 -0.47300976252E+01 -0.58496061863E+02  0.72508036691E+02  0.00000000000E+00 0. -1.
        -14    1    4    4    0    0  0.22856071619E+02  0.30613766336E+02 -0.12042335562E+03  0.12633838402E+03  0.00000000000E+00 0.  1.
</event>
<event>
12    1  0.8462562E-002  0.2079361E+03  0.7818608E-02  0.1144871E+00
         21   -1    0    0  503  502  0.00000000000E+00  0.00000000000E+00  0.98120770133E+02  0.98120770133E+02  0.00000000000E+00 0. -1.
         21   -1    0    0  501  503 -0.00000000000E+00 -0.00000000000E+00 -0.76664307775E+03  0.76664307775E+03  0.00000000000E+00 0. -1.
          6    2    1    2  501    0 -0.76931791830E+02 -0.61544298986E+02 -0.62711437882E+03  0.66068892075E+03  0.18311527665E+03 0.  0.
         24    2    3    3    0    0 -0.45738257181E+02  0.30851735354E+02 -0.19869671963E+03  0.22128723155E+03  0.80273499426E+02 0.  0.
         -6    2    1    2    0  502  0.76931791830E+02  0.61544298986E+02 -0.41407928795E+02  0.20407492713E+03  0.17385556645E+03 0.  0.
        -24    2    5    5    0    0  0.10067611462E+03  0.90541341561E+02 -0.49862694414E+02  0.16536841083E+03  0.80789902957E+02 0.  0.
          5    1    3    3  501    0 -0.31193534650E+02 -0.92396034340E+02 -0.42841765919E+03  0.43940168920E+03  0.47000000000E+01 0. -1.
        -11    1    4    4    0    0 -0.58242833039E+02  0.47012380370E+02 -0.17269091041E+03  0.18821408567E+03  0.00000000000E+00 0.  1.
         12    1    4    4    0    0  0.12504575858E+02 -0.16160645016E+02 -0.26005809223E+02  0.33073145875E+02  0.00000000000E+00 0. -1.
         -5    1    5    5    0  502 -0.23744322789E+02 -0.28997042574E+02  0.84547656194E+01  0.38706516304E+02  0.47000000000E+01 0.  1.
         13    1    6    6    0    0  0.80719260138E+02  0.49050984137E+02  0.39639980860E+01  0.94537353902E+02  0.00000000000E+00 0. -1.
        -14    1    6    6    0    0  0.19956854480E+02  0.41490357424E+02 -0.53826692500E+02  0.70831056927E+02  0.00000000000E+00 0.  1.
</event>
<event>
12    1  0.8462562E-002  0.2099943E+03  0.7818608E-02  0.1141601E+00
         21   -1    0    0  501  502  0.00000000000E+00  0.00000000000E+00  0.41236880588E+03  0.41236880588E+03  0.00000000000E+00 0.  1.
         21   -1    0    0  502  503 -0.00000000000E+00 -0.00000000000E+00 -0.13455638561E+03  0.13455638561E+03  0.00000000000E+00 0. -1.
         -6    2    1    2    0  503  0.29056316701E+02  0.11900431640E+03  0.14797618369E+02  0.21036259347E+03  0.17037357296E+03 0.  0.
        -24    2    3    3    0    0  0.62136345203E+02  0.23326780006E+02  0.30252995278E+02  0.10784704377E+03  0.79439770052E+02 0.  0.
          6    2    1    2  501    0 -0.29056316701E+02 -0.11900431640E+03  0.26301480190E+03  0.33656259802E+03  0.17056171759E+03 0.  0.
         24    2    5    5    0    0  0.32038243362E+02 -0.11911997858E+03  0.20140943493E+03  0.24967261076E+03  0.80960692631E+02 0.  0.
          5    1    5    5  501    0 -0.61094560064E+02  0.11566217753E+00  0.61605366974E+02  0.86889987266E+02  0.47000000000E+01 0. -1.
        -13    1    6    6    0    0 -0.74695418355E+01 -0.10548677695E+03  0.14518535263E+03  0.17961637115E+03  0.00000000000E+00 0.  1.
         14    1    6    6    0    0  0.39507785198E+02 -0.13633201624E+02  0.56224082295E+02  0.70056239605E+02  0.00000000000E+00 0. -1.
         -5    1    3    3    0  503 -0.33080028501E+02  0.95677536392E+02 -0.15455376909E+02  0.10251554970E+03  0.47000000000E+01 0.  1.
         13    1    4    4    0    0  0.25765423174E+02 -0.29624815059E+02  0.10569364486E+02  0.40659539646E+02  0.00000000000E+00 0. -1.
        -14    1    4    4    0    0  0.36370922028E+02  0.52951595065E+02  0.19683630792E+02  0.67187504123E+02  0.00000000000E+00 0.  1.
</event>
<event>
12    1  0.8462562E-002  0.1942492E+03  0.7818608E-02  0.1155468E+00
         21   -1    0    0  501  502  0.00000000000E+00  0.00000000000E+00  0.12053258881E+03  0.12053258881E+03  0.00000000000E+00 0. -1.
         21   -1    0    0  502  503 -0.00000000000E+00 -0.00000000000E+00 -0.35312254428E+03  0.35312254428E+03  0.00000000000E+00 0. -1.
         -6    2    1    2    0  503 -0.24891058770E+02 -0.77867283962E+02 -0.20061308238E+03  0.27679157542E+03  0.17229361184E+03 0.  0.
        -24    2    3    3    0    0 -0.64040438703E+02 -0.99781749195E+02 -0.17278616543E+03  0.22378832040E+03  0.78540296159E+02 0.  0.
          6    2    1    2  501    0  0.24891058770E+02  0.77867283962E+02 -0.31976873090E+02  0.19686355768E+03  0.17620970805E+03 0.  0.
         24    2    5    5    0    0 -0.34696362056E+02  0.87144219667E+02 -0.52961139553E+02  0.13283893979E+03  0.77738980311E+02 0.  0.
          5    1    5    5  501    0  0.59587420826E+02 -0.92769357056E+01  0.20984266463E+02  0.64024617888E+02  0.47000000000E+01 0. -1.
        -11    1    6    6    0    0 -0.31708148647E+02  0.73149666863E+02 -0.18344729006E+01  0.79747387064E+02  0.00000000000E+00 0.  1.
         12    1    6    6    0    0 -0.29882134091E+01  0.13994552804E+02 -0.51126666653E+02  0.53091552723E+02  0.00000000000E+00 0. -1.
         -5    1    3    3    0  503  0.39149379933E+02  0.21914465233E+02 -0.27826916950E+02  0.53003255018E+02  0.47000000000E+01 0.  1.
         11    1    4    4    0    0  0.13530271048E+02 -0.40540485116E+02 -0.70210348402E+02  0.82195451156E+02  0.00000000000E+00 0. -1.
        -12    1    4    4    0    0 -0.77570709751E+02 -0.59241264078E+02 -0.10257581703E+03  0.14159286924E+03  0.00000000000E+00 0.  1.
</event>
<event>
12    1  0.8462562E-002  0.3094703E+03  0.7818608E-02  0.1080673E+00
         21   -1    0    0  503  502  0.00000000000E+00  0.00000000000E+00  0.57678689377E+03  0.57678689377E+03  0.00000000000E+00 0.  1.
         21   -1    0    0  501  503 -0.00000000000E+00 -0.00000000000E+00 -0.26667533630E+03  0.26667533630E+03  0.00000000000E+00 0.  1.
          6    2    1    2  501    0  0.14879881228E+02  0.25591468539E+03 -0.10452032264E+03  0.32607315436E+03  0.17229470998E+03 0.  0.
         24    2    3    3    0    0  0.63497645235E+02  0.14687231942E+03 -0.10994971155E+03  0.20646758252E+03  0.70260190701E+02 0.  0.
         -6    2    1    2    0  502 -0.14879881228E+02 -0.25591468539E+03  0.41463188011E+03  0.51738907572E+03  0.17337278508E+03 0.  0.
        -24    2    5    5    0    0 -0.16001925712E+01 -0.44035795145E+02  0.17719004766E+03  0.19884594197E+03  0.78750770015E+02 0.  0.
          5    1    3    3  501    0 -0.48617764007E+02  0.10904236597E+03  0.54293889057E+01  0.11960557184E+03  0.47000000000E+01 0. -1.
        -11    1    4    4    0    0  0.44707565796E+02  0.55217759548E+02 -0.13925661581E+02  0.72399526652E+02  0.00000000000E+00 0.  1.
         12    1    4    4    0    0  0.18790079439E+02  0.91654559875E+02 -0.96024049965E+02  0.13406805586E+03  0.00000000000E+00 0. -1.
         -5    1    5    5    0  502 -0.13279688657E+02 -0.21187889024E+03  0.23744183245E+03  0.31854313375E+03  0.47000000000E+01 0.  1.
         11    1    6    6    0    0  0.15709625481E+02 -0.28507513080E+02  0.17195659941E+03  0.17501012175E+03  0.00000000000E+00 0. -1.
        -12    1    6    6    0    0 -0.17309818052E+02 -0.15528282065E+02  0.52334482487E+01  0.23835820218E+02  0.00000000000E+00 0.  1.
</event>
<event>
12    1  0.8462562E-002  0.2172586E+03  0.7818608E-02  0.1136397E+00
         21   -1    0    0  503  502  0.00000000000E+00  0.00000000000E+00  0.63797937554E+03  0.63797937554E+03  0.00000000000E+00 0. -1.
         21   -1    0    0  501  503 -0.00000000000E+00 -0.00000000000E+00 -0.11220529129E+03  0.11220529129E+03  0.00000000000E+00 0. -1.
          6    2    1    2  501    0 -0.15514764756E+02  0.13174018369E+03  0.42615465946E+02  0.22139863935E+03  0.17206131362E+03 0.  0.
         24    2    3    3    0    0 -0.21617962602E+02  0.16176779508E+03  0.52505668252E+02  0.18885923906E+03  0.79213705541E+02 0.  0.
         -6    2    1    2    0  502  0.15514764756E+02 -0.13174018369E+03  0.48315861831E+03  0.52878602747E+03  0.16904504867E+03 0.  0.
        -24    2    5    5    0    0  0.68906732094E+02 -0.82591718005E+02  0.37052753878E+03  0.39471841792E+03  0.83321322839E+02 0.  0.
          5    1    3    3  501    0  0.61031978463E+01 -0.30027611392E+02 -0.98902023057E+01  0.32539400294E+02  0.47000000000E+01 0. -1.
        -11    1    4    4    0    0  0.21452052087E+02  0.29256574021E+02 -0.76777088173E+01  0.37082136871E+02  0.00000000000E+00 0.  1.
         12    1    4    4    0    0 -0.43070014689E+02  0.13251122106E+03  0.60183377069E+02  0.15177710219E+03  0.00000000000E+00 0. -1.
         -5    1    5    5    0  502 -0.53391967338E+02 -0.49148465688E+02  0.11263107952E+03  0.13406760955E+03  0.47000000000E+01 0.  1.
         11    1    6    6    0    0 -0.12962544623E+02 -0.34459619317E+02  0.64207908215E+02  0.74014514819E+02  0.00000000000E+00 0. -1.
        -12    1    6    6    0    0  0.81869276717E+02 -0.48132098689E+02  0.30631963057E+03  0.32070390310E+03  0.00000000000E+00 0.  1.
</event>
<event>
12    1  0.8462562E-002  0.2908262E+03  0.7818608E-02  0.1089939E+00
         21   -1    0    0  503  502  0.00000000000E+00  0.00000000000E+00  0.31831893426E+02  0.31831893426E+02  0.00000000000E+00 0. -1.
         21   -1    0    0  501  503 -0.00000000000E+00 -0.00000000000E+00 -0.26570491945E+04  0.26570491945E+04  0.00000000000E+00 0. -1.
          6    2    1    2  501    0  0.11920846166E+03  0.20124269032E+03 -0.12812651083E+04  0.13138220470E+04  0.17256539520E+03 0.  0.
         24    2    3    3    0    0  0.13778686900E+03  0.18202715610E+03 -0.12468047822E+04  0.12699586448E+04  0.78445444311E+02 0.  0.
         -6    2    1    2    0  502 -0.11920846166E+03 -0.20124269032E+03 -0.13439521928E+04  0.13750590410E+04  0.17283110805E+03 0.  0.
        -24    2    5    5    0    0 -0.13536388437E+03 -0.14378754462E+03 -0.12055766867E+04  0.12242878165E+04  0.80419343875E+02 0.  0.
          5    1    3    3  501    0 -0.18578407346E+02  0.19215534219E+02 -0.34460326038E+02  0.43863402119E+02  0.47000000000E+01 0. -1.
        -13    1    4    4    0    0  0.83906526692E+01  0.67010932835E+02 -0.30691196815E+03  0.31425439435E+03  0.00000000000E+00 0.  1.
         14    1    4    4    0    0  0.12939621633E+03  0.11501622327E+03 -0.93989281410E+03  0.95570425049E+03  0.00000000000E+00 0. -1.
         -5    1    5    5    0  502  0.16155422716E+02 -0.57455145699E+02 -0.13837550607E+03  0.15077122448E+03  0.47000000000E+01 0.  1.
         13    1    6    6    0    0 -0.36585039135E+02 -0.97232313163E+02 -0.56568626674E+03  0.57514653802E+03  0.00000000000E+00 0. -1.
        -14    1    6    6    0    0 -0.98778845238E+02 -0.46555231459E+02 -0.63989041996E+03  0.64914127846E+03  0.00000000000E+00 0.  1.
</event>
<event>
12    1  0.8462562E-002  0.1941172E+03  0.7818608E-02  0.1158680E+00
         21   -1    0    0  501  502  0.00000000000E+00  0.00000000000E+00  0.48024025366E+03  0.48024025366E+03  0.00000000000E+00 0.  1.
         21   -1    0    0  502  503 -0.00000000000E+00 -0.00000000000E+00 -0.72552965023E+02  0.72552965023E+02  0.00000000000E+00 0.  1.
         -6    2    1    2    0  503 -0.37825937084E+02  0.26946298034E+02  0.24117256817E+03  0.30958958738E+03  0.18847970841E+03 0.  0.
        -24    2    3    3    0    0  0.40562083887E+02 -0.33607783265E+02  0.11987906534E+03  0.15291896977E+03  0.78983892427E+02 0.  0.
          6    2    1    2  501    0  0.37825937084E+02 -0.26946298034E+02  0.16651472047E+03  0.24320363131E+03  0.17106709109E+03 0.  0.
         24    2    5    5    0    0  0.71728681618E+02 -0.36281145143E+02  0.54825451969E+02  0.12601524384E+03  0.80079249734E+02 0.  0.
          5    1    5    5  501    0 -0.33902744534E+02  0.93348471094E+01  0.11168926850E+03  0.11718838746E+03  0.47000000000E+01 0. -1.
        -13    1    6    6    0    0  0.12989859021E+02 -0.46927760000E+02  0.43419236544E+02  0.65239414452E+02  0.00000000000E+00 0.  1.
         14    1    6    6    0    0  0.58738822597E+02  0.10646614856E+02  0.11406215425E+02  0.60775829393E+02  0.00000000000E+00 0. -1.
         -5    1    3    3    0  503 -0.78388020971E+02  0.60554081300E+02  0.12129350283E+03  0.15667061761E+03  0.47000000000E+01 0.  1.
         11    1    4    4    0    0  0.95356704135E+01 -0.31468076297E+02  0.11717552770E+03  0.12170157406E+03  0.00000000000E+00 0. -1.
        -12    1    4    4    0    0  0.31026413474E+02 -0.21397069680E+01  0.27035376345E+01  0.31217395707E+02  0.00000000000E+00 0.  1.
</event>
<event>
12    1  0.8462562E-002  0.3680150E+03  0.7818608E-02  0.1055686E+00
         21   -1    0    0  503  502  0.00000000000E+00  0.00000000000E+00  0.13550024517E+04  0.13550024517E+04  0.00000000000E+00 0.  1.
         21   -1    0    0  501  503 -0.00000000000E+00 -0.00000000000E+00 -0.22357110461E+03  0.22357110461E+03  0.00000000000E+00 0. -1.
          6    2    1    2  501    0  0.96636459350E+02 -0.30790831877E+03 -0.21909268199E+02  0.36866654477E+03  0.17688659405E+03 0.  0.
         24    2    3    3    0    0  0.98196420694E+02 -0.28074904021E+03  0.30524114597E+02  0.30940939733E+03  0.79623444819E+02 0.  0.
         -6    2    1    2    0  502 -0.96636459350E+02  0.30790831877E+03  0.11533406153E+04  0.12099070115E+04  0.17185535679E+03 0.  0.
        -24    2    5    5    0    0 -0.10097993520E+03  0.12495097017E+03  0.61299531058E+03  0.63939198500E+03  0.85142042669E+02 0.  0.
          5    1    3    3  501    0 -0.15599613447E+01 -0.27159278555E+02 -0.52433382796E+02  0.59257147438E+02  0.47000000000E+01 0. -1.
        -11    1    4    4    0    0  0.40048943390E+02 -0.40691548996E+02  0.25054479406E+02  0.62349394260E+02  0.00000000000E+00 0.  1.
         12    1    4    4    0    0  0.58147477304E+02 -0.24005749122E+03  0.54696351912E+01  0.24706000307E+03  0.00000000000E+00 0. -1.
         -5    1    5    5    0  502  0.43434758468E+01  0.18295734860E+03  0.54034530470E+03  0.57051502654E+03  0.47000000000E+01 0.  1.
         11    1    6    6    0    0 -0.33453239080E+02  0.41716906782E+02  0.36952528556E+03  0.37337428431E+03  0.00000000000E+00 0. -1.
        -12    1    6    6    0    0 -0.67526696117E+02  0.83234063390E+02  0.24347002502E+03  0.26601770069E+03  0.00000000000E+00 0.  1.
</event>
<event>
12    1  0.8462562E-002  0.1726299E+03  0.7818608E-02  0.1175159E+00
         21   -1    0    0  501  502  0.00000000000E+00  0.00000000000E+00  0.74440114587E+03  0.74440114587E+03  0.00000000000E+00 0. -1.
         21   -1    0    0  502  503 -0.00000000000E+00 -0.00000000000E+00 -0.66626681721E+02  0.66626681721E+02  0.00000000000E+00 0. -1.
         -6    2    1    2    0  503  0.81560201406E+01  0.10819739122E+01  0.82641890781E+02  0.19139163548E+03  0.17243371100E+03 0.  0.
        -24    2    3    3    0    0 -0.47911000395E+01  0.57827505646E+02  0.10865197150E+02  0.98862358809E+02  0.79301566386E+02 0.  0.
          6    2    1    2  501    0 -0.81560201406E+01 -0.10819739122E+01  0.59513257337E+03  0.61963619211E+03  0.17233264159E+03 0.  0.
         24    2    5    5    0    0 -0.36014204731E+02 -0.42956809864E+02  0.52054040334E+03  0.52954922211E+03  0.79484317144E+02 0.  0.
          5    1    5    5  501    0  0.27858184591E+02  0.41874835952E+02  0.74592170035E+02  0.90086970008E+02  0.47000000000E+01 0. -1.
        -13    1    6    6    0    0 -0.64423639709E+01 -0.27338299359E+02  0.46455964731E+02  0.54286677228E+02  0.00000000000E+00 0.  1.
         14    1    6    6    0    0 -0.29571840761E+02 -0.15618510505E+02  0.47408443861E+03  0.47526254488E+03  0.00000000000E+00 0. -1.
         -5    1    3    3    0  503  0.12947120180E+02 -0.56745531733E+02  0.71776693631E+02  0.92529276671E+02  0.47000000000E+01 0.  1.
         13    1    4    4    0    0  0.34660909483E+02  0.14212910247E+02  0.13940045753E+02  0.39971368996E+02  0.00000000000E+00 0. -1.
        -14    1    4    4    0    0 -0.39452009522E+02  0.43614595399E+02 -0.30748486030E+01  0.58890989812E+02  0.00000000000E+00 0.  1.
</event>
<event>
12    1  0.8462562E-002  0.2103184E+03  0.7818608E-02  0.1141453E+00
         21   -1    0    0  501  502  0.00000000000E+00  0.00000000000E+00  0.13141832232E+03  0.13141832232E+03  0.00000000000E+00 0.  1.
         21   -1    0    0  502  503 -0.00000000000E+00 -0.00000000000E+00 -0.72718246694E+03  0.72718246694E+03  0.00000000000E+00 0. -1.
         -6    2    1    2    0  503 -0.56294719577E+02  0.10720084301E+03  0.16971471339E+02  0.21100204124E+03  0.17196718981E+03 0.  0.
        -24    2    3    3    0    0 -0.85383092827E+01 -0.87720557586E+01 -0.12808381372E+02  0.82008562327E+02  0.80071830090E+02 0.  0.
          6    2    1    2  501    0  0.56294719577E+02 -0.10720084301E+03 -0.61273561596E+03  0.64759874803E+03  0.17110840772E+03 0.  0.
         24    2    5    5    0    0  0.53832569757E+02 -0.55146486843E+02 -0.56512987598E+03  0.57685898088E+03  0.86344811765E+02 0.  0.
          5    1    5    5  501    0  0.24621498206E+01 -0.52054356170E+02 -0.47605739983E+02  0.70739767156E+02  0.47000000000E+01 0. -1.
        -13    1    6    6    0    0 -0.39098800920E+01 -0.43986769931E+02 -0.12012802353E+03  0.12798775382E+03  0.00000000000E+00 0.  1.
         14    1    6    6    0    0  0.57742449849E+02 -0.11159716912E+02 -0.44500185244E+03  0.44887122705E+03  0.00000000000E+00 0. -1.
         -5    1    3    3    0  503 -0.47756410295E+02  0.11597289877E+03  0.29779852711E+02  0.12899347891E+03  0.47000000000E+01 0.  1.
         11    1    4    4    0    0  0.14461563120E+02  0.27997712213E+02 -0.21003818667E+02  0.37870425079E+02  0.00000000000E+00 0. -1.
        -12    1    4    4    0    0 -0.22999872403E+02 -0.36769767972E+02  0.81954372952E+01  0.44138137248E+02  0.00000000000E+00 0.  1.
</event>
<event>
12    1  0.8462562E-002  0.1891352E+03  0.7818608E-02  0.1160748E+00
         21   -1    0    0  503  502  0.00000000000E+00  0.00000000000E+00  0.14455936279E+03  0.14455936279E+03  0.00000000000E+00 0. -1.
         21   -1    0    0  501  503 -0.00000000000E+00 -0.00000000000E+00 -0.33076052909E+03  0.33076052909E+03  0.00000000000E+00 0. -1.
          6    2    1    2  501    0 -0.30630723496E+02 -0.54068212480E+02 -0.21707769309E+03  0.28368098446E+03  0.17172816682E+03 0.  0.
         24    2    3    3    0    0 -0.52053038428E+02 -0.70216359118E+02 -0.73308918888E+02  0.13735522236E+03  0.76501004065E+02 0.  0.
         -6    2    1    2    0  502  0.30630723496E+02  0.54068212480E+02  0.30876526795E+02  0.19163890742E+03  0.17863509764E+03 0.  0.
        -24    2    5    5    0    0  0.28872534834E+02  0.46667362180E+02 -0.50885850099E+02  0.10938904366E+03  0.79781747115E+02 0.  0.
          5    1    3    3  501    0  0.21422314933E+02  0.16148146638E+02 -0.14376877421E+03  0.14632576210E+03  0.47000000000E+01 0. -1.
        -11    1    4    4    0    0 -0.69650370400E+02 -0.39574818503E+02 -0.43686935719E+02  0.91246307919E+02  0.00000000000E+00 0.  1.
         12    1    4    4    0    0  0.17597331972E+02 -0.30641540615E+02 -0.29621983169E+02  0.46108914438E+02  0.00000000000E+00 0. -1.
         -5    1    5    5    0  502  0.17581886617E+01  0.74008502999E+01  0.81762376894E+02  0.82249863756E+02  0.47000000000E+01 0.  1.
         11    1    6    6    0    0  0.36569796574E+00  0.47756237917E+02  0.35933504881E+01  0.47892631612E+02  0.00000000000E+00 0. -1.
        -12    1    6    6    0    0  0.28506836868E+02 -0.10888757369E+01 -0.54479200587E+02  0.61496412052E+02  0.00000000000E+00 0.  1.
</event>
<event>
12    1  0.8462562E-002  0.1882526E+03  0.7818608E-02  0.1160449E+00
         21   -1    0    0  503  502  0.00000000000E+00  0.00000000000E+00  0.57059157643E+03  0.57059157643E+03  0.00000000000E+00 0. -1.
         21   -1    0    0  501  503 -0.00000000000E+00 -0.00000000000E+00 -0.11094555173E+03  0.11094555173E+03  0.00000000000E+00 0. -1.
          6    2    1    2  501    0 -0.32810235834E+01  0.75197141526E+02  0.30019184910E+01  0.18827655975E+03  0.17255050341E+03 0.  0.
         24    2    3    3    0    0  0.72242371056E+01 -0.27062466936E+02 -0.19282187681E+02  0.82986202109E+02  0.75699010960E+02 0.  0.
         -6    2    1    2    0  502  0.32810235834E+01 -0.75197141526E+02  0.45664410621E+03  0.49326056841E+03  0.17063637773E+03 0.  0.
        -24    2    5    5    0    0  0.10717354647E+02 -0.11192413531E+03  0.41212969530E+03  0.43488425583E+03  0.81434369055E+02 0.  0.
          5    1    3    3  501    0 -0.10505260689E+02  0.10225960846E+03  0.22284106172E+02  0.10529035764E+03  0.47000000000E+01 0. -1.
        -13    1    4    4    0    0  0.34723093136E+02 -0.12857797556E+02  0.12055792137E+02  0.38940445285E+02  0.00000000000E+00 0.  1.
         14    1    4    4    0    0 -0.27498856030E+02 -0.14204669380E+02 -0.31337979817E+02  0.44045756824E+02  0.00000000000E+00 0. -1.
         -5    1    5    5    0  502 -0.74363310640E+01  0.36726993787E+02  0.44514410906E+02  0.58376312581E+02  0.47000000000E+01 0.  1.
         11    1    6    6    0    0 -0.20901394560E+02 -0.92132454484E+02  0.34896766636E+03  0.36152965248E+03  0.00000000000E+00 0. -1.
        -12    1    6    6    0    0  0.31618749207E+02 -0.19791680829E+02  0.63162028947E+02  0.73354603347E+02  0.00000000000E+00 0.  1.
</event>
<event>
12    1  0.8462562E-002  0.1800231E+03  0.7818608E-02  0.1168463E+00
         21   -1    0    0  503  502  0.00000000000E+00  0.00000000000E+00  0.11840042142E+03  0.11840042142E+03  0.00000000000E+00 0. -1.
         21   -1    0    0  501  503 -0.00000000000E+00 -0.00000000000E+00 -0.36872600230E+03  0.36872600230E+03  0.00000000000E+00 0. -1.
          6    2    1    2  501    0 -0.48638949246E+02  0.13466074892E+02 -0.25223675882E+03  0.30988978854E+03  0.17280398139E+03 0.  0.
         24    2    3    3    0    0  0.39300913145E+02  0.16204035202E+02 -0.15046364510E+03  0.17527636982E+03  0.79217200083E+02 0.  0.
         -6    2    1    2    0  502  0.48638949246E+02 -0.13466074892E+02  0.19111779375E+01  0.17723663518E+03  0.16988846250E+03 0.  0.
        -24    2    5    5    0    0 -0.17051305392E+02 -0.56258475117E+02 -0.47010983365E+01  0.98419052945E+02  0.78793696569E+02 0.  0.
          5    1    3    3  501    0 -0.87939862391E+02 -0.27379603108E+01 -0.10177311372E+03  0.13461341873E+03  0.47000000000E+01 0. -1.
        -13    1    4    4    0    0  0.31393569725E+01 -0.33492695579E+01  0.92663191674E+01  0.10341075364E+02  0.00000000000E+00 0.  1.
         14    1    4    4    0    0  0.36161556172E+02  0.19553304760E+02 -0.15972996427E+03  0.16493529445E+03  0.00000000000E+00 0. -1.
         -5    1    5    5    0  502  0.65690254638E+02  0.42792400225E+02  0.66122762740E+01  0.78817582233E+02  0.47000000000E+01 0.  1.
         11    1    6    6    0    0  0.92262462737E+01 -0.68524525587E+02 -0.71164914361E+00  0.69146515977E+02  0.00000000000E+00 0. -1.
        -12    1    6    6    0    0 -0.26277551666E+02  0.12266050470E+02 -0.39894491929E+01  0.29272536968E+02  0.00000000000E+00 0.  1.
</event>
<event>
12    1  0.8462562E-002  0.1802887E+03  0.7818608E-02  0.1167915E+00
         21   -1    0    0  501  502  0.00000000000E+00  0.00000000000E+00  0.87382797566E+02  0.87382797566E+02  0.00000000000E+00 0. -1.
         21   -1    0    0  502  503 -0.00000000000E+00 -0.00000000000E+00 -0.12351326454E+04  0.12351326454E+04  0.00000000000E+00 0. -1.
         -6    2    1    2    0  503  0.23591739911E+02 -0.40071549334E+02 -0.11284913239E+04  0.11428021222E+04  0.17418875700E+03 0.  0.
        -24    2    3    3    0    0  0.65123306812E+02  0.78765538672E-01 -0.93861176154E+03  0.94427439857E+03  0.80131452082E+02 0.  0.
          6    2    1    2  501    0 -0.23591739911E+02  0.40071549334E+02 -0.19258523960E+02  0.17971332082E+03  0.17252155714E+03 0.  0.
         24    2    5    5    0    0 -0.38388925396E+02  0.55019011295E+02 -0.68441470255E+02  0.12601569030E+03  0.81822479513E+02 0.  0.
          5    1    5    5  501    0  0.14797185485E+02 -0.14947461961E+02  0.49182946296E+02  0.53697630522E+02  0.47000000000E+01 0. -1.
        -11    1    6    6    0    0  0.24384852848E+02  0.28876429277E+02 -0.23441190377E+02  0.44474246733E+02  0.00000000000E+00 0.  1.
         12    1    6    6    0    0 -0.62773778244E+02  0.26142582018E+02 -0.45000279878E+02  0.81541443565E+02  0.00000000000E+00 0. -1.
         -5    1    3    3    0  503 -0.41531566901E+02 -0.40150314873E+02 -0.18987956237E+03  0.19852772360E+03  0.47000000000E+01 0.  1.
         13    1    4    4    0    0  0.35425710823E+02 -0.39698270846E+02 -0.52748908271E+03  0.53016569681E+03  0.00000000000E+00 0. -1.
        -14    1    4    4    0    0  0.29697595989E+02  0.39777036385E+02 -0.41112267883E+03  0.41410870177E+03  0.00000000000E+00 0.  1.
</event>
<event>
12    1  0.8462562E-002  0.1785546E+03  0.7818608E-02  0.1169511E+00
         21   -1    0    0  501  502  0.00000000000E+00  0.00000000000E+00  0.27323615455E+03  0.27323615455E+03  0.00000000000E+00 0.  1.
         21   -1    0    0  502  503 -0.00000000000E+00 -0.00000000000E+00 -0.17069094962E+03  0.17069094962E+03  0.00000000000E+00 0.  1.
         -6    2    1    2    0  503  0.47528351686E+02 -0.31622661883E+01 -0.74627157533E+02  0.19238829138E+03  0.17080719504E+03 0.  0.
        -24    2    3    3    0    0  0.88176495419E+02 -0.36904550076E+02 -0.41220706932E+02  0.12970739914E+03  0.77381021897E+02 0.  0.
          6    2    1    2  501    0 -0.47528351686E+02  0.31622661883E+01  0.17717236247E+03  0.25153881279E+03  0.17208365459E+03 0.  0.
         24    2    5    5    0    0 -0.22579778182E+01  0.56152311491E+02  0.57402149914E+02  0.11288692688E+03  0.79311228060E+02 0.  0.
          5    1    5    5  501    0 -0.45270373867E+02 -0.52990045303E+02  0.11977021255E+03  0.13865188591E+03  0.47000000000E+01 0. -1.
        -11    1    6    6    0    0 -0.32948818056E+02  0.26695781598E+02  0.56104157509E+02  0.70327561142E+02  0.00000000000E+00 0.  1.
         12    1    6    6    0    0  0.30690840238E+02  0.29456529893E+02  0.12979924053E+01  0.42559365739E+02  0.00000000000E+00 0. -1.
         -5    1    3    3    0  503 -0.40648143733E+02  0.33742283887E+02 -0.33406450601E+02  0.62680892245E+02  0.47000000000E+01 0.  1.
         13    1    4    4    0    0  0.36143803507E+01 -0.96054585610E+01  0.19532582049E+02  0.22064685381E+02  0.00000000000E+00 0. -1.
        -14    1    4    4    0    0  0.84562115068E+02 -0.27299091514E+02 -0.60753288980E+02  0.10764271375E+03  0.00000000000E+00 0.  1.
</event>
<event>
12    1  0.8462562E-002  0.2074027E+03  0.7818608E-02  0.1145508E+00
         21   -1    0    0  503  502  0.00000000000E+00  0.00000000000E+00  0.35084296054E+03  0.35084296054E+03  0.00000000000E+00 0. -1.
         21   -1    0    0  501  503 -0.00000000000E+00 -0.00000000000E+00 -0.15384102283E+03  0.15384102283E+03  0.00000000000E+00 0. -1.
          6    2    1    2  501    0  0.50080457228E+01 -0.11981684015E+03 -0.22768854116E+02  0.20864878351E+03  0.16921802042E+03 0.  0.
         24    2    3    3    0    0  0.14970121944E+02 -0.42319979481E+01 -0.43051396672E+02  0.90782035685E+02  0.78396051496E+02 0.  0.
         -6    2    1    2    0  502 -0.50080457228E+01  0.11981684015E+03  0.21977079182E+03  0.29603519985E+03  0.15797620994E+03 0.  0.
        -24    2    5    5    0    0  0.61447600824E+01  0.10635538001E+03  0.79272901180E+02  0.15437594932E+03  0.78730654343E+02 0.  0.
          5    1    3    3  501    0 -0.99620762214E+01 -0.11558484220E+03  0.20282542556E+02  0.11786674782E+03  0.47000000000E+01 0. -1.
        -11    1    4    4    0    0 -0.25441792088E+02 -0.17955907510E+02 -0.14370707766E+01  0.31173138622E+02  0.00000000000E+00 0.  1.
         12    1    4    4    0    0  0.40411914032E+02  0.13723909562E+02 -0.41614325896E+02  0.59608897063E+02  0.00000000000E+00 0. -1.
         -5    1    5    5    0  502 -0.11152805805E+02  0.13461460142E+02  0.14049789064E+03  0.14165925053E+03  0.47000000000E+01 0.  1.
         11    1    6    6    0    0  0.36072143141E+02  0.78006794793E+02  0.72832146733E+02  0.11265336720E+03  0.00000000000E+00 0. -1.
        -12    1    6    6    0    0 -0.29927383059E+02  0.28348585217E+02  0.64407544475E+01  0.41722582116E+02  0.00000000000E+00 0.  1.
</event>
<event>
12    1  0.8462562E-002  0.1718279E+03  0.7818608E-02  0.1176852E+00
         21   -1    0    0  501  502  0.00000000000E+00  0.00000000000E+00  0.40857927261E+03  0.40857927261E+03  0.00000000000E+00 0.  1.
         21   -1    0    0  502  503 -0.00000000000E+00 -0.00000000000E+00 -0.70904746254E+02  0.70904746254E+02  0.00000000000E+00 0.  1.
         -6    2    1    2    0  503 -0.80568725995E+01  0.14223875376E+02  0.17549609082E+03  0.24320736930E+03  0.16758196431E+03 0.  0.
        -24    2    3    3    0    0 -0.67991273487E+02 -0.63556682417E+01  0.10930443307E+03  0.15145184859E+03  0.79542413604E+02 0.  0.
          6    2    1    2  501    0  0.80568725995E+01 -0.14223875376E+02  0.16217843553E+03  0.23627664956E+03  0.17104846784E+03 0.  0.
         24    2    5    5    0    0  0.12817003264E+02  0.21337422093E+02  0.17823533972E+03  0.19668903921E+03  0.79367377826E+02 0.  0.
          5    1    5    5  501    0 -0.47601306648E+01 -0.35561297469E+02 -0.16056904192E+02  0.39587610358E+02  0.47000000000E+01 0. -1.
        -13    1    6    6    0    0 -0.28029627264E+02 -0.11720092539E+02  0.58094339414E+02  0.65558926514E+02  0.00000000000E+00 0.  1.
         14    1    6    6    0    0  0.40846630528E+02  0.33057514632E+02  0.12014100031E+03  0.13113011269E+03  0.00000000000E+00 0. -1.
         -5    1    3    3    0  503  0.59934400888E+02  0.20579543618E+02  0.66191657752E+02  0.91755520713E+02  0.47000000000E+01 0.  1.
         13    1    4    4    0    0  0.41578862334E+01  0.66247228696E+01  0.65684076084E+02  0.66148112763E+02  0.00000000000E+00 0. -1.
        -14    1    4    4    0    0 -0.72149159721E+02 -0.12980391111E+02  0.43620356987E+02  0.85303735824E+02  0.00000000000E+00 0.  1.
</event>
<event>
12    1  0.8462562E-002  0.2079031E+03  0.7818608E-02  0.1143557E+00
         21   -1    0    0  501  502  0.00000000000E+00  0.00000000000E+00  0.37351363245E+03  0.37351363245E+03  0.00000000000E+00 0.  1.
         21   -1    0    0  502  503 -0.00000000000E+00 -0.00000000000E+00 -0.14001250885E+03  0.14001250885E+03  0.00000000000E+00 0. -1.
         -6    2    1    2    0  503  0.11341977946E+03 -0.39735786192E+02  0.75109765940E+01  0.20645082853E+03  0.16769779592E+03 0.  0.
        -24    2    3    3    0    0  0.60337267724E+01  0.19276683475E+02 -0.62936524186E+01  0.83053528440E+02  0.80313648535E+02 0.  0.
          6    2    1    2  501    0 -0.11341977946E+03  0.39735786192E+02  0.22599014701E+03  0.30707531276E+03  0.16964881988E+03 0.  0.
         24    2    5    5    0    0 -0.11537643232E+03  0.79274509830E+02  0.21202969313E+03  0.26483642748E+03  0.74736694536E+02 0.  0.
          5    1    5    5  501    0  0.19566528608E+01 -0.39538723638E+02  0.13960453883E+02  0.42238885283E+02  0.47000000000E+01 0. -1.
        -11    1    6    6    0    0 -0.16917142210E+01  0.11168530627E+02  0.68724845611E+02  0.69646983981E+02  0.00000000000E+00 0.  1.
         12    1    6    6    0    0 -0.11368471810E+03  0.68105979203E+02  0.14330484751E+03  0.19518944350E+03  0.00000000000E+00 0. -1.
         -5    1    3    3    0  503  0.10738605269E+03 -0.59012469668E+02  0.13804629013E+02  0.12339730009E+03  0.47000000000E+01 0.  1.
         13    1    4    4    0    0  0.62031594138E+01  0.33740295770E+02 -0.36175231635E+02  0.49855131423E+02  0.00000000000E+00 0. -1.
        -14    1    4    4    0    0 -0.16943264131E+00 -0.14463612294E+02  0.29881579217E+02  0.33198397017E+02  0.00000000000E+00 0.  1.
</event>
<event>
12    1  0.8462562E-002  0.2021150E+03  0.7818608E-02  0.1148169E+00
         21   -1    0    0  501  502  0.00000000000E+00  0.00000000000E+00  0.14580727946E+04  0.14580727946E+04  0.00000000000E+00 0. -1.
         21   -1    0    0  502  503 -0.00000000000E+00 -0.00000000000E+00 -0.29622135135E+02  0.29622135135E+02  0.00000000000E+00 0. -1.
         -6    2    1    2    0  503 -0.10359574635E+03  0.25805784570E+02  0.53557637268E+03  0.57244435373E+03  0.17161721933E+03 0.  0.
        -24    2    3    3    0    0 -0.13654573273E+03  0.30442367310E+02  0.41644802454E+03  0.44866692109E+03  0.91112974265E+02 0.  0.
          6    2    1    2  501    0  0.10359574635E+03 -0.25805784570E+02  0.89287428674E+03  0.91525057596E+03  0.17047318759E+03 0.  0.
         24    2    5    5    0    0  0.17730401426E+02 -0.50534111526E+02  0.28146471459E+03  0.29732816777E+03  0.79458103623E+02 0.  0.
          5    1    5    5  501    0  0.85865344928E+02  0.24728326956E+02  0.61140957216E+03  0.61792240819E+03  0.47000000000E+01 0. -1.
        -11    1    6    6    0    0  0.39014805423E+02 -0.40821514720E+02  0.10411464796E+03  0.11844159331E+03  0.00000000000E+00 0.  1.
         12    1    6    6    0    0 -0.21284403997E+02 -0.97125968065E+01  0.17735006663E+03  0.17888657446E+03  0.00000000000E+00 0. -1.
         -5    1    3    3    0  503  0.32949986381E+02 -0.46365827399E+01  0.11912834813E+03  0.12377743264E+03  0.47000000000E+01 0.  1.
         11    1    4    4    0    0 -0.20562925711E+01  0.11582144897E+02  0.12575618233E+01  0.11830295064E+02  0.00000000000E+00 0. -1.
        -12    1    4    4    0    0 -0.13448944016E+03  0.18860222413E+02  0.41519046272E+03  0.43683662603E+03  0.00000000000E+00 0.  1.
</event>
<event>
12    1  0.8462562E-002  0.2099750E+03  0.7818608E-02  0.1141726E+00
         21   -1    0    0  501  502  0.00000000000E+00  0.00000000000E+00  0.34164076736E+03  0.34164076736E+03  0.00000000000E+00 0.  1.
         21   -1    0    0  502  503 -0.00000000000E+00 -0.00000000000E+00 -0.78876956238E+03  0.78876956238E+03  0.00000000000E+00 0. -1.
         -6    2    1    2    0  503 -0.28487910995E+02  0.11708961661E+03 -0.74070029494E+03  0.76988727436E+03  0.17195333351E+03 0.  0.
        -24    2    3    3    0    0  0.18558871153E+02  0.32521079889E+02 -0.18430712539E+03  0.20512122878E+03  0.81875208046E+02 0.  0.
          6    2    1    2  501    0  0.28487910995E+02 -0.11708961661E+03  0.29357149992E+03  0.36052305538E+03  0.17108801391E+03 0.  0.
         24    2    5    5    0    0  0.84527621817E+02 -0.72847296608E+02  0.18762684844E+03  0.23267865290E+03  0.80522504842E+02 0.  0.
          5    1    5    5  501    0 -0.56039710822E+02 -0.44242320000E+02  0.10594465148E+03  0.12784440248E+03  0.47000000000E+01 0. -1.
        -11    1    6    6    0    0  0.15442195557E+02  0.54530922767E+01  0.83942255850E+02  0.85524849817E+02  0.00000000000E+00 0.  1.
         12    1    6    6    0    0  0.69085426260E+02 -0.78300388885E+02  0.10368459259E+03  0.14715380308E+03  0.00000000000E+00 0. -1.
         -5    1    3    3    0  503 -0.47046782148E+02  0.84568536719E+02 -0.55639316955E+03  0.56476604558E+03  0.47000000000E+01 0.  1.
         13    1    4    4    0    0 -0.26741723544E+02 -0.19794566992E+01 -0.28017926803E+02  0.38781983565E+02  0.00000000000E+00 0. -1.
        -14    1    4    4    0    0  0.45300594697E+02  0.34500536588E+02 -0.15628919859E+03  0.16633924522E+03  0.00000000000E+00 0.  1.
</event>
<event>
12    1  0.8462562E-002  0.2064303E+03  0.7818608E-02  0.1145398E+00
         21   -1    0    0  503  502  0.00000000000E+00  0.00000000000E+00  0.13604099262E+03  0.13604099262E+03  0.00000000000E+00 0. -1.
         21   -1    0    0  501  503 -0.00000000000E+00 -0.00000000000E+00 -0.65064673655E+03  0.65064673655E+03  0.00000000000E+00 0. -1.
          6    2    1    2  501    0  0.88698793072E+02  0.68334822819E+02 -0.54213179601E+03  0.57843028878E+03  0.16774263270E+03 0.  0.
         24    2    3    3    0    0  0.11302158048E+03  0.71014839198E+02 -0.34184252373E+03  0.37659703318E+03  0.84569671435E+02 0.  0.
         -6    2    1    2    0  502 -0.88698793072E+02 -0.68334822819E+02  0.27526052085E+02  0.20825744040E+03  0.17342535580E+03 0.  0.
        -24    2    5    5    0    0 -0.62192055232E+02 -0.41893445873E+02  0.85104348195E+02  0.13941629174E+03  0.81063183872E+02 0.  0.
          5    1    3    3  501    0 -0.24322787408E+02 -0.26800163785E+01 -0.20028927228E+03  0.20183325560E+03  0.47000000000E+01 0. -1.
        -11    1    4    4    0    0  0.18496930186E+02 -0.15186578357E+02 -0.10199728136E+03  0.10476742811E+03  0.00000000000E+00 0.  1.
         12    1    4    4    0    0  0.94524650294E+02  0.86201417554E+02 -0.23984524237E+03  0.27182960506E+03  0.00000000000E+00 0. -1.
         -5    1    5    5    0  502 -0.26506737841E+02 -0.26441376946E+02 -0.57578296111E+02  0.68841148660E+02  0.47000000000E+01 0.  1.
         13    1    6    6    0    0 -0.25525715756E+02 -0.60633938046E+02  0.34857424450E+02  0.74451841127E+02  0.00000000000E+00 0. -1.
        -14    1    6    6    0    0 -0.36666339476E+02  0.18740492173E+02  0.50246923746E+02  0.64964450612E+02  0.00000000000E+00 0.  1.
</event>
<event>
12    1  0.8462562E-002  0.2577133E+03  0.7818608E-02  0.1108856E+00
         21   -1    0    0  501  502  0.00000000000E+00  0.00000000000E+00  0.43789162066E+03  0.43789162066E+03  0.00000000000E+00 0.  1.
         21   -1    0    0  502  503 -0.00000000000E+00 -0.00000000000E+00 -0.16328503723E+03  0.16328503723E+03  0.00000000000E+00 0. -1.
         -6    2    1    2    0  503  0.16662343538E+03  0.97263986467E+02  0.53389664638E+02  0.26318552646E+03  0.17085816565E+03 0.  0.
        -24    2    3    3    0    0  0.13235103784E+03  0.68084835122E+02 -0.26916631737E+02  0.17100520675E+03  0.79786801407E+02 0.  0.
          6    2    1    2  501    0 -0.16662343538E+03 -0.97263986467E+02  0.22121691880E+03  0.33799113142E+03  0.16756320443E+03 0.  0.
         24    2    5    5    0    0 -0.12539952399E+03 -0.48697671682E+02  0.22701602791E+03  0.27385208350E+03  0.73226927200E+02 0.  0.
          5    1    5    5  501    0 -0.41223911389E+02 -0.48566314786E+02 -0.57991091092E+01  0.64139047923E+02  0.47000000000E+01 0. -1.
        -13    1    6    6    0    0 -0.58678937688E+02 -0.48702554367E+02  0.16910713149E+03  0.18550573698E+03  0.00000000000E+00 0.  1.
         14    1    6    6    0    0 -0.66720586299E+02  0.48826856893E-02  0.57908896416E+02  0.88346346524E+02  0.00000000000E+00 0. -1.
         -5    1    3    3    0  503  0.34272397533E+02  0.29179151346E+02  0.80306296375E+02  0.92180319719E+02  0.47000000000E+01 0.  1.
         11    1    4    4    0    0  0.74508191078E+02 -0.42113523610E+01 -0.23926738108E+02  0.78368965943E+02  0.00000000000E+00 0. -1.
        -12    1    4    4    0    0  0.57842846764E+02  0.72296187483E+02 -0.29898936294E+01  0.92636240804E+02  0.00000000000E+00 0.  1.
</event>
<event>
12    1  0.8462562E-002  0.1798348E+03  0.7818608E-02  0.1168599E+00
         21   -1    0    0  501  502  0.00000000000E+00  0.00000000000E+00  0.16092377462E+03  0.16092377462E+03  0.00000000000E+00 0.  1.
         21   -1    0    0  502  503 -0.00000000000E+00 -0.00000000000E+00 -0.22425312089E+03  0.22425312089E+03  0.00000000000E+00 0.  1.
         -6    2    1    2    0  503  0.41093719752E+02 -0.13294082330E+02 -0.97269383752E+02  0.20216736470E+03  0.17188625282E+03 0.  0.
        -24    2    3    3    0    0  0.68966256236E+02  0.24496183770E+02 -0.18810196459E+02  0.11060909597E+03  0.80772155493E+02 0.  0.
          6    2    1    2  501    0 -0.41093719752E+02  0.13294082330E+02  0.33940037482E+02  0.18300953081E+03  0.17457129144E+03 0.  0.
         24    2    5    5    0    0 -0.13898325272E+02  0.48307117836E+02  0.56635262261E+02  0.13298288427E+03  0.10931675763E+03 0.  0.
          5    1    5    5  501    0 -0.27195394480E+02 -0.35013035506E+02 -0.22695224779E+02  0.50026646540E+02  0.47000000000E+01 0. -1.
        -13    1    6    6    0    0 -0.77422968979E+01 -0.26327257965E+02  0.50961524361E+02  0.57880433986E+02  0.00000000000E+00 0.  1.
         14    1    6    6    0    0 -0.61560283740E+01  0.74634375801E+02  0.56737378997E+01  0.75102450281E+02  0.00000000000E+00 0. -1.
         -5    1    3    3    0  503 -0.27872536484E+02 -0.37790266100E+02 -0.78459187293E+02  0.91558268729E+02  0.47000000000E+01 0.  1.
         13    1    4    4    0    0  0.34287410099E+02 -0.14412014167E+02  0.23053356398E+02  0.43758312180E+02  0.00000000000E+00 0. -1.
        -14    1    4    4    0    0  0.34678846137E+02  0.38908197938E+02 -0.41863552857E+02  0.66850783795E+02  0.00000000000E+00 0.  1.
</event>
<event>
12    1  0.8462562E-002  0.1873674E+03  0.7818608E-02  0.1162574E+00
         21   -1    0    0  503  502  0.00000000000E+00  0.00000000000E+00  0.54847218888E+03  0.54847218888E+03  0.00000000000E+00 0.  1.
         21   -1    0    0  501  503 -0.00000000000E+00 -0.00000000000E+00 -0.73856759752E+02  0.73856759752E+02  0.00000000000E+00 0. -1.
          6    2    1    2  501    0  0.62003747394E+02  0.10586775300E+01  0.10627790826E+03  0.20907469223E+03  0.16903149900E+03 0.  0.
         24    2    3    3    0    0  0.43827454664E+01 -0.19287708389E+02  0.11901975057E+03  0.14647597156E+03  0.83055915309E+02 0.  0.
         -6    2    1    2    0  502 -0.62003747394E+02 -0.10586775300E+01  0.36833752086E+03  0.41325425640E+03  0.17680770818E+03 0.  0.
        -24    2    5    5    0    0 -0.22390055984E+02 -0.25926445283E+02  0.71332459083E+02  0.11255216605E+03  0.80038585643E+02 0.  0.
          5    1    3    3  501    0  0.57621001928E+02  0.20346385919E+02 -0.12741842306E+02  0.62598720661E+02  0.47000000000E+01 0. -1.
        -11    1    4    4    0    0 -0.35644805067E+02 -0.26843677913E+02  0.63880059943E+02  0.77921737856E+02  0.00000000000E+00 0.  1.
         12    1    4    4    0    0  0.40027550533E+02  0.75559695242E+01  0.55139690625E+02  0.68554233708E+02  0.00000000000E+00 0. -1.
         -5    1    5    5    0  502 -0.39613691410E+02  0.24867767753E+02  0.29700506178E+03  0.30070209035E+03  0.47000000000E+01 0.  1.
         13    1    6    6    0    0 -0.41297014917E+02 -0.10400089449E+01  0.82128985551E+01  0.42118603518E+02  0.00000000000E+00 0. -1.
        -14    1    6    6    0    0  0.18906958933E+02 -0.24886436338E+02  0.63119560528E+02  0.70433562532E+02  0.00000000000E+00 0.  1.
</event>
<event>
12    1  0.8462562E-002  0.1890928E+03  0.7818608E-02  0.1160557E+00
         21   -1    0    0  501  502  0.00000000000E+00  0.00000000000E+00  0.34888485598E+03  0.34888485598E+03  0.00000000000E+00 0.  1.
         21   -1    0    0  502  503 -0.00000000000E+00 -0.00000000000E+00 -0.33216322882E+03  0.33216322882E+03  0.00000000000E+00 0. -1.
         -6    2    1    2    0  503  0.43225879336E-01  0.84016208689E+02 -0.27665400545E+03  0.33201320900E+03  0.16320725177E+03 0.  0.
        -24    2    3    3    0    0 -0.38644690150E+02  0.25209920080E+02 -0.73950930569E+02  0.11738431767E+03  0.78621789323E+02 0.  0.
          6    2    1    2  501    0 -0.43225879336E-01 -0.84016208689E+02  0.29337563260E+03  0.34903487580E+03  0.16940294429E+03 0.  0.
         24    2    5    5    0    0  0.25694086451E+02 -0.52826921860E+02  0.29218816031E+03  0.30830796886E+03  0.78924095724E+02 0.  0.
          5    1    5    5  501    0 -0.25737312330E+02 -0.31189286829E+02  0.11874722909E+01  0.40726906945E+02  0.47000000000E+01 0. -1.
        -11    1    6    6    0    0  0.24870701279E+02  0.15434352984E+02  0.10724759344E+03  0.11117021783E+03  0.00000000000E+00 0.  1.
         12    1    6    6    0    0  0.82338517194E+00 -0.68261274843E+02  0.18494056687E+03  0.19713775103E+03  0.00000000000E+00 0. -1.
         -5    1    3    3    0  503  0.38687916030E+02  0.58806288609E+02 -0.20270307488E+03  0.21462889132E+03  0.47000000000E+01 0.  1.
         11    1    4    4    0    0 -0.19834459577E+02  0.24638935167E+02 -0.88251329052E+02  0.93748493281E+02  0.00000000000E+00 0. -1.
        -12    1    4    4    0    0 -0.18810230573E+02  0.57098491306E+00  0.14300398483E+02  0.23635824393E+02  0.00000000000E+00 0.  1.
</event>
<event>
12    1  0.8462562E-002  0.2208738E+03  0.7818608E-02  0.1133285E+00
         21   -1    0    0  503  502  0.00000000000E+00  0.00000000000E+00  0.86772918961E+02  0.86772918961E+02  0.00000000000E+00 0. -1.
         21   -1    0    0  501  503 -0.00000000000E+00 -0.00000000000E+00 -0.72174762903E+03  0.72174762903E+03  0.00000000000E+00 0.  1.
          6    2    1    2  501    0  0.21145531934E+02 -0.13723258725E+03 -0.50812873676E+03  0.55405778468E+03  0.17177106602E+03 0.  0.
         24    2    3    3    0    0  0.52581744742E+02 -0.31524717289E+02 -0.32432403776E+03  0.33965478419E+03  0.80128916576E+02 0.  0.
         -6    2    1    2    0  502 -0.21145531934E+02  0.13723258725E+03 -0.12684597330E+03  0.25446276331E+03  0.17141026936E+03 0.  0.
        -24    2    5    5    0    0 -0.27576750266E+02  0.16752425682E+03 -0.99863126930E+02  0.21312138194E+03  0.81383201853E+02 0.  0.
          5    1    3    3  501    0 -0.31436212808E+02 -0.10570786996E+03 -0.18380469900E+03  0.21440300049E+03  0.47000000000E+01 0. -1.
        -11    1    4    4    0    0  0.42771632577E+02 -0.58339238372E+02 -0.23181438621E+03  0.24283901857E+03  0.00000000000E+00 0.  1.
         12    1    4    4    0    0  0.98101121648E+01  0.26814521083E+02 -0.92509651556E+02  0.96815765620E+02  0.00000000000E+00 0. -1.
         -5    1    5    5    0  502  0.64312183320E+01 -0.30291669570E+02 -0.26982846374E+02  0.41341381363E+02  0.47000000000E+01 0.  1.
         13    1    6    6    0    0  0.25888456479E+02  0.54777397606E+02 -0.15630493251E+02  0.62570662348E+02  0.00000000000E+00 0. -1.
        -14    1    6    6    0    0 -0.53465206745E+02  0.11274685921E+03 -0.84232633679E+02  0.15055071959E+03  0.00000000000E+00 0.  1.
</event>
<event>
12    1  0.8462562E-002  0.1760256E+03  0.7818608E-02  0.1174496E+00
         21   -1    0    0  503  502  0.00000000000E+00  0.00000000000E+00  0.49940549490E+02  0.49940549490E+02  0.00000000000E+00 0.  1.
         21   -1    0    0  501  503 -0.00000000000E+00 -0.00000000000E+00 -0.60441652179E+03  0.60441652179E+03  0.00000000000E+00 0.  1.
          6    2    1    2  501    0 -0.39123983998E+02  0.88799143963E+01 -0.22396820681E+03  0.28486274705E+03  0.17139278862E+03 0.  0.
         24    2    3    3    0    0 -0.49275544660E+02  0.50378075979E+02 -0.21658681200E+03  0.24125395679E+03  0.79546179622E+02 0.  0.
         -6    2    1    2    0  502  0.39123983998E+02 -0.88799143963E+01 -0.33050776549E+03  0.36949432423E+03  0.16025334189E+03 0.  0.
        -24    2    5    5    0    0  0.46304723826E+02 -0.26437666792E+02 -0.33586610654E+03  0.34923008202E+03  0.79451437934E+02 0.  0.
          5    1    3    3  501    0  0.10151560661E+02 -0.41498161582E+02 -0.73813948103E+01  0.43608790260E+02  0.47000000000E+01 0. -1.
        -13    1    4    4    0    0 -0.20378546961E+02 -0.18781358007E+02 -0.33883818342E+02  0.43773710492E+02  0.00000000000E+00 0.  1.
         14    1    4    4    0    0 -0.28896997699E+02  0.69159433985E+02 -0.18270299366E+03  0.19748024630E+03  0.00000000000E+00 0. -1.
         -5    1    5    5    0  502 -0.71807398278E+01  0.17557752395E+02  0.53583410514E+01  0.20264242213E+02  0.47000000000E+01 0.  1.
         11    1    6    6    0    0 -0.14036870294E+02  0.18379502125E+01 -0.16838064436E+03  0.16897471167E+03  0.00000000000E+00 0. -1.
        -12    1    6    6    0    0  0.60341594120E+02 -0.28275617004E+02 -0.16748546218E+03  0.18025537035E+03  0.00000000000E+00 0.  1.
</event>
<event>
12    1  0.8462562E-002  0.1824295E+03  0.7818608E-02  0.1166473E+00
         21   -1    0    0  501  502  0.00000000000E+00  0.00000000000E+00  0.80398136328E+03  0.80398136328E+03  0.00000000000E+00 0.  1.
         21   -1    0    0  502  503 -0.00000000000E+00 -0.00000000000E+00 -0.42404959887E+02  0.42404959887E+02  0.00000000000E+00 0.  1.
         -6    2    1    2    0  503 -0.24100356625E+02  0.55379002387E+02  0.29427427424E+03  0.34623385484E+03  0.17214201306E+03 0.  0.
        -24    2    3    3    0    0  0.16236308095E+02 -0.25553986544E+02  0.97832262216E+02  0.12992678305E+03  0.79957448021E+02 0.  0.
          6    2    1    2  501    0  0.24100356625E+02 -0.55379002387E+02  0.46730212915E+03  0.50015246833E+03  0.16773058925E+03 0.  0.
         24    2    5    5    0    0  0.70834989354E+02 -0.67304022629E+02  0.28954685990E+03  0.31590980836E+03  0.80088674377E+02 0.  0.
          5    1    5    5  501    0 -0.46734632730E+02  0.11925020241E+02  0.17775526926E+03  0.18424265997E+03  0.47000000000E+01 0. -1.
        -11    1    6    6    0    0  0.74833002132E+02 -0.19706912298E+02  0.19942279663E+03  0.21391071132E+03  0.00000000000E+00 0.  1.
         12    1    6    6    0    0 -0.39980127772E+01 -0.47597110331E+02  0.90124063267E+02  0.10199909704E+03  0.00000000000E+00 0. -1.
         -5    1    3    3    0  503 -0.40336664720E+02  0.80932988931E+02  0.19644201202E+03  0.21630707179E+03  0.47000000000E+01 0.  1.
         13    1    4    4    0    0  0.22576492236E+02 -0.16067668815E+02 -0.35210552931E+01  0.27933238502E+02  0.00000000000E+00 0. -1.
        -14    1    4    4    0    0 -0.63401841405E+01 -0.94863177289E+01  0.10135331751E+03  0.10199354455E+03  0.00000000000E+00 0.  1.
</event>
<event>
12    1  0.8462562E-002  0.1872023E+03  0.7818608E-02  0.1161382E+00
         21   -1    0    0  503  502  0.00000000000E+00  0.00000000000E+00  0.16630789054E+03  0.16630789054E+03  0.00000000000E+00 0.  1.
         21   -1    0    0  501  503 -0.00000000000E+00 -0.00000000000E+00 -0.21394121383E+03  0.21394121383E+03  0.00000000000E+00 0.  1.
          6    2    1    2  501    0 -0.32511158143E+02  0.58357711324E+02 -0.52869873402E+02  0.19297356631E+03  0.17315015422E+03 0.  0.
         24    2    3    3    0    0  0.44101400449E+02  0.54022473896E+02 -0.13148741822E+02  0.10643954577E+03  0.79329227179E+02 0.  0.
         -6    2    1    2    0  502  0.32511158143E+02 -0.58357711324E+02  0.52365501058E+01  0.18727553806E+03  0.17487740798E+03 0.  0.
        -24    2    5    5    0    0  0.67982227377E+02 -0.76266907255E+02 -0.30745882388E+02  0.13346325786E+03  0.80180468534E+02 0.  0.
          5    1    3    3  501    0 -0.76612558592E+02  0.43352374278E+01 -0.39721131580E+02  0.86534020544E+02  0.47000000000E+01 0. -1.
        -11    1    4    4    0    0  0.13185723763E+02  0.10373625330E+00 -0.37450714995E+02  0.39704283472E+02  0.00000000000E+00 0.  1.
         12    1    4    4    0    0  0.30915676686E+02  0.53918737643E+02  0.24301973173E+02  0.66735262299E+02  0.00000000000E+00 0. -1.
         -5    1    5    5    0  502 -0.35471069234E+02  0.17909195930E+02  0.35982432494E+02  0.53812280194E+02  0.47000000000E+01 0.  1.
         11    1    6    6    0    0 -0.54762473605E+01  0.13034151314E+02 -0.50298100257E+01  0.15005911320E+02  0.00000000000E+00 0. -1.
        -12    1    6    6    0    0  0.73458474737E+02 -0.89301058569E+02 -0.25716072363E+02  0.11845734654E+03  0.00000000000E+00 0.  1.
</event>
<event>
12    1  0.8462562E-002  0.2109430E+03  0.7818608E-02  0.1140949E+00
         21   -1    0    0  501  502  0.00000000000E+00  0.00000000000E+00  0.13235843372E+03  0.13235843372E+03  0.00000000000E+00 0.  1.
         21   -1    0    0  502  503 -0.00000000000E+00 -0.00000000000E+00 -0.33582099657E+03  0.33582099657E+03  0.00000000000E+00 0.  1.
         -6    2    1    2    0  503 -0.63722407854E+02 -0.10353813669E+03 -0.91429395066E+02  0.22990494902E+03  0.17238404883E+03 0.  0.
        -24    2    3    3    0    0 -0.10232868794E+03 -0.96595091436E+02 -0.99147337484E+02  0.18965190721E+03  0.79598236885E+02 0.  0.
          6    2    1    2  501    0  0.63722407854E+02  0.10353813669E+03 -0.11203316778E+03  0.23827448128E+03  0.17158848077E+03 0.  0.
         24    2    5    5    0    0  0.91915046572E+02  0.70483429762E+02 -0.11718938483E+03  0.19427317332E+03  0.10291950398E+03 0.  0.
          5    1    5    5  501    0 -0.28192638718E+02  0.33054706923E+02  0.51562170430E+01  0.44001307956E+02  0.47000000000E+01 0. -1.
        -11    1    6    6    0    0  0.86747299965E+01  0.36332534643E+02  0.98210731107E+01  0.38623276546E+02  0.00000000000E+00 0.  1.
         12    1    6    6    0    0  0.83240316575E+02  0.34150895119E+02 -0.12701045794E+03  0.15564989678E+03  0.00000000000E+00 0. -1.
         -5    1    3    3    0  503  0.38606280085E+02 -0.69430452494E+01  0.77179424180E+01  0.40253041804E+02  0.47000000000E+01 0.  1.
         13    1    4    4    0    0 -0.83014431161E+02 -0.68074133482E+02 -0.28532268428E+02  0.11108363413E+03  0.00000000000E+00 0. -1.
        -14    1    4    4    0    0 -0.19314256778E+02 -0.28520957954E+02 -0.70615069056E+02  0.78568273083E+02  0.00000000000E+00 0.  1.
</event>
<event>
12    1  0.8462562E-002  0.1774111E+03  0.7818608E-02  0.1170384E+00
         21   -1    0    0  501  502  0.00000000000E+00  0.00000000000E+00  0.18159535160E+03  0.18159535160E+03  0.00000000000E+00 0.  1.
         21   -1    0    0  502  503 -0.00000000000E+00 -0.00000000000E+00 -0.15673191828E+04  0.15673191828E+04  0.00000000000E+00 0. -1.
         -6    2    1    2    0  503 -0.21842301584E+02 -0.37991441789E+02 -0.15175668899E+04  0.15278776958E+04  0.17169901660E+03 0.  0.
        -24    2    3    3    0    0  0.16753046513E+02 -0.72477711836E+02 -0.12566274691E+04  0.12618130889E+04  0.86752475574E+02 0.  0.
          6    2    1    2  501    0  0.21842301584E+02  0.37991441789E+02  0.13184305873E+03  0.22103683854E+03  0.17191351335E+03 0.  0.
         24    2    5    5    0    0  0.34973415626E+02  0.64440161962E+02  0.15017395772E+03  0.18596444466E+03  0.81577465198E+02 0.  0.
          5    1    5    5  501    0 -0.13131114042E+02 -0.26448720173E+02 -0.18330898990E+02  0.35072393881E+02  0.47000000000E+01 0. -1.
        -11    1    6    6    0    0 -0.17054455007E+01  0.38840356370E+02  0.13213345838E+03  0.13773428277E+03  0.00000000000E+00 0.  1.
         12    1    6    6    0    0  0.36678861126E+02  0.25599805591E+02  0.18040499340E+02  0.48230161894E+02  0.00000000000E+00 0. -1.
         -5    1    3    3    0  503 -0.38595348097E+02  0.34486270047E+02 -0.26093942080E+03  0.26606460690E+03  0.47000000000E+01 0.  1.
         11    1    4    4    0    0 -0.32692563716E+02 -0.25704807690E+02 -0.66154031991E+03  0.66284623837E+03  0.00000000000E+00 0. -1.
        -12    1    4    4    0    0  0.49445610230E+02 -0.46772904146E+02 -0.59508714919E+03  0.59896685055E+03  0.00000000000E+00 0.  1.
</event>
<event>
12    1  0.8462562E-002  0.2022292E+03  0.7818608E-02  0.1148368E+00
         21   -1    0    0  503  502  0.00000000000E+00  0.00000000000E+00  0.70163943686E+02  0.70163943686E+02  0.00000000000E+00 0.  1.
         21   -1    0    0  501  503 -0.00000000000E+00 -0.00000000000E+00 -0.64339149109E+03  0.64339149109E+03  0.00000000000E+00 0.  1.
          6    2    1    2  501    0 -0.76232194828E+02  0.68929429853E+02 -0.40354308999E+03  0.45137975370E+03  0.17416670964E+03 0.  0.
         24    2    3    3    0    0 -0.12584649911E+02  0.54299706129E+02 -0.94907484628E+02  0.13587529148E+03  0.79673287218E+02 0.  0.
         -6    2    1    2    0  502  0.76232194828E+02 -0.68929429853E+02 -0.16968445742E+03  0.26217568107E+03  0.17140787272E+03 0.  0.
        -24    2    5    5    0    0  0.54202184365E+02 -0.11321326252E+03 -0.13812121111E+03  0.20331391323E+03  0.80647124887E+02 0.  0.
          5    1    3    3  501    0 -0.63647544917E+02  0.14629723725E+02 -0.30863560536E+03  0.31550446223E+03  0.47000000000E+01 0. -1.
        -13    1    4    4    0    0 -0.27736833340E+02  0.69835855735E+02 -0.78514912775E+02  0.10867828761E+03  0.00000000000E+00 0.  1.
         14    1    4    4    0    0  0.15152183429E+02 -0.15536149606E+02 -0.16392571853E+02  0.27197003865E+02  0.00000000000E+00 0. -1.
         -5    1    5    5    0  502  0.22030010463E+02  0.44283832666E+02 -0.31563246303E+02  0.58861767845E+02  0.47000000000E+01 0.  1.
         11    1    6    6    0    0  0.84912597124E+00 -0.58569675588E+02 -0.18565391845E+02  0.61447552333E+02  0.00000000000E+00 0. -1.
        -12    1    6    6    0    0  0.53353058393E+02 -0.54643586932E+02 -0.11955581927E+03  0.14186636090E+03  0.00000000000E+00 0.  1.
</event>
<event>
12    1  0.8462562E-002  0.2579441E+03  0.7818608E-02  0.1108606E+00
         21   -1    0    0  503  502  0.00000000000E+00  0.00000000000E+00  0.36337668560E+03  0.36337668560E+03  0.00000000000E+00 0.  1.
         21   -1    0    0  501  503 -0.00000000000E+00 -0.00000000000E+00 -0.63556112177E+03  0.63556112177E+03  0.00000000000E+00 0.  1.
          6    2    1    2  501    0 -0.10436018172E+03  0.16118206572E+03 -0.55788479218E+03  0.61402244863E+03  0.17005122825E+03 0.  0.
         24    2    3    3    0    0 -0.28907723129E+02  0.10963634097E+03 -0.18889316874E+03  0.23385545451E+03  0.78434435599E+02 0.  0.
         -6    2    1    2    0  502  0.10436018172E+03 -0.16118206572E+03  0.28570035601E+03  0.38491535875E+03  0.17223366145E+03 0.  0.
        -24    2    5    5    0    0  0.49535200828E+02 -0.17669721215E+03  0.20868521158E+03  0.28899914130E+03  0.79343211655E+02 0.  0.
          5    1    3    3  501    0 -0.75452458591E+02  0.51545724749E+02 -0.36899162344E+03  0.38016699412E+03  0.47000000000E+01 0. -1.
        -11    1    4    4    0    0 -0.47244732915E+02  0.55292493843E+02 -0.14288143705E+03  0.16032601073E+03  0.00000000000E+00 0.  1.
         12    1    4    4    0    0  0.18337009786E+02  0.54343847131E+02 -0.46011731690E+02  0.73529443776E+02  0.00000000000E+00 0. -1.
         -5    1    5    5    0  502  0.54824980892E+02  0.15515146430E+02  0.77015144427E+02  0.95916217448E+02  0.47000000000E+01 0.  1.
         13    1    6    6    0    0 -0.86708430765E+01 -0.97066019749E+02  0.75556543851E+02  0.12331174732E+03  0.00000000000E+00 0. -1.
        -14    1    6    6    0    0  0.58206043905E+02 -0.79631192404E+02  0.13312866773E+03  0.16568739398E+03  0.00000000000E+00 0.  1.
</event>
<event>
12    1  0.8462562E-002  0.1758427E+03  0.7818608E-02  0.1172670E+00
         21   -1    0    0  503  502  0.00000000000E+00  0.00000000000E+00  0.50353365973E+03  0.50353365973E+03  0.00000000000E+00 0.  1.
         21   -1    0    0  501  503 -0.00000000000E+00 -0.00000000000E+00 -0.61301509453E+02  0.61301509453E+02  0.00000000000E+00 0.  1.
          6    2    1    2  501    0  0.34756384655E+02 -0.11237929286E+02  0.25476186168E+03  0.30780253931E+03  0.16883275661E+03 0.  0.
         24    2    3    3    0    0  0.72991004974E+02 -0.13000849796E+02  0.10382488939E+03  0.15201725860E+03  0.82661540953E+02 0.  0.
         -6    2    1    2    0  502 -0.34756384655E+02  0.11237929286E+02  0.18747028859E+03  0.25703262988E+03  0.17200687890E+03 0.  0.
        -24    2    5    5    0    0  0.37774891597E+01 -0.15712394403E+02  0.19956083398E+02  0.82980113893E+02  0.78906940600E+02 0.  0.
          5    1    3    3  501    0 -0.38234620318E+02  0.17629205096E+01  0.15093697230E+03  0.15578528071E+03  0.47000000000E+01 0. -1.
        -11    1    4    4    0    0  0.36814405998E+02 -0.14872391963E+02 -0.24079197368E+01  0.39777966378E+02  0.00000000000E+00 0.  1.
         12    1    4    4    0    0  0.36176598975E+02  0.18715421673E+01  0.10623280913E+03  0.11223929222E+03  0.00000000000E+00 0. -1.
         -5    1    5    5    0  502 -0.38533873815E+02  0.26950323690E+02  0.16751420520E+03  0.17405251598E+03  0.47000000000E+01 0.  1.
         11    1    6    6    0    0 -0.17941214039E+02  0.23134861015E+02 -0.80905780911E+01  0.30373778316E+02  0.00000000000E+00 0. -1.
        -12    1    6    6    0    0  0.21718703198E+02 -0.38847255418E+02  0.28046661489E+02  0.52606335577E+02  0.00000000000E+00 0.  1.
</event>
<event>
12    1  0.8462562E-002  0.1861557E+03  0.7818608E-02  0.1162073E+00
         21   -1    0    0  501  502  0.00000000000E+00  0.00000000000E+00  0.16411183824E+04  0.16411183824E+04  0.00000000000E+00 0.  1.
         21   -1    0    0  502  503 -0.00000000000E+00 -0.00000000000E+00 -0.34040706971E+02  0.34040706971E+02  0.00000000000E+00 0.  1.
         -6    2    1    2    0  503 -0.26803091885E+02  0.65458629703E+02  0.28704679274E+03  0.34212541323E+03  0.17219378392E+03 0.  0.
        -24    2    3    3    0    0 -0.39456616578E+02  0.95426330908E+02  0.28066526324E+03  0.30864424358E+03  0.76323455634E+02 0.  0.
          6    2    1    2  501    0  0.26803091885E+02 -0.65458629703E+02  0.13200308827E+04  0.13330336761E+04  0.17173820930E+03 0.  0.
         24    2    5    5    0    0 -0.23485448386E+02 -0.36541886771E+02  0.36497975338E+03  0.37621087912E+03  0.80234215990E+02 0.  0.
          5    1    5    5  501    0  0.50288540270E+02 -0.28916742932E+02  0.95505112928E+03  0.95682279699E+03  0.47000000000E+01 0. -1.
        -13    1    6    6    0    0 -0.36245699505E+02 -0.36397170906E+02  0.35799886656E+03  0.36166516731E+03  0.00000000000E+00 0.  1.
         14    1    6    6    0    0  0.12760251120E+02 -0.14471586510E+00  0.69808868127E+01  0.14545711808E+02  0.00000000000E+00 0. -1.
         -5    1    3    3    0  503  0.12653524694E+02 -0.29967701205E+02  0.63815294980E+01  0.33481169654E+02  0.47000000000E+01 0.  1.
         13    1    4    4    0    0 -0.72233270911E+01  0.26714851283E+01  0.12069091691E+03  0.12093639118E+03  0.00000000000E+00 0. -1.
        -14    1    4    4    0    0 -0.32233289487E+02  0.92754845780E+02  0.15997434633E+03  0.18770785239E+03  0.00000000000E+00 0.  1.
</event>
<event>
12    1  0.8462562E-002  0.1970659E+03  0.7818608E-02  0.1152784E+00
         21   -1    0    0  501  502  0.00000000000E+00  0.00000000000E+00  0.13963031992E+04  0.13963031992E+04  0.00000000000E+00 0.  1.
         21   -1    0    0  502  503 -0.00000000000E+00 -0.00000000000E+00 -0.37381667780E+02  0.37381667780E+02  0.00000000000E+00 0.  1.
         -6    2    1    2    0  503 -0.48249237720E+02 -0.85246398446E+02  0.31333545799E+03  0.37015414401E+03  0.17099720380E+03 0.  0.
        -24    2    3    3    0    0  0.21041244755E+02 -0.25501431258E+02  0.16998083121E+03  0.20002692371E+03  0.10012107798E+03 0.  0.
          6    2    1    2  501    0  0.48249237720E+02  0.85246398446E+02  0.10455860734E+04  0.10635307230E+04  0.16808457502E+03 0.  0.
         24    2    5    5    0    0  0.12853944301E+02  0.11987133272E+03  0.73579359657E+03  0.74977097159E+03  0.78929923256E+02 0.  0.
          5    1    5    5  501    0  0.35395293419E+02 -0.34624934276E+02  0.30979247688E+03  0.31375975140E+03  0.47000000000E+01 0. -1.
        -13    1    6    6    0    0  0.21105753130E+02  0.61603188771E+02  0.57259602668E+03  0.57628692112E+03  0.00000000000E+00 0.  1.
         14    1    6    6    0    0 -0.82518088290E+01  0.58268143950E+02  0.16319756989E+03  0.17348405047E+03  0.00000000000E+00 0. -1.
         -5    1    3    3    0  503 -0.69290482475E+02 -0.59744967188E+02  0.14335462678E+03  0.17012722030E+03  0.47000000000E+01 0.  1.
         11    1    4    4    0    0  0.38696307545E+02 -0.56951706243E+00  0.16449764862E+03  0.16898877173E+03  0.00000000000E+00 0. -1.
        -12    1    4    4    0    0 -0.17655062789E+02 -0.24931914196E+02  0.54831825842E+01  0.31038151988E+02  0.00000000000E+00 0.  1.
</event>
<event>
12    1  0.8462562E-002  0.2365981E+03  0.7818608E-02  0.1122220E+00
         21   -1    0    0  501  502  0.00000000000E+00  0.00000000000E+00  0.31429511576E+03  0.31429511576E+03  0.00000000000E+00 0. -1.
         21   -1    0    0  502  503 -0.00000000000E+00 -0.00000000000E+00 -0.30915208349E+03  0.30915208349E+03  0.00000000000E+00 0.  1.
         -6    2    1    2    0  503  0.16137457658E+03  0.71119832766E+01 -0.20085968867E+03  0.30973428977E+03  0.17175092854E+03 0.  0.
        -24    2    3    3    0    0  0.62191034260E+01  0.13204820621E+02 -0.39158061859E+02  0.85502602381E+02  0.74594213383E+02 0.  0.
          6    2    1    2  501    0 -0.16137457658E+03 -0.71119832766E+01  0.20600272094E+03  0.31371290948E+03  0.17287664467E+03 0.  0.
         24    2    5    5    0    0 -0.99516439731E+02  0.55985846969E+02  0.79967842458E+02  0.15971730608E+03  0.77953994093E+02 0.  0.
          5    1    5    5  501    0 -0.61858136850E+02 -0.63097830245E+02  0.12603487848E+03  0.15399560341E+03  0.47000000000E+01 0. -1.
        -13    1    6    6    0    0 -0.11189890475E+03  0.42312493192E+02  0.71967622696E+02  0.13961035306E+03  0.00000000000E+00 0.  1.
         14    1    6    6    0    0  0.12382465019E+02  0.13673353776E+02  0.80002197623E+01  0.20106953018E+02  0.00000000000E+00 0. -1.
         -5    1    3    3    0  503  0.15515547316E+03 -0.60928373443E+01 -0.16170162681E+03  0.22423168739E+03  0.47000000000E+01 0.  1.
         11    1    4    4    0    0  0.93552672635E+01 -0.22574503028E+02  0.84589135790E+01  0.25858894630E+02  0.00000000000E+00 0. -1.
        -12    1    4    4    0    0 -0.31361638375E+01  0.35779323649E+02 -0.47616975438E+02  0.59643707751E+02  0.00000000000E+00 0.  1.
</event>
<event>
12    1  0.8462562E-002  0.2051853E+03  0.7818608E-02  0.1145441E+00
         21   -1    0    0  503  502  0.00000000000E+00  0.00000000000E+00  0.83625039078E+03  0.83625039078E+03  0.00000000000E+00 0. -1.
         21   -1    0    0  501  503 -0.00000000000E+00 -0.00000000000E+00 -0.25360845903E+03  0.25360845903E+03  0.00000000000E+00 0. -1.
          6    2    1    2  501    0 -0.28285697064E+02  0.10792284097E+03 -0.19653420164E+03  0.28412443547E+03  0.17220215491E+03 0.  0.
         24    2    3    3    0    0 -0.75486405246E+02  0.61019941621E+02 -0.78808851154E+02  0.14881317590E+03  0.80702513267E+02 0.  0.
         -6    2    1    2    0  502  0.28285697064E+02 -0.10792284097E+03  0.77917613339E+03  0.80573441435E+03  0.17217746471E+03 0.  0.
        -24    2    5    5    0    0  0.42453865754E+02 -0.10058873771E+03  0.77725248877E+03  0.78899175974E+03  0.80412317334E+02 0.  0.
          5    1    3    3  501    0  0.47200708182E+02  0.46902899345E+02 -0.11772535049E+03  0.13531125957E+03  0.47000000000E+01 0. -1.
        -11    1    4    4    0    0 -0.25971782662E+02 -0.85699179158E+01  0.64866347258E+01  0.28107888889E+02  0.00000000000E+00 0.  1.
         12    1    4    4    0    0 -0.49514622584E+02  0.69589859537E+02 -0.85295485880E+02  0.12070528701E+03  0.00000000000E+00 0. -1.
         -5    1    5    5    0  502 -0.14168168689E+02 -0.73341032515E+01  0.19236446260E+01  0.16742654603E+02  0.47000000000E+01 0.  1.
         13    1    6    6    0    0  0.57468747614E-01 -0.42647506321E+02  0.11147749210E+03  0.11935679429E+03  0.00000000000E+00 0. -1.
        -14    1    6    6    0    0  0.42396397006E+02 -0.57941231394E+02  0.66577499667E+03  0.66963496546E+03  0.00000000000E+00 0.  1.
</event>
<event>
12    1  0.8462562E-002  0.1784111E+03  0.7818608E-02  0.1169856E+00
         21   -1    0    0  501  502  0.00000000000E+00  0.00000000000E+00  0.36736142811E+02  0.36736142811E+02  0.00000000000E+00 0. -1.
         21   -1    0    0  502  503 -0.00000000000E+00 -0.00000000000E+00 -0.10445177883E+04  0.10445177883E+04  0.00000000000E+00 0. -1.
         -6    2    1    2    0  503  0.28321382993E+02  0.33943232000E+02 -0.73564406721E+03  0.75696941878E+03  0.17284751553E+03 0.  0.
        -24    2    3    3    0    0  0.73687957683E+02  0.28331588306E+02 -0.65166457142E+03  0.66123926493E+03  0.79611920204E+02 0.  0.
          6    2    1    2  501    0 -0.28321382993E+02 -0.33943232000E+02 -0.27213757824E+03  0.32428451229E+03  0.17072591978E+03 0.  0.
         24    2    5    5    0    0 -0.23383858912E+02  0.71020505786E+01 -0.27019829017E+03  0.28263183885E+03  0.79223710722E+02 0.  0.
          5    1    5    5  501    0 -0.49375240810E+01 -0.41045282579E+02 -0.19392880682E+01  0.41652673434E+02  0.47000000000E+01 0. -1.
        -13    1    6    6    0    0  0.18633003155E+02 -0.79270688043E+01 -0.19913993604E+02  0.28400605058E+02  0.00000000000E+00 0.  1.
         14    1    6    6    0    0 -0.42016862067E+02  0.15029119383E+02 -0.25028429657E+03  0.25423123380E+03  0.00000000000E+00 0. -1.
         -5    1    3    3    0  503 -0.45366574690E+02  0.56116436943E+01 -0.83979495786E+02  0.95730153852E+02  0.47000000000E+01 0.  1.
         13    1    4    4    0    0 -0.29483827492E+01 -0.54105788360E+00 -0.30567252675E+03  0.30568722465E+03  0.00000000000E+00 0. -1.
        -14    1    4    4    0    0  0.76636340432E+02  0.28872646189E+02 -0.34599204467E+03  0.35555204028E+03  0.00000000000E+00 0.  1.
</event>
<event>
12    1  0.8462562E-002  0.1762483E+03  0.7818608E-02  0.1172863E+00
         21   -1    0    0  501  502  0.00000000000E+00  0.00000000000E+00  0.70446631325E+03  0.70446631325E+03  0.00000000000E+00 0.  1.
         21   -1    0    0  502  503 -0.00000000000E+00 -0.00000000000E+00 -0.50441385645E+02  0.50441385645E+02  0.00000000000E+00 0.  1.
         -6    2    1    2    0  503 -0.35926265753E+01 -0.11460911236E+02  0.18391055682E+03  0.25472837272E+03  0.17583853817E+03 0.  0.
        -24    2    3    3    0    0 -0.43324720334E+02  0.40894180622E+02  0.66273667278E+02  0.11989431657E+03  0.80206500793E+02 0.  0.
          6    2    1    2  501    0  0.35926265753E+01  0.11460911236E+02  0.47011437079E+03  0.50017932618E+03  0.17037481405E+03 0.  0.
         24    2    5    5    0    0  0.18496769534E+02  0.68209338033E+02  0.24001043521E+03  0.26266631898E+03  0.79962127518E+02 0.  0.
          5    1    5    5  501    0 -0.14904142959E+02 -0.56748426797E+02  0.23010393557E+03  0.23751300720E+03  0.47000000000E+01 0. -1.
        -13    1    6    6    0    0 -0.28954391371E+02  0.29975801104E+02  0.13465389036E+03  0.14095593503E+03  0.00000000000E+00 0.  1.
         14    1    6    6    0    0  0.47451160906E+02  0.38233536930E+02  0.10535654485E+03  0.12171038395E+03  0.00000000000E+00 0. -1.
         -5    1    3    3    0  503  0.39732093759E+02 -0.52355091858E+02  0.11763688954E+03  0.13483405615E+03  0.47000000000E+01 0.  1.
         11    1    4    4    0    0 -0.50833236989E+02  0.36598911420E+02  0.81254570731E+02  0.10259533890E+03  0.00000000000E+00 0. -1.
        -12    1    4    4    0    0  0.75085166553E+01  0.42952692023E+01 -0.14980903453E+02  0.17298977662E+02  0.00000000000E+00 0.  1.
</event>
<event>
12    1  0.8462562E-002  0.2308613E+03  0.7818608E-02  0.1126066E+00
         21   -1    0    0  501  502  0.00000000000E+00  0.00000000000E+00  0.58121729621E+03  0.58121729621E+03  0.00000000000E+00 0.  1.
         21   -1    0    0  502  503 -0.00000000000E+00 -0.00000000000E+00 -0.33246845605E+03  0.33246845605E+03  0.00000000000E+00 0.  1.
         -6    2    1    2    0  503  0.15174721251E+03 -0.26464742722E+02 -0.26443896366E+03  0.35103404172E+03  0.17195736051E+03 0.  0.
        -24    2    3    3    0    0  0.38467422674E+02 -0.43599019951E+02 -0.19069190971E+03  0.21470131561E+03  0.79703408643E+02 0.  0.
          6    2    1    2  501    0 -0.15174721251E+03  0.26464742722E+02  0.51318780383E+03  0.56265171053E+03  0.17171961524E+03 0.  0.
         24    2    5    5    0    0 -0.66097624966E+02  0.66459461360E+02  0.19551275694E+03  0.23117779787E+03  0.80200873242E+02 0.  0.
          5    1    5    5  501    0 -0.85649587547E+02 -0.39994718638E+02  0.31767504689E+03  0.33147391267E+03  0.47000000000E+01 0. -1.
        -13    1    6    6    0    0 -0.62312595161E+02  0.69170408626E+02  0.20244577379E+03  0.22282660584E+03  0.00000000000E+00 0.  1.
         14    1    6    6    0    0 -0.37850298052E+01 -0.27109472663E+01 -0.69330168453E+01  0.83511920277E+01  0.00000000000E+00 0. -1.
         -5    1    3    3    0  503  0.11327978984E+03  0.17134277229E+02 -0.73747053958E+02  0.13633272611E+03  0.47000000000E+01 0.  1.
         13    1    4    4    0    0  0.32190398893E+02 -0.39903781535E+02 -0.43237874036E+02  0.67067483275E+02  0.00000000000E+00 0. -1.
        -14    1    4    4    0    0  0.62770237811E+01 -0.36952384160E+01 -0.14745403567E+03  0.14763383234E+03  0.00000000000E+00 0.  1.
</event>
<event>
12    1  0.8462562E-002  0.2270742E+03  0.7818608E-02  0.1128888E+00
         21   -1    0    0  503  502  0.00000000000E+00  0.00000000000E+00  0.87554552476E+02  0.87554552476E+02  0.00000000000E+00 0.  1.
         21   -1    0    0  501  503 -0.00000000000E+00 -0.00000000000E+00 -0.58803616875E+03  0.58803616875E+03  0.00000000000E+00 0.  1.
          6    2    1    2  501    0 -0.50353062975E+02 -0.13892119280E+03 -0.23315617371E+03  0.32546046196E+03  0.17241862488E+03 0.  0.
         24    2    3    3    0    0 -0.14856161464E+02 -0.14205530700E+03 -0.10936404398E+03  0.19655571391E+03  0.79203780062E+02 0.  0.
         -6    2    1    2    0  502  0.50353062975E+02  0.13892119280E+03 -0.26732544257E+03  0.35013025927E+03  0.17115425045E+03 0.  0.
        -24    2    5    5    0    0 -0.21254319061E+01  0.14471358514E+03 -0.15809772454E+03  0.22872050422E+03  0.79822549210E+02 0.  0.
          5    1    3    3  501    0 -0.35496901511E+02  0.31341141940E+01 -0.12379212973E+03  0.12890474805E+03  0.47000000000E+01 0. -1.
        -11    1    4    4    0    0  0.30870200171E+02 -0.82616242042E+02 -0.63047073451E+02  0.10841285061E+03  0.00000000000E+00 0.  1.
         12    1    4    4    0    0 -0.45726361635E+02 -0.59439064955E+02 -0.46316970529E+02  0.88142863296E+02  0.00000000000E+00 0. -1.
         -5    1    5    5    0  502  0.52478494882E+02 -0.57923923334E+01 -0.10922771803E+03  0.12140975504E+03  0.47000000000E+01 0.  1.
         11    1    6    6    0    0 -0.75084424824E+01 -0.64969952814E+01 -0.26116845674E+02  0.27940602788E+02  0.00000000000E+00 0. -1.
        -12    1    6    6    0    0  0.53830105762E+01  0.15121058042E+03 -0.13198087887E+03  0.20077990144E+03  0.00000000000E+00 0.  1.
</event>
<event>
12    1  0.8462562E-002  0.2448501E+03  0.7818608E-02  0.1116773E+00
         21   -1    0    0  501  502  0.00000000000E+00  0.00000000000E+00  0.11464178172E+04  0.11464178172E+04  0.00000000000E+00 0.  1.
         21   -1    0    0  502  503 -0.00000000000E+00 -0.00000000000E+00 -0.26378643605E+03  0.26378643605E+03  0.00000000000E+00 0.  1.
         -6    2    1    2    0  503  0.24246037940E+02 -0.17085104417E+03 -0.19055533485E+03  0.30944029341E+03  0.17223242986E+03 0.  0.
        -24    2    3    3    0    0 -0.33343785415E+02 -0.46829284039E+02 -0.12556829565E+03  0.15796953714E+03  0.76695423097E+02 0.  0.
          6    2    1    2  501    0 -0.24246037940E+02  0.17085104417E+03  0.10731867160E+04  0.11007639599E+04  0.17370555038E+03 0.  0.
         24    2    5    5    0    0 -0.84103709136E+02  0.11624851910E+03  0.67318192929E+03  0.69260921476E+03  0.77113308545E+02 0.  0.
          5    1    5    5  501    0  0.59857671196E+02  0.54602525066E+02  0.40000478673E+03  0.40815474510E+03  0.47000000000E+01 0. -1.
        -11    1    6    6    0    0 -0.81928758321E+02  0.61787882569E+02  0.51977356372E+03  0.52980621119E+03  0.00000000000E+00 0.  1.
         12    1    6    6    0    0 -0.21749508143E+01  0.54460636534E+02  0.15340836557E+03  0.16280300357E+03  0.00000000000E+00 0. -1.
         -5    1    3    3    0  503  0.57589823355E+02 -0.12402176013E+03 -0.64987039205E+02  0.15147075627E+03  0.47000000000E+01 0.  1.
         11    1    4    4    0    0 -0.32024512473E+02 -0.48750998877E+02 -0.13563043525E+03  0.14764093015E+03  0.00000000000E+00 0. -1.
        -12    1    4    4    0    0 -0.13192729419E+01  0.19217148376E+01  0.10062139601E+02  0.10328606991E+02  0.00000000000E+00 0.  1.
</event>
<event>
12    1  0.8462562E-002  0.2150161E+03  0.7818608E-02  0.1137709E+00
         21   -1    0    0  501  502  0.00000000000E+00  0.00000000000E+00  0.71417963944E+03  0.71417963944E+03  0.00000000000E+00 0. -1.
         21   -1    0    0  502  503 -0.00000000000E+00 -0.00000000000E+00 -0.25129529791E+03  0.25129529791E+03  0.00000000000E+00 0.  1.
         -6    2    1    2    0  503  0.14196017500E+02 -0.12811508567E+03 -0.18455248721E+03  0.28335759942E+03  0.17209563192E+03 0.  0.
        -24    2    3    3    0    0  0.30488366394E+02 -0.12796304314E+03 -0.73824553177E+02  0.17133872099E+03  0.81257687412E+02 0.  0.
          6    2    1    2  501    0 -0.14196017500E+02  0.12811508567E+03  0.64743682874E+03  0.68211733792E+03  0.17173995862E+03 0.  0.
         24    2    5    5    0    0 -0.53788329433E+02  0.55150139477E+02  0.21250626435E+03  0.23931024631E+03  0.78585999595E+02 0.  0.
          5    1    5    5  501    0  0.39592311933E+02  0.72964946192E+02  0.43493056440E+03  0.44280709161E+03  0.47000000000E+01 0. -1.
        -13    1    6    6    0    0  0.70677530764E+01 -0.12556068841E+02  0.10784313071E+02  0.17997483344E+02  0.00000000000E+00 0.  1.
         14    1    6    6    0    0 -0.60856082509E+02  0.67706208317E+02  0.20172195128E+03  0.22131276296E+03  0.00000000000E+00 0. -1.
         -5    1    3    3    0  503 -0.16292348894E+02 -0.15204252947E+00 -0.11072793404E+03  0.11201887843E+03  0.47000000000E+01 0.  1.
         11    1    4    4    0    0 -0.14564343159E+02 -0.10074929056E+03 -0.52638902026E+02  0.11460101939E+03  0.00000000000E+00 0. -1.
        -12    1    4    4    0    0  0.45052709553E+02 -0.27213752582E+02 -0.21185651151E+02  0.56737701596E+02  0.00000000000E+00 0.  1.
</event>
<event>
12    1  0.8462562E-002  0.2439544E+03  0.7818608E-02  0.1117219E+00
         21   -1    0    0  501  502  0.00000000000E+00  0.00000000000E+00  0.50288968518E+03  0.50288968518E+03  0.00000000000E+00 0.  1.
         21   -1    0    0  502  503 -0.00000000000E+00 -0.00000000000E+00 -0.11891548975E+03  0.11891548975E+03  0.00000000000E+00 0.  1.
         -6    2    1    2    0  503 -0.55891018987E+02 -0.16327011989E+03  0.16873246746E+03  0.29662160239E+03  0.17243199058E+03 0.  0.
        -24    2    3    3    0    0  0.17549268548E+02 -0.50010360093E+02  0.32302845542E+02  0.10464144519E+03  0.84245743381E+02 0.  0.
          6    2    1    2  501    0  0.55891018987E+02  0.16327011989E+03  0.21524172797E+03  0.32518357254E+03  0.17214649674E+03 0.  0.
         24    2    5    5    0    0 -0.23011390254E+02  0.12124437657E+03  0.89131414415E+02  0.17053023611E+03  0.76853298311E+02 0.  0.
          5    1    5    5  501    0  0.78902409240E+02  0.42025743324E+02  0.12611031355E+03  0.15465333644E+03  0.47000000000E+01 0. -1.
        -11    1    6    6    0    0 -0.39411146074E+02  0.63923952122E+02  0.80835776255E+02  0.11033554646E+03  0.00000000000E+00 0.  1.
         12    1    6    6    0    0  0.16399755821E+02  0.57320424443E+02  0.82956381596E+01  0.60194689648E+02  0.00000000000E+00 0. -1.
         -5    1    3    3    0  503 -0.73440287534E+02 -0.11325975980E+03  0.13642962192E+03  0.19198015720E+03  0.47000000000E+01 0.  1.
         11    1    4    4    0    0  0.50273908283E+02 -0.25052339465E+02  0.29359864257E+02  0.63380495390E+02  0.00000000000E+00 0. -1.
        -12    1    4    4    0    0 -0.32724639735E+02 -0.24958020628E+02  0.29429812854E+01  0.41260949799E+02  0.00000000000E+00 0.  1.
</event>
<event>
12    1  0.8462562E-002  0.1716818E+03  0.7818608E-02  0.1176463E+00
         21   -1    0    0  501  502  0.00000000000E+00  0.00000000000E+00  0.15179207752E+03  0.15179207752E+03  0.00000000000E+00 0.  1.
         21   -1    0    0  502  503 -0.00000000000E+00 -0.00000000000E+00 -0.20110421053E+03  0.20110421053E+03  0.00000000000E+00 0.  1.
         -6    2    1    2    0  503 -0.93443951071E+01  0.61551136990E+01 -0.61000010275E+02  0.18219666644E+03  0.17131672675E+03 0.  0.
        -24    2    3    3    0    0 -0.25396005267E+02 -0.32592203597E+02  0.23817276606E+02  0.87459815428E+02  0.73312671694E+02 0.  0.
          6    2    1    2  501    0  0.93443951071E+01 -0.61551136990E+01  0.11687877267E+02  0.17069962161E+03  0.16993101894E+03 0.  0.
         24    2    5    5    0    0  0.31440590263E+02  0.40445872755E+02  0.49053009859E+02  0.10683932946E+03  0.79900345462E+02 0.  0.
          5    1    5    5  501    0 -0.22096195156E+02 -0.46600986454E+02 -0.37365132592E+02  0.63860292142E+02  0.47000000000E+01 0. -1.
        -11    1    6    6    0    0 -0.26269607348E+02  0.14190282325E+02  0.25296277549E+02  0.39132570073E+02  0.00000000000E+00 0.  1.
         12    1    6    6    0    0  0.57710197611E+02  0.26255590430E+02  0.23756732310E+02  0.67706759391E+02  0.00000000000E+00 0. -1.
         -5    1    3    3    0  503  0.16051610160E+02  0.38747317296E+02 -0.84817286881E+02  0.94736851015E+02  0.47000000000E+01 0.  1.
         11    1    4    4    0    0 -0.33342021890E+02 -0.52059382006E+02  0.10877903108E+02  0.62771000108E+02  0.00000000000E+00 0. -1.
        -12    1    4    4    0    0  0.79460166234E+01  0.19467178408E+02  0.12939373499E+02  0.24688815320E+02  0.00000000000E+00 0.  1.
</event>
<event>
12    1  0.8462562E-002  0.1762393E+03  0.7818608E-02  0.1171882E+00
         21   -1    0    0  503  502  0.00000000000E+00  0.00000000000E+00  0.52018244807E+02  0.52018244807E+02  0.00000000000E+00 0. -1.
         21   -1    0    0  501  503 -0.00000000000E+00 -0.00000000000E+00 -0.73336085192E+03  0.73336085192E+03  0.00000000000E+00 0. -1.
          6    2    1    2  501    0  0.22296269444E+02  0.21062697796E+02 -0.51439773891E+03  0.54375116466E+03  0.17354980380E+03 0.  0.
         24    2    3    3    0    0  0.11598238693E+02  0.81861413014E+02 -0.31112821413E+03  0.33126229121E+03  0.78090523550E+02 0.  0.
         -6    2    1    2    0  502 -0.22296269444E+02 -0.21062697796E+02 -0.16694486820E+03  0.24162793207E+03  0.17196717032E+03 0.  0.
        -24    2    5    5    0    0 -0.36770023128E+01  0.37230007494E+02 -0.30489150068E+02  0.92005174410E+02  0.78331156268E+02 0.  0.
          5    1    3    3  501    0  0.10698030751E+02 -0.60798715218E+02 -0.20326952478E+03  0.21248887345E+03  0.47000000000E+01 0. -1.
        -11    1    4    4    0    0  0.28438205019E+02  0.56467187179E+01 -0.14286143367E+03  0.14577381853E+03  0.00000000000E+00 0.  1.
         12    1    4    4    0    0 -0.16839966327E+02  0.76214694297E+02 -0.16826678045E+03  0.18548847268E+03  0.00000000000E+00 0. -1.
         -5    1    5    5    0  502 -0.18619267131E+02 -0.58292705290E+02 -0.13645571813E+03  0.14962275766E+03  0.47000000000E+01 0.  1.
         11    1    6    6    0    0  0.32695582068E+01  0.62196068387E+01 -0.52743080232E+02  0.53209078478E+02  0.00000000000E+00 0. -1.
        -12    1    6    6    0    0 -0.69465605196E+01  0.31010400655E+02  0.22253930164E+02  0.38796095932E+02  0.00000000000E+00 0.  1.
</event>
<event>
12    1  0.8462562E-002  0.1733407E+03  0.7818608E-02  0.1174991E+00
         21   -1    0    0  501  502  0.00000000000E+00  0.00000000000E+00  0.78380377877E+02  0.78380377877E+02  0.00000000000E+00 0. -1.
         21   -1    0    0  502  503 -0.00000000000E+00 -0.00000000000E+00 -0.38938765662E+03  0.38938765662E+03  0.00000000000E+00 0. -1.
         -6    2    1    2    0  503 -0.22393286579E+02  0.37284551555E+01 -0.11509603976E+03  0.20618015365E+03  0.16955175236E+03 0.  0.
        -24    2    3    3    0    0 -0.14868515239E+02 -0.53272328593E+02 -0.25402077751E+02  0.99536783708E+02  0.78760980299E+02 0.  0.
          6    2    1    2  501    0  0.22393286579E+02 -0.37284551555E+01 -0.19591123898E+03  0.26158788085E+03  0.17184773837E+03 0.  0.
         24    2    5    5    0    0  0.33594110576E+02 -0.48385378332E+02 -0.56574548950E+02  0.11476655258E+03  0.80628610924E+02 0.  0.
          5    1    5    5  501    0 -0.11200823996E+02  0.44656923177E+02 -0.13933669003E+03  0.14682132827E+03  0.47000000000E+01 0. -1.
        -13    1    6    6    0    0  0.66526519530E+00 -0.62803887608E+02 -0.43988828044E+02  0.76679774837E+02  0.00000000000E+00 0.  1.
         14    1    6    6    0    0  0.32928845380E+02  0.14418509275E+02 -0.12585720906E+02  0.38086777739E+02  0.00000000000E+00 0. -1.
         -5    1    3    3    0  503 -0.75247713402E+01  0.57000783748E+02 -0.89693962012E+02  0.10664336994E+03  0.47000000000E+01 0.  1.
         13    1    4    4    0    0  0.33482749514E+01  0.86322162243E+01  0.19048435034E+02  0.21179447097E+02  0.00000000000E+00 0. -1.
        -14    1    4    4    0    0 -0.18216790191E+02 -0.61904544817E+02 -0.44450512785E+02  0.78357336611E+02  0.00000000000E+00 0.  1.
</event>
<event>
12    1  0.8462562E-002  0.2050934E+03  0.7818608E-02  0.1145992E+00
         21   -1    0    0  503  502  0.00000000000E+00  0.00000000000E+00  0.60362268696E+03  0.60362268696E+03  0.00000000000E+00 0. -1.
         21   -1    0    0  501  503 -0.00000000000E+00 -0.00000000000E+00 -0.69346317499E+02  0.69346317499E+02  0.00000000000E+00 0. -1.
          6    2    1    2  501    0 -0.89455438907E+02 -0.69541057002E+02  0.24142176479E+03  0.31677718653E+03  0.17095345340E+03 0.  0.
         24    2    3    3    0    0  0.12980737093E+02  0.27330928322E+01  0.71438537333E+02  0.10551168886E+03  0.76506748313E+02 0.  0.
         -6    2    1    2    0  502  0.89455438907E+02  0.69541057002E+02  0.29285460467E+03  0.35619181793E+03  0.16813850698E+03 0.  0.
        -24    2    5    5    0    0  0.88157078921E+02 -0.99170052744E+01  0.19640747868E+03  0.23113420117E+03  0.83529059080E+02 0.  0.
          5    1    3    3  501    0 -0.10243617600E+03 -0.72274149834E+02  0.16998322746E+03  0.21126549767E+03  0.47000000000E+01 0. -1.
        -13    1    4    4    0    0  0.55613115292E+01 -0.27972931012E+02  0.67995825864E+02  0.73734967216E+02  0.00000000000E+00 0.  1.
         14    1    4    4    0    0  0.74194255641E+01  0.30706023844E+02  0.34427114681E+01  0.31776721642E+02  0.00000000000E+00 0. -1.
         -5    1    5    5    0  502  0.12983599852E+01  0.79458062276E+02  0.96447125984E+02  0.12505761676E+03  0.47000000000E+01 0.  1.
         11    1    6    6    0    0  0.73957470098E+02 -0.87594305125E+01  0.20240876264E+03  0.21567508479E+03  0.00000000000E+00 0. -1.
        -12    1    6    6    0    0  0.14199608823E+02 -0.11575747619E+01 -0.60012839582E+01  0.15459116378E+02  0.00000000000E+00 0.  1.
</event>
<event>
12    1  0.8462562E-002  0.1978334E+03  0.7818608E-02  0.1151755E+00
         21   -1    0    0  501  502  0.00000000000E+00  0.00000000000E+00  0.30656052803E+02  0.30656052803E+02  0.00000000000E+00 0. -1.
         21   -1    0    0  502  503 -0.00000000000E+00 -0.00000000000E+00 -0.16836271510E+04  0.16836271510E+04  0.00000000000E+00 0. -1.
         -6    2    1    2    0  503  0.71545006158E+02 -0.68755863241E+02 -0.12518876355E+04  0.12674228665E+04  0.17114909819E+03 0.  0.
        -24    2    3    3    0    0 -0.11779879635E+02 -0.32206905097E+02 -0.89209102705E+03  0.89626986243E+03  0.79354996382E+02 0.  0.
          6    2    1    2  501    0 -0.71545006158E+02  0.68755863241E+02 -0.40108346267E+03  0.44686033734E+03  0.17020622910E+03 0.  0.
         24    2    5    5    0    0 -0.10028044561E+03  0.93765793885E+02 -0.31442690524E+03  0.35208338309E+03  0.79058446941E+02 0.  0.
          5    1    5    5  501    0  0.28735439456E+02 -0.25009930644E+02 -0.86656557431E+02  0.94776954252E+02  0.47000000000E+01 0. -1.
        -13    1    6    6    0    0 -0.26688366266E+02 -0.92622980823E+01 -0.90901645210E+02  0.95190168408E+02  0.00000000000E+00 0.  1.
         14    1    6    6    0    0 -0.73592079348E+02  0.10302809197E+03 -0.22352526003E+03  0.25689321468E+03  0.00000000000E+00 0. -1.
         -5    1    3    3    0  503  0.83324885793E+02 -0.36548958144E+02 -0.35979660847E+03  0.37115300403E+03  0.47000000000E+01 0.  1.
         13    1    4    4    0    0  0.14636749945E+02 -0.90543473351E+01 -0.73900985191E+03  0.73921023862E+03  0.00000000000E+00 0. -1.
        -14    1    4    4    0    0 -0.26416629580E+02 -0.23152557762E+02 -0.15308117514E+03  0.15705962381E+03  0.00000000000E+00 0.  1.
</event>
<event>
12    1  0.8462562E-002  0.2700154E+03  0.7818608E-02  0.1101491E+00
         21   -1    0    0  503  502  0.00000000000E+00  0.00000000000E+00  0.10873319267E+03  0.10873319267E+03  0.00000000000E+00 0.  1.
         21   -1    0    0  501  503 -0.00000000000E+00 -0.00000000000E+00 -0.85045667212E+03  0.85045667212E+03  0.00000000000E+00 0.  1.
          6    2    1    2  501    0  0.20627809502E+03 -0.11285169497E+02 -0.59460413687E+03  0.65304089387E+03  0.17386869169E+03 0.  0.
         24    2    3    3    0    0  0.12696067220E+03  0.24570809276E+02 -0.50816626491E+03  0.53027892711E+03  0.78993992063E+02 0.  0.
         -6    2    1    2    0  502 -0.20627809502E+03  0.11285169497E+02 -0.14711934258E+03  0.30614897091E+03  0.17147910629E+03 0.  0.
        -24    2    5    5    0    0 -0.17672842635E+03  0.65086679110E+02 -0.12825014161E+03  0.24176013570E+03  0.80812448987E+02 0.  0.
          5    1    3    3  501    0  0.79317422812E+02 -0.35855978772E+02 -0.86437871958E+02  0.12276196676E+03  0.47000000000E+01 0. -1.
        -13    1    4    4    0    0  0.11010643589E+03  0.49319574534E+02 -0.38154692206E+03  0.40016734174E+03  0.00000000000E+00 0.  1.
         14    1    4    4    0    0  0.16854236314E+02 -0.24748765259E+02 -0.12661934285E+03  0.13011158537E+03  0.00000000000E+00 0. -1.
         -5    1    5    5    0  502 -0.29549668666E+02 -0.53801509613E+02 -0.18869200970E+02  0.64388835214E+02  0.47000000000E+01 0.  1.
         13    1    6    6    0    0 -0.95673025021E+01  0.32468895867E+02 -0.13747217004E+02  0.36534209330E+02  0.00000000000E+00 0. -1.
        -14    1    6    6    0    0 -0.16716112385E+03  0.32617783243E+02 -0.11450292461E+03  0.20522592637E+03  0.00000000000E+00 0.  1.
</event>
<event>
12    1  0.8462562E-002  0.1833658E+03  0.7818608E-02  0.1165183E+00
         21   -1    0    0  503  502  0.00000000000E+00  0.00000000000E+00  0.16437693843E+03  0.16437693843E+03  0.00000000000E+00 0.  1.
         21   -1    0    0  501  503 -0.00000000000E+00 -0.00000000000E+00 -0.21226013928E+03  0.21226013928E+03  0.00000000000E+00 0.  1.
          6    2    1    2  501    0  0.17286167327E+02 -0.57901599668E+02 -0.65993799800E+02  0.19487995910E+03  0.17312310655E+03 0.  0.
         24    2    3    3    0    0  0.64701123306E+02 -0.28561978814E+02 -0.83893519576E+02  0.13613064956E+03  0.80569281572E+02 0.  0.
         -6    2    1    2    0  502 -0.17286167327E+02  0.57901599668E+02  0.18110598955E+02  0.18175711861E+03  0.17045893801E+03 0.  0.
        -24    2    5    5    0    0 -0.12456116805E+02  0.92335148759E+01  0.73285704849E+02  0.10787684942E+03  0.77628651047E+02 0.  0.
          5    1    3    3  501    0 -0.47414955979E+02 -0.29339620854E+02  0.17899719776E+02  0.58749309531E+02  0.47000000000E+01 0. -1.
        -11    1    4    4    0    0  0.31598884511E+02  0.20237512379E+02 -0.63458816860E+02  0.73722912631E+02  0.00000000000E+00 0.  1.
         12    1    4    4    0    0  0.33102238795E+02 -0.48799491193E+02 -0.20434702717E+02  0.62407736933E+02  0.00000000000E+00 0. -1.
         -5    1    5    5    0  502 -0.48300505220E+01  0.48668084792E+02 -0.55175105894E+02  0.73880269192E+02  0.47000000000E+01 0.  1.
         11    1    6    6    0    0 -0.12109239948E+00 -0.33387448251E+02  0.41666263201E+02  0.53393013150E+02  0.00000000000E+00 0. -1.
        -12    1    6    6    0    0 -0.12335024406E+02  0.42620963127E+02  0.31619441648E+02  0.54483836273E+02  0.00000000000E+00 0.  1.
</event>
<event>
12    1  0.8462562E-002  0.4274605E+03  0.7818608E-02  0.1034668E+00
         21   -1    0    0  503  502  0.00000000000E+00  0.00000000000E+00  0.32411578425E+03  0.32411578425E+03  0.00000000000E+00 0. -1.
         21   -1    0    0  501  503 -0.00000000000E+00 -0.00000000000E+00 -0.58580738698E+03  0.58580738698E+03  0.00000000000E+00 0.  1.
          6    2    1    2  501    0 -0.38443639770E+03  0.70729731573E+02 -0.21921596747E+03  0.48039371224E+03  0.17299838022E+03 0.  0.
         24    2    3    3    0    0 -0.37274049925E+03  0.95230102392E+02 -0.17956616046E+03  0.43211059503E+03  0.80444441550E+02 0.  0.
         -6    2    1    2    0  502  0.38443639770E+03 -0.70729731573E+02 -0.42475635257E+02  0.42952945899E+03  0.17290846638E+03 0.  0.
        -24    2    5    5    0    0  0.26453833627E+03 -0.39547657321E+02  0.38372870976E+02  0.28152122324E+03  0.78975777003E+02 0.  0.
          5    1    3    3  501    0 -0.11695898453E+02 -0.24500370818E+02 -0.39649807016E+02  0.48283117208E+02  0.47000000000E+01 0. -1.
        -13    1    4    4    0    0 -0.22804161585E+03  0.51102583386E+02 -0.15078349242E+03  0.27811888496E+03  0.00000000000E+00 0.  1.
         14    1    4    4    0    0 -0.14469888339E+03  0.44127519006E+02 -0.28782668041E+02  0.15399171007E+03  0.00000000000E+00 0. -1.
         -5    1    5    5    0  502  0.11989806143E+03 -0.31182074252E+02 -0.80848506233E+02  0.14800823575E+03  0.47000000000E+01 0.  1.
         11    1    6    6    0    0  0.15472277877E+03 -0.33753328995E+02 -0.15402040771E+02  0.15910891976E+03  0.00000000000E+00 0. -1.
        -12    1    6    6    0    0  0.10981555750E+03 -0.57943283255E+01  0.53774911746E+02  0.12241230348E+03  0.00000000000E+00 0.  1.
</event>
<event>
12    1  0.8462562E-002  0.2695056E+03  0.7818608E-02  0.1101611E+00
         21   -1    0    0  503  502  0.00000000000E+00  0.00000000000E+00  0.79174607408E+03  0.79174607408E+03  0.00000000000E+00 0.  1.
         21   -1    0    0  501  503 -0.00000000000E+00 -0.00000000000E+00 -0.10966495349E+03  0.10966495349E+03  0.00000000000E+00 0. -1.
          6    2    1    2  501    0 -0.13265019084E+03  0.15844270727E+03  0.15805104620E+03  0.31213960236E+03  0.17248429940E+03 0.  0.
         24    2    3    3    0    0 -0.30453182893E+02  0.14044970911E+03  0.83855560206E+02  0.18448758883E+03  0.79689386478E+02 0.  0.
         -6    2    1    2    0  502  0.13265019084E+03 -0.15844270727E+03  0.52403007439E+03  0.58927142521E+03  0.17301193335E+03 0.  0.
        -24    2    5    5    0    0  0.52685056306E+02 -0.77672062446E+02  0.12905733222E+03  0.17824359541E+03  0.79412340748E+02 0.  0.
          5    1    3    3  501    0 -0.10219700795E+03  0.17992998153E+02  0.74195485994E+02  0.12765201353E+03  0.47000000000E+01 0. -1.
        -11    1    4    4    0    0 -0.69991663621E+01  0.17102493001E+02  0.51663712427E+02  0.54869142314E+02  0.00000000000E+00 0.  1.
         12    1    4    4    0    0 -0.23454016531E+02  0.12334721611E+03  0.32191847779E+02  0.12961844652E+03  0.00000000000E+00 0. -1.
         -5    1    5    5    0  502  0.79965134534E+02 -0.80770644821E+02  0.39497274218E+03  0.41102782980E+03  0.47000000000E+01 0.  1.
         11    1    6    6    0    0  0.46742440235E+02 -0.71946461219E+02  0.51122747092E+02  0.99873341144E+02  0.00000000000E+00 0. -1.
        -12    1    6    6    0    0  0.59426160717E+01 -0.57256012276E+01  0.77934585125E+02  0.78370254266E+02  0.00000000000E+00 0.  1.
</event>
<event>
12    1  0.8462562E-002  0.2107818E+03  0.7818608E-02  0.1140999E+00
         21   -1    0    0  501  502  0.00000000000E+00  0.00000000000E+00  0.10758534741E+04  0.10758534741E+04  0.00000000000E+00 0. -1.
         21   -1    0    0  502  503 -0.00000000000E+00 -0.00000000000E+00 -0.11121992672E+03  0.11121992672E+03  0.00000000000E+00 0.  1.
         -6    2    1    2    0  503 -0.72178397132E+01 -0.12091359570E+03  0.95321051914E+03  0.97623728923E+03  0.17250146736E+03 0.  0.
        -24    2    3    3    0    0 -0.30855481463E+02 -0.12418263079E+03  0.93201328671E+03  0.94397527812E+03  0.77892057204E+02 0.  0.
          6    2    1    2  501    0  0.72178397132E+01  0.12091359570E+03  0.11423028215E+02  0.21083611157E+03  0.17218938856E+03 0.  0.
         24    2    5    5    0    0  0.28257663611E+02  0.73889943783E+02 -0.42827310134E+02  0.13587554033E+03  0.10183204124E+03 0.  0.
          5    1    5    5  501    0 -0.21039823898E+02  0.47023651920E+02  0.54250338349E+02  0.74960571239E+02  0.47000000000E+01 0. -1.
        -13    1    6    6    0    0  0.54676465859E+02  0.27402876304E+02  0.85126518638E+01  0.61748674401E+02  0.00000000000E+00 0.  1.
         14    1    6    6    0    0 -0.26418802247E+02  0.46487067479E+02 -0.51339961998E+02  0.74126865932E+02  0.00000000000E+00 0. -1.
         -5    1    3    3    0  503  0.23637641749E+02  0.32690350864E+01  0.21197232431E+02  0.32262011106E+02  0.47000000000E+01 0.  1.
         11    1    4    4    0    0 -0.19683195909E+02 -0.13058609740E+03  0.75246432558E+03  0.76396512899E+03  0.00000000000E+00 0. -1.
        -12    1    4    4    0    0 -0.11172285554E+02  0.64034666124E+01  0.17954896113E+03  0.18001014913E+03  0.00000000000E+00 0.  1.
</event>
<event>
12    1  0.8462562E-002  0.2206576E+03  0.7818608E-02  0.1133657E+00
         21   -1    0    0  503  502  0.00000000000E+00  0.00000000000E+00  0.14214816964E+03  0.14214816964E+03  0.00000000000E+00 0. -1.
         21   -1    0    0  501  503 -0.00000000000E+00 -0.00000000000E+00 -0.57492992101E+03  0.57492992101E+03  0.00000000000E+00 0.  1.
          6    2    1    2  501    0  0.13471208075E+03 -0.11175184358E+02 -0.44500610580E+03  0.49608215271E+03  0.17261181477E+03 0.  0.
         24    2    3    3    0    0  0.11150585984E+03 -0.59784387924E+02 -0.39331090594E+03  0.42127662451E+03  0.82296997607E+02 0.  0.
         -6    2    1    2    0  502 -0.13471208075E+03  0.11175184358E+02  0.12224354428E+02  0.22099593793E+03  0.17440625074E+03 0.  0.
        -24    2    5    5    0    0 -0.16707875641E+03 -0.28121468689E+00  0.18040857056E+02  0.18585660847E+03  0.79383981150E+02 0.  0.
          5    1    3    3  501    0  0.23206220915E+02  0.48609203567E+02 -0.51695199858E+02  0.74805528197E+02  0.47000000000E+01 0. -1.
        -11    1    4    4    0    0  0.10333574854E+03 -0.64757065155E+02 -0.25525920687E+03  0.28289400331E+03  0.00000000000E+00 0.  1.
         12    1    4    4    0    0  0.81701112965E+01  0.49726772303E+01 -0.13805169907E+03  0.13838262121E+03  0.00000000000E+00 0. -1.
         -5    1    5    5    0  502  0.32366675659E+02  0.11456399045E+02 -0.58165026278E+01  0.35139329463E+02  0.47000000000E+01 0.  1.
         11    1    6    6    0    0 -0.14990343773E+03 -0.27443912334E+02  0.99660669302E+01  0.15272043562E+03  0.00000000000E+00 0. -1.
        -12    1    6    6    0    0 -0.17175318681E+02  0.27162697647E+02  0.80747901261E+01  0.33136172846E+02  0.00000000000E+00 0.  1.
</event>
<event>
12    1  0.8462562E-002  0.2205758E+03  0.7818608E-02  0.1133497E+00
         21   -1    0    0  501  502  0.00000000000E+00  0.00000000000E+00  0.27880776214E+03  0.27880776214E+03  0.00000000000E+00 0. -1.
         21   -1    0    0  502  503 -0.00000000000E+00 -0.00000000000E+00 -0.22324116093E+03  0.22324116093E+03  0.00000000000E+00 0. -1.
         -6    2    1    2    0  503 -0.57074995617E+02  0.12545518593E+03 -0.89710741561E+02  0.23812115439E+03  0.17221239275E+03 0.  0.
        -24    2    3    3    0    0 -0.59080431452E+02  0.10377105655E+03  0.18861271885E+01  0.14385398299E+03  0.80196517299E+02 0.  0.
          6    2    1    2  501    0  0.57074995617E+02 -0.12545518593E+03  0.14527734278E+03  0.26392776868E+03  0.17191800940E+03 0.  0.
         24    2    5    5    0    0 -0.14651075896E+01 -0.13481022483E+03  0.79347319613E+02  0.17513971548E+03  0.78752647889E+02 0.  0.
          5    1    5    5  501    0  0.58540103207E+02  0.93550389028E+01  0.65930023163E+02  0.88788053197E+02  0.47000000000E+01 0. -1.
        -13    1    6    6    0    0 -0.16717848551E+02 -0.73987174826E+01 -0.79538298733E+01  0.19937173577E+02  0.00000000000E+00 0.  1.
         14    1    6    6    0    0  0.15252740962E+02 -0.12741150735E+03  0.87301149487E+02  0.15520254191E+03  0.00000000000E+00 0. -1.
         -5    1    3    3    0  503  0.20054358348E+01  0.21684129380E+02 -0.91596868749E+02  0.94267171404E+02  0.47000000000E+01 0.  1.
         11    1    4    4    0    0  0.33428005069E+01  0.55556495246E+02 -0.24321048646E+02  0.60738882822E+02  0.00000000000E+00 0. -1.
        -12    1    4    4    0    0 -0.62423231959E+02  0.48214561305E+02  0.26207175834E+02  0.83115100164E+02  0.00000000000E+00 0.  1.
</event>
<event>
12    1  0.8462562E-002  0.1768518E+03  0.7818608E-02  0.1171627E+00
         21   -1    0    0  503  502  0.00000000000E+00  0.00000000000E+00  0.20943800892E+03  0.20943800892E+03  0.00000000000E+00 0.  1.
         21   -1    0    0  501  503 -0.00000000000E+00 -0.00000000000E+00 -0.14995961775E+03  0.14995961775E+03  0.00000000000E+00 0.  1.
          6    2    1    2  501    0  0.38050015361E+02 -0.16857285264E+01  0.35721060662E+01  0.17391965189E+03  0.16966036668E+03 0.  0.
         24    2    3    3    0    0  0.29270103506E+01 -0.34199747735E+02  0.56776631119E+02  0.10220076727E+03  0.77738155712E+02 0.  0.
         -6    2    1    2    0  502 -0.38050015361E+02  0.16857285264E+01  0.55906285103E+02  0.18547797478E+03  0.17270182704E+03 0.  0.
        -24    2    5    5    0    0 -0.84037289875E+02  0.15111239719E+02  0.63004916752E+01  0.11635563027E+03  0.78792898444E+02 0.  0.
          5    1    3    3  501    0  0.35123005011E+02  0.32514019209E+02 -0.53204525053E+02  0.71718884628E+02  0.47000000000E+01 0. -1.
        -13    1    4    4    0    0 -0.25082039927E+02 -0.78302166987E+01  0.58040336913E+02  0.63711080115E+02  0.00000000000E+00 0.  1.
         14    1    4    4    0    0  0.28009050278E+02 -0.26369531037E+02 -0.12637057936E+01  0.38489687150E+02  0.00000000000E+00 0. -1.
         -5    1    5    5    0  502  0.45987274514E+02 -0.13425511192E+02  0.49605793428E+02  0.69122344503E+02  0.47000000000E+01 0.  1.
         11    1    6    6    0    0 -0.83772624477E+02 -0.12598546231E+02 -0.81451956310E+01  0.85105347604E+02  0.00000000000E+00 0. -1.
        -12    1    6    6    0    0 -0.26466539853E+00  0.27709785949E+02  0.14445687306E+02  0.31250282669E+02  0.00000000000E+00 0.  1.
</event>
<event>
12    1  0.8462562E-002  0.1821785E+03  0.7818608E-02  0.1165741E+00
         21   -1    0    0  503  502  0.00000000000E+00  0.00000000000E+00  0.28593271352E+03  0.28593271352E+03  0.00000000000E+00 0.  1.
         21   -1    0    0  501  503 -0.00000000000E+00 -0.00000000000E+00 -0.11913052719E+03  0.11913052719E+03  0.00000000000E+00 0.  1.
          6    2    1    2  501    0  0.15759012416E+02 -0.56833777079E+02  0.50498321681E+02  0.18892535879E+03  0.17223323144E+03 0.  0.
         24    2    3    3    0    0  0.28805516613E+02 -0.18908804259E+02 -0.35251784701E+02  0.94143052534E+02  0.80205519448E+02 0.  0.
         -6    2    1    2    0  502 -0.15759012416E+02  0.56833777079E+02  0.11630386465E+03  0.21613788192E+03  0.17236754444E+03 0.  0.
        -24    2    5    5    0    0 -0.24027817223E+02 -0.29530903774E+02  0.89566028522E+02  0.12523005435E+03  0.78810422974E+02 0.  0.
          5    1    3    3  501    0 -0.13046504197E+02 -0.37924972820E+02  0.85750106382E+02  0.94782306259E+02  0.47000000000E+01 0. -1.
        -13    1    4    4    0    0  0.86339500498E+01 -0.95926567949E+01 -0.59716103501E+02  0.61094821181E+02  0.00000000000E+00 0.  1.
         14    1    4    4    0    0  0.20171566563E+02 -0.93161474637E+01  0.24464318800E+02  0.33048231353E+02  0.00000000000E+00 0. -1.
         -5    1    5    5    0  502  0.82688048075E+01  0.86364680853E+02  0.26737836128E+02  0.90907827565E+02  0.47000000000E+01 0.  1.
         11    1    6    6    0    0 -0.39176309242E+02  0.10296993324E+02  0.24150175306E+02  0.47159752381E+02  0.00000000000E+00 0. -1.
        -12    1    6    6    0    0  0.15148492019E+02 -0.39827897098E+02  0.65415853216E+02  0.78070301970E+02  0.00000000000E+00 0.  1.
</event>
<event>
12    1  0.8462562E-002  0.2026118E+03  0.7818608E-02  0.1147972E+00
         21   -1    0    0  501  502  0.00000000000E+00  0.00000000000E+00  0.19397145293E+03  0.19397145293E+03  0.00000000000E+00 0.  1.
         21   -1    0    0  502  503 -0.00000000000E+00 -0.00000000000E+00 -0.21036623555E+03  0.21036623555E+03  0.00000000000E+00 0.  1.
         -6    2    1    2    0  503 -0.36154605917E+02 -0.10147138086E+03 -0.20841590384E+02  0.20368088128E+03  0.17160400009E+03 0.  0.
        -24    2    3    3    0    0 -0.31669294711E+02  0.15588672288E+02 -0.55899192786E+01  0.85452807070E+02  0.77620771108E+02 0.  0.
          6    2    1    2  501    0  0.36154605917E+02  0.10147138086E+03  0.44468077630E+01  0.20065680720E+03  0.16923292680E+03 0.  0.
         24    2    5    5    0    0 -0.42382916209E+02  0.63296717145E+02 -0.82957879637E+01  0.11228310592E+03  0.82072466696E+02 0.  0.
          5    1    5    5  501    0  0.78537522126E+02  0.38174663716E+02  0.12742595727E+02  0.88373701277E+02  0.47000000000E+01 0. -1.
        -11    1    6    6    0    0 -0.62949639887E+02  0.45850934669E+02  0.11643208885E+02  0.78743442172E+02  0.00000000000E+00 0.  1.
         12    1    6    6    0    0  0.20566723678E+02  0.17445782476E+02 -0.19938996849E+02  0.33539663749E+02  0.00000000000E+00 0. -1.
         -5    1    3    3    0  503 -0.44853112057E+01 -0.11706005315E+03 -0.15251671105E+02  0.11822807421E+03  0.47000000000E+01 0.  1.
         13    1    4    4    0    0 -0.42004664357E+02 -0.21161426191E+02 -0.46789777385E+01  0.47266167804E+02  0.00000000000E+00 0. -1.
        -14    1    4    4    0    0  0.10335369646E+02  0.36750098479E+02 -0.91094154002E+00  0.38186639266E+02  0.00000000000E+00 0.  1.
</event>
<event>
12    1  0.8462562E-002  0.1990644E+03  0.7818608E-02  0.1151781E+00
         21   -1    0    0  503  502  0.00000000000E+00  0.00000000000E+00  0.83586639853E+03  0.83586639853E+03  0.00000000000E+00 0.  1.
         21   -1    0    0  501  503 -0.00000000000E+00 -0.00000000000E+00 -0.46934239063E+02  0.46934239063E+02  0.00000000000E+00 0. -1.
          6    2    1    2  501    0  0.85144353054E+02  0.26117370519E+02  0.44976964351E+03  0.48953503738E+03  0.17152300924E+03 0.  0.
         24    2    3    3    0    0  0.22254322455E+02  0.40895991445E+02  0.39182149829E+03  0.40262335163E+03  0.80085827544E+02 0.  0.
         -6    2    1    2    0  502 -0.85144353054E+02 -0.26117370519E+02  0.33916251595E+03  0.39326560020E+03  0.17803073381E+03 0.  0.
        -24    2    5    5    0    0 -0.11454771256E+02 -0.66831441455E+02  0.15749141719E+03  0.19298013353E+03  0.88544520420E+02 0.  0.
          5    1    3    3  501    0  0.62890030599E+02 -0.14778620927E+02  0.57948145227E+02  0.86911685754E+02  0.47000000000E+01 0. -1.
        -11    1    4    4    0    0 -0.11442857433E+02 -0.16959798480E+02  0.45484232047E+02  0.49873731720E+02  0.00000000000E+00 0.  1.
         12    1    4    4    0    0  0.33697179888E+02  0.57855789925E+02  0.34633726624E+03  0.35274961991E+03  0.00000000000E+00 0. -1.
         -5    1    5    5    0  502 -0.73689581799E+02  0.40714070936E+02  0.18167109876E+03  0.20028546668E+03  0.47000000000E+01 0.  1.
         13    1    6    6    0    0  0.31480705811E+02 -0.52112096174E+02  0.11815286597E+03  0.13291653449E+03  0.00000000000E+00 0. -1.
        -14    1    6    6    0    0 -0.42935477067E+02 -0.14719345281E+02  0.39338551223E+02  0.60063599033E+02  0.00000000000E+00 0.  1.
</event>
<event>
12    1  0.8462562E-002  0.1804583E+03  0.7818608E-02  0.1167569E+00
         21   -1    0    0  503  502  0.00000000000E+00  0.00000000000E+00  0.38068745836E+03  0.38068745836E+03  0.00000000000E+00 0. -1.
         21   -1    0    0  501  503 -0.00000000000E+00 -0.00000000000E+00 -0.85976247559E+02  0.85976247559E+02  0.00000000000E+00 0. -1.
          6    2    1    2  501    0  0.46935877971E+02 -0.26872913258E+02  0.12390936846E+03  0.21819145363E+03  0.17125667502E+03 0.  0.
         24    2    3    3    0    0  0.24765887331E+02  0.40967825785E+02  0.11192007256E+03  0.14566761221E+03  0.80007741375E+02 0.  0.
         -6    2    1    2    0  502 -0.46935877971E+02  0.26872913258E+02  0.17080184234E+03  0.24847225229E+03  0.17216289002E+03 0.  0.
        -24    2    5    5    0    0 -0.92845338553E+02  0.26799381444E+02  0.14643208345E+03  0.19628356456E+03  0.88013742773E+02 0.  0.
          5    1    3    3  501    0  0.22169990641E+02 -0.67840739043E+02  0.11989295901E+02  0.72523841425E+02  0.47000000000E+01 0. -1.
        -11    1    4    4    0    0 -0.79313473628E+01  0.12080355027E+02 -0.90627473205E+01  0.17057978707E+02  0.00000000000E+00 0.  1.
         12    1    4    4    0    0  0.32697234694E+02  0.28887470759E+02  0.12098281988E+03  0.12860963350E+03  0.00000000000E+00 0. -1.
         -5    1    5    5    0  502  0.45909460582E+02  0.73531813397E-01  0.24369758893E+02  0.52188687724E+02  0.47000000000E+01 0.  1.
         11    1    6    6    0    0 -0.84890280423E+02 -0.39706828885E+01  0.59548811809E+02  0.10376987530E+03  0.00000000000E+00 0. -1.
        -12    1    6    6    0    0 -0.79550581299E+01  0.30770064333E+02  0.86883271643E+02  0.92513689259E+02  0.00000000000E+00 0.  1.
</event>
<event>
12    1  0.8462562E-002  0.1767591E+03  0.7818608E-02  0.1171155E+00
         21   -1    0    0  501  502  0.00000000000E+00  0.00000000000E+00  0.39590375552E+03  0.39590375552E+03  0.00000000000E+00 0.  1.
         21   -1    0    0  502  503 -0.00000000000E+00 -0.00000000000E+00 -0.10618903757E+03  0.10618903757E+03  0.00000000000E+00 0.  1.
         -6    2    1    2    0  503  0.36509814420E+02 -0.15625871780E+02  0.16672725653E+02  0.17683029326E+03  0.17150463089E+03 0.  0.
        -24    2    3    3    0    0  0.93686832473E+01 -0.81329250089E+02  0.24202318774E+02  0.10518980404E+03  0.61456679824E+02 0.  0.
          6    2    1    2  501    0 -0.36509814420E+02  0.15625871780E+02  0.27304199230E+03  0.32526249984E+03  0.17224003549E+03 0.  0.
         24    2    5    5    0    0 -0.39654389127E+02  0.72232678390E+02  0.22058971616E+03  0.24788323791E+03  0.77435433465E+02 0.  0.
          5    1    5    5  501    0  0.31445747068E+01 -0.56606806610E+02  0.52452276134E+02  0.77379261927E+02  0.47000000000E+01 0. -1.
        -11    1    6    6    0    0 -0.32667212386E+02  0.42741602991E+02  0.46295753923E+02  0.70973855909E+02  0.00000000000E+00 0.  1.
         12    1    6    6    0    0 -0.69871767412E+01  0.29491075400E+02  0.17429396224E+03  0.17690938200E+03  0.00000000000E+00 0. -1.
         -5    1    3    3    0  503  0.27141131173E+02  0.65703378308E+02 -0.75295931204E+01  0.71640489216E+02  0.47000000000E+01 0.  1.
         11    1    4    4    0    0  0.13120506664E+02  0.19251392132E+01  0.16971237506E+02  0.21537798370E+02  0.00000000000E+00 0. -1.
        -12    1    4    4    0    0 -0.37518234168E+01 -0.83254389302E+02  0.72310812673E+01  0.83652005674E+02  0.00000000000E+00 0.  1.
</event>
<event>
12    1  0.8462562E-002  0.2254083E+03  0.7818608E-02  0.1130366E+00
         21   -1    0    0  503  502  0.00000000000E+00  0.00000000000E+00  0.15359358224E+03  0.15359358224E+03  0.00000000000E+00 0. -1.
         21   -1    0    0  501  503 -0.00000000000E+00 -0.00000000000E+00 -0.35487232684E+03  0.35487232684E+03  0.00000000000E+00 0.  1.
          6    2    1    2  501    0  0.12257632956E+03  0.79623285865E+02 -0.30110898379E+02  0.22741053415E+03  0.17159271728E+03 0.  0.
         24    2    3    3    0    0  0.87085977365E+02  0.64756030893E+02 -0.85378198705E+02  0.15990375779E+03  0.80637856813E+02 0.  0.
         -6    2    1    2    0  502 -0.12257632956E+03 -0.79623285865E+02 -0.17116784621E+03  0.28105537492E+03  0.16831181769E+03 0.  0.
        -24    2    5    5    0    0 -0.78349573329E+02 -0.10858564509E+03 -0.79279388515E+02  0.17494032945E+03  0.79933719187E+02 0.  0.
          5    1    3    3  501    0  0.35490352197E+02  0.14867254972E+02  0.55267300325E+02  0.67506776361E+02  0.47000000000E+01 0. -1.
        -11    1    4    4    0    0  0.22431698632E+02  0.48458069243E+02 -0.75536147845E+02  0.92504460484E+02  0.00000000000E+00 0.  1.
         12    1    4    4    0    0  0.64654278733E+02  0.16297961650E+02 -0.98420508598E+01  0.67399297308E+02  0.00000000000E+00 0. -1.
         -5    1    5    5    0  502 -0.44226756232E+02  0.28962359224E+02 -0.91888457699E+02  0.10611504548E+03  0.47000000000E+01 0.  1.
         13    1    6    6    0    0 -0.75655349214E+02 -0.11667674746E+03 -0.55581622603E+02  0.14975483977E+03  0.00000000000E+00 0. -1.
        -14    1    6    6    0    0 -0.26942241149E+01  0.80911023703E+01 -0.23697765912E+02  0.25185489679E+02  0.00000000000E+00 0.  1.
</event>
<event>
12    1  0.8462562E-002  0.2651461E+03  0.7818608E-02  0.1104092E+00
         21   -1    0    0  501  502  0.00000000000E+00  0.00000000000E+00  0.26704431449E+03  0.26704431449E+03  0.00000000000E+00 0. -1.
         21   -1    0    0  502  503 -0.00000000000E+00 -0.00000000000E+00 -0.27050347480E+03  0.27050347480E+03  0.00000000000E+00 0.  1.
         -6    2    1    2    0  503 -0.59584899877E+02 -0.19204876469E+03 -0.45742180167E+02  0.26905138442E+03  0.17280975696E+03 0.  0.
        -24    2    3    3    0    0 -0.46239102757E+02 -0.51776528451E+02  0.23987877592E+02  0.11176571592E+03  0.84245435849E+02 0.  0.
          6    2    1    2  501    0  0.59584899877E+02  0.19204876469E+03  0.42283019858E+02  0.26849640486E+03  0.17282759428E+03 0.  0.
         24    2    5    5    0    0  0.28753533191E+02  0.94063387177E+02 -0.43789348726E+02  0.13439849283E+03  0.80441042601E+02 0.  0.
          5    1    5    5  501    0  0.30831366686E+02  0.97985377514E+02  0.86072368584E+02  0.13409791203E+03  0.47000000000E+01 0. -1.
        -13    1    6    6    0    0  0.34252993792E+02  0.10717990065E+03 -0.35761062440E+02  0.11806630457E+03  0.00000000000E+00 0.  1.
         14    1    6    6    0    0 -0.54994606009E+01 -0.13116513476E+02 -0.80282862857E+01  0.16332188260E+02  0.00000000000E+00 0. -1.
         -5    1    3    3    0  503 -0.13345797120E+02 -0.14027223624E+03 -0.69730057759E+02  0.15728566850E+03  0.47000000000E+01 0.  1.
         13    1    4    4    0    0 -0.66273814633E+02 -0.23983244133E+02  0.30660965324E+02  0.76860323313E+02  0.00000000000E+00 0. -1.
        -14    1    4    4    0    0  0.20034711876E+02 -0.27793284318E+02 -0.66730877319E+01  0.34905392606E+02  0.00000000000E+00 0.  1.
</event>
<event>
12    1  0.8462562E-002  0.1752830E+03  0.7818608E-02  0.1172620E+00
         21   -1    0    0  501  502  0.00000000000E+00  0.00000000000E+00  0.69608249231E+02  0.69608249231E+02  0.00000000000E+00 0.  1.
         21   -1    0    0  502  503 -0.00000000000E+00 -0.00000000000E+00 -0.60631237113E+03  0.60631237113E+03  0.00000000000E+00 0.  1.
         -6    2    1    2    0  503 -0.92410585769E+01  0.30012622543E+02 -0.44591745284E+03  0.47913097865E+03  0.17244699266E+03 0.  0.
        -24    2    3    3    0    0  0.15381487572E+02  0.39649783995E+02 -0.44346687723E+03  0.45216359130E+03  0.77332700472E+02 0.  0.
          6    2    1    2  501    0  0.92410585769E+01 -0.30012622543E+02 -0.90786669058E+02  0.19678964171E+03  0.17174920417E+03 0.  0.
         24    2    5    5    0    0  0.26698818268E+00  0.29071293264E+02 -0.10822051896E+03  0.13435990386E+03  0.74132932400E+02 0.  0.
          5    1    5    5  501    0  0.89740703942E+01 -0.59083915807E+02  0.17433849900E+02  0.62429737857E+02  0.47000000000E+01 0. -1.
        -13    1    6    6    0    0 -0.28383686341E+02  0.35549546190E+02 -0.41989692429E+02  0.61907496758E+02  0.00000000000E+00 0.  1.
         14    1    6    6    0    0  0.28650674524E+02 -0.64782529265E+01 -0.66230826529E+02  0.72452407099E+02  0.00000000000E+00 0. -1.
         -5    1    3    3    0  503 -0.24622546149E+02 -0.96371614514E+01 -0.24505756084E+01  0.26967387350E+02  0.47000000000E+01 0.  1.
         13    1    4    4    0    0  0.29954216381E+01  0.27909193928E+01  0.23054172429E+01  0.46985881402E+01  0.00000000000E+00 0. -1.
        -14    1    4    4    0    0  0.12386065934E+02  0.36858864602E+02 -0.44577229448E+03  0.44746500316E+03  0.00000000000E+00 0.  1.
</event>
<event>
12    1  0.8462562E-002  0.1769758E+03  0.7818608E-02  0.1170883E+00
         21   -1    0    0  501  502  0.00000000000E+00  0.00000000000E+00  0.76186665237E+02  0.76186665237E+02  0.00000000000E+00 0. -1.
         21   -1    0    0  502  503 -0.00000000000E+00 -0.00000000000E+00 -0.59148193951E+03  0.59148193951E+03  0.00000000000E+00 0. -1.
         -6    2    1    2    0  503 -0.35777674014E+02  0.22305885301E+02 -0.44233215314E+03  0.47624225528E+03  0.17138073852E+03 0.  0.
        -24    2    3    3    0    0 -0.58464176911E+02  0.68153697841E+02 -0.22974952156E+03  0.25754117028E+03  0.74024490696E+02 0.  0.
          6    2    1    2  501    0  0.35777674014E+02 -0.22305885301E+02 -0.72963121133E+02  0.19142634947E+03  0.17188029482E+03 0.  0.
         24    2    5    5    0    0  0.81455678231E+02 -0.49772179752E+02 -0.67702031362E+02  0.13766161692E+03  0.72490401644E+02 0.  0.
          5    1    5    5  501    0 -0.45678004216E+02  0.27466294451E+02 -0.52610897712E+01  0.53764732545E+02  0.47000000000E+01 0. -1.
        -11    1    6    6    0    0  0.72876748706E+02 -0.43131371290E+02 -0.83218017471E+02  0.11872899445E+03  0.00000000000E+00 0.  1.
         12    1    6    6    0    0  0.85789295245E+01 -0.66408084621E+01  0.15515986109E+02  0.18932622474E+02  0.00000000000E+00 0. -1.
         -5    1    3    3    0  503  0.22686502897E+02 -0.45847812541E+02 -0.21258263158E+03  0.21870108499E+03  0.47000000000E+01 0.  1.
         11    1    4    4    0    0  0.25557829659E+01 -0.11303232013E+02 -0.54119794060E+02  0.55346609559E+02  0.00000000000E+00 0. -1.
        -12    1    4    4    0    0 -0.61019959877E+02  0.79456929854E+02 -0.17562972750E+03  0.20219456072E+03  0.00000000000E+00 0.  1.
</event>
<event>
12    1  0.8462562E-002  0.1983306E+03  0.7818608E-02  0.1151688E+00
         21   -1    0    0  503  502  0.00000000000E+00  0.00000000000E+00  0.14464507850E+03  0.14464507850E+03  0.00000000000E+00 0.  1.
         21   -1    0    0  501  503 -0.00000000000E+00 -0.00000000000E+00 -0.35513519243E+03  0.35513519243E+03  0.00000000000E+00 0. -1.
          6    2    1    2  501    0  0.79802588460E+02 -0.48866656239E+02  0.17642050378E+02  0.19911370877E+03  0.17486744654E+03 0.  0.
         24    2    3    3    0    0  0.11419749353E+03 -0.52135809650E+02 -0.16013451336E+02  0.15065259390E+03  0.81734712633E+02 0.  0.
         -6    2    1    2    0  502 -0.79802588460E+02  0.48866656239E+02 -0.22813216431E+03  0.30066656216E+03  0.17204561602E+03 0.  0.
        -24    2    5    5    0    0  0.41313142476E+00 -0.27395747771E+02 -0.93325285939E+02  0.12618017175E+03  0.80381148748E+02 0.  0.
          5    1    3    3  501    0 -0.34394905066E+02  0.32691534106E+01  0.33655501714E+02  0.48461114867E+02  0.47000000000E+01 0.  1.
        -13    1    4    4    0    0  0.11602645544E+03 -0.23903527967E+02 -0.24793783127E+02  0.12102994957E+03  0.00000000000E+00 0.  1.
         14    1    4    4    0    0 -0.18289619129E+01 -0.28232281683E+02  0.87803317906E+01  0.29622644330E+02  0.00000000000E+00 0. -1.
         -5    1    5    5    0  502 -0.80215719885E+02  0.76262404011E+02 -0.13480687837E+03  0.17448639041E+03  0.47000000000E+01 0.  1.
         13    1    6    6    0    0 -0.96410667194E+01 -0.50454478632E+02 -0.85663055978E+02  0.99883751136E+02  0.00000000000E+00 0. -1.
        -14    1    6    6    0    0  0.10054198144E+02  0.23058730860E+02 -0.76622299611E+01  0.26296420616E+02  0.00000000000E+00 0.  1.
</event>
<event>
12    1  0.8462562E-002  0.2053165E+03  0.7818608E-02  0.1145366E+00
         21   -1    0    0  503  502  0.00000000000E+00  0.00000000000E+00  0.83354323228E+02  0.83354323228E+02  0.00000000000E+00 0.  1.
         21   -1    0    0  501  503 -0.00000000000E+00 -0.00000000000E+00 -0.51153652507E+03  0.51153652507E+03  0.00000000000E+00 0.  1.
          6    2    1    2  501    0 -0.10474572721E+03  0.40353040243E+02 -0.18111365345E+03  0.27364683219E+03  0.17169856749E+03 0.  0.
         24    2    3    3    0    0 -0.11744210302E+03  0.11665260080E+02 -0.19305421827E+03  0.23975208661E+03  0.79261629973E+02 0.  0.
         -6    2    1    2    0  502  0.10474572721E+03 -0.40353040243E+02 -0.24706854839E+03  0.32124401610E+03  0.17191513910E+03 0.  0.
        -24    2    5    5    0    0  0.70107665849E+02  0.19436595876E+02 -0.22358915571E+03  0.24811421532E+03  0.79219235185E+02 0.  0.
          5    1    3    3  501    0  0.12696375814E+02  0.28687780164E+02  0.11940564825E+02  0.33894745579E+02  0.47000000000E+01 0. -1.
        -13    1    4    4    0    0 -0.23485079857E+02  0.18884542263E+02 -0.11028953898E+03  0.11433266078E+03  0.00000000000E+00 0.  1.
         14    1    4    4    0    0 -0.93957023168E+02 -0.72192821830E+01 -0.82764679294E+02  0.12541942583E+03  0.00000000000E+00 0. -1.
         -5    1    5    5    0  502  0.34638061361E+02 -0.59789636119E+02 -0.23479392685E+02  0.73129800786E+02  0.47000000000E+01 0.  1.
         13    1    6    6    0    0  0.29973913083E+02  0.18419904744E+01 -0.12506060171E+02  0.32530446284E+02  0.00000000000E+00 0. -1.
        -14    1    6    6    0    0  0.40133752766E+02  0.17594605401E+02 -0.21108309554E+03  0.21558376904E+03  0.00000000000E+00 0.  1.
</event>
<event>
12    1  0.8462562E-002  0.1822166E+03  0.7818608E-02  0.1166844E+00
         21   -1    0    0  503  502  0.00000000000E+00  0.00000000000E+00  0.15365780149E+03  0.15365780149E+03  0.00000000000E+00 0.  1.
         21   -1    0    0  501  503 -0.00000000000E+00 -0.00000000000E+00 -0.10611282288E+04  0.10611282288E+04  0.00000000000E+00 0.  1.
          6    2    1    2  501    0 -0.12606278205E+02 -0.56597502208E+02 -0.99637300071E+03  0.10120385333E+04  0.16763245779E+03 0.  0.
         24    2    3    3    0    0  0.44632927344E+02 -0.32765612833E+02 -0.34285941697E+03  0.35557346973E+03  0.76251091680E+02 0.  0.
         -6    2    1    2    0  502  0.12606278205E+02  0.56597502208E+02  0.88902573392E+02  0.20274749697E+03  0.17274456422E+03 0.  0.
        -24    2    5    5    0    0  0.48873254862E+02  0.86791060267E+02  0.37992297167E+02  0.13317098679E+03  0.79811113854E+02 0.  0.
          5    1    3    3  501    0 -0.57239205549E+02 -0.23831889375E+02 -0.65351358374E+03  0.65646506360E+03  0.47000000000E+01 0. -1.
        -13    1    4    4    0    0 -0.15855454923E+02  0.30584478659E+01 -0.13895957998E+03  0.13989465474E+03  0.00000000000E+00 0.  1.
         14    1    4    4    0    0  0.60488382266E+02 -0.35824060699E+02 -0.20389983699E+03  0.21567881500E+03  0.00000000000E+00 0. -1.
         -5    1    5    5    0  502 -0.36266976657E+02 -0.30193558060E+02  0.50910276226E+02  0.69576510185E+02  0.47000000000E+01 0.  1.
         11    1    6    6    0    0  0.30073559898E+02 -0.30756291387E+01  0.27310003141E+02  0.40739597090E+02  0.00000000000E+00 0. -1.
        -12    1    6    6    0    0  0.18799694964E+02  0.89866689406E+02  0.10682294026E+02  0.92431389697E+02  0.00000000000E+00 0.  1.
</event>
<event>
12    1  0.8462562E-002  0.2112444E+03  0.7818608E-02  0.1141532E+00
         21   -1    0    0  501  502  0.00000000000E+00  0.00000000000E+00  0.77840901174E+03  0.77840901174E+03  0.00000000000E+00 0. -1.
         21   -1    0    0  502  503 -0.00000000000E+00 -0.00000000000E+00 -0.59353097523E+02  0.59353097523E+02  0.00000000000E+00 0. -1.
         -6    2    1    2    0  503 -0.69104800445E+02  0.93764289700E+02  0.25671791587E+03  0.32945057934E+03  0.17048865192E+03 0.  0.
        -24    2    3    3    0    0 -0.45266410828E+02  0.50709692057E+02  0.47905804958E+02  0.11486596932E+03  0.79238273205E+02 0.  0.
          6    2    1    2  501    0  0.69104800445E+02 -0.93764289700E+02  0.46233799835E+03  0.50831152992E+03  0.17622988187E+03 0.  0.
         24    2    5    5    0    0  0.10120085973E+03 -0.43611417974E+02  0.39803628541E+03  0.42054896471E+03  0.79277849579E+02 0.  0.
          5    1    5    5  501    0 -0.32096059286E+02 -0.50152871727E+02  0.64301712939E+02  0.87762565203E+02  0.47000000000E+01 0. -1.
        -13    1    6    6    0    0  0.32364228195E+02  0.11643669017E+02  0.44968981331E+02  0.56614729327E+02  0.00000000000E+00 0.  1.
         14    1    6    6    0    0  0.68836631535E+02 -0.55255086990E+02  0.35306730408E+03  0.36393423539E+03  0.00000000000E+00 0. -1.
         -5    1    3    3    0  503 -0.23838389617E+02  0.43054597643E+02  0.20881211091E+03  0.21458461002E+03  0.47000000000E+01 0.  1.
         11    1    4    4    0    0 -0.12647621917E+02 -0.18570224772E+02 -0.33552429567E+01  0.22717245510E+02  0.00000000000E+00 0. -1.
        -12    1    4    4    0    0 -0.32618788910E+02  0.69279916829E+02  0.51261047915E+02  0.92148723807E+02  0.00000000000E+00 0.  1.
</event>
<event>
12    1  0.8462562E-002  0.1857226E+03  0.7818608E-02  0.1163821E+00
         21   -1    0    0  501  502  0.00000000000E+00  0.00000000000E+00  0.12486323370E+03  0.12486323370E+03  0.00000000000E+00 0. -1.
         21   -1    0    0  502  503 -0.00000000000E+00 -0.00000000000E+00 -0.26725329397E+03  0.26725329397E+03  0.00000000000E+00 0. -1.
         -6    2    1    2    0  503  0.53133606965E+02  0.17009313825E+02 -0.73832574897E+02  0.19986025548E+03  0.17714506953E+03 0.  0.
        -24    2    3    3    0    0  0.54554813105E+02 -0.44257970067E+02 -0.33209071669E+01  0.10632050356E+03  0.79737227853E+02 0.  0.
          6    2    1    2  501    0 -0.53133606965E+02 -0.17009313825E+02 -0.68557485373E+02  0.19225627219E+03  0.17073326697E+03 0.  0.
         24    2    5    5    0    0  0.15714107601E+02  0.32840056291E+02 -0.62741199061E+02  0.10692816025E+03  0.78560619390E+02 0.  0.
          5    1    5    5  501    0 -0.68847714566E+02 -0.49849370117E+02 -0.58162863120E+01  0.85328111947E+02  0.47000000000E+01 0. -1.
        -13    1    6    6    0    0  0.27287361632E+02 -0.18319182670E+02 -0.15498633453E+02  0.36337311368E+02  0.00000000000E+00 0.  1.
         14    1    6    6    0    0 -0.11573254031E+02  0.51159238962E+02 -0.47242565608E+02  0.70590848877E+02  0.00000000000E+00 0. -1.
         -5    1    3    3    0  503 -0.14212061396E+01  0.61267283893E+02 -0.70511667730E+02  0.93539751916E+02  0.47000000000E+01 0.  1.
         13    1    4    4    0    0  0.42460430884E+01  0.22025160829E+02  0.40052475823E+01  0.22785490989E+02  0.00000000000E+00 0. -1.
        -14    1    4    4    0    0  0.50308770016E+02 -0.66283130896E+02 -0.73261547493E+01  0.83535012572E+02  0.00000000000E+00 0.  1.
</event>
<event>
12    1  0.8462562E-002  0.1813263E+03  0.7818608E-02  0.1166541E+00
         21   -1    0    0  503  502  0.00000000000E+00  0.00000000000E+00  0.21464690321E+03  0.21464690321E+03  0.00000000000E+00 0.  1.
         21   -1    0    0  501  503 -0.00000000000E+00 -0.00000000000E+00 -0.43908866454E+03  0.43908866454E+03  0.00000000000E+00 0.  1.
          6    2    1    2  501    0 -0.40566016673E+02  0.38515057765E+02 -0.37601512525E+03  0.41745252215E+03  0.17248252795E+03 0.  0.
         24    2    3    3    0    0  0.19760143569E+02  0.39429872117E+02 -0.32699188809E+03  0.33957152141E+03  0.80249269057E+02 0.  0.
         -6    2    1    2    0  502  0.40566016673E+02 -0.38515057765E+02  0.15157336392E+03  0.23628304561E+03  0.17241282321E+03 0.  0.
        -24    2    5    5    0    0  0.55326298571E+01 -0.86281731476E+02  0.75716693163E+02  0.13992269169E+03  0.79813500399E+02 0.  0.
          5    1    3    3  501    0 -0.60326160241E+02 -0.91481435160E+00 -0.49023237155E+02  0.77881000738E+02  0.47000000000E+01 0. -1.
        -11    1    4    4    0    0 -0.17014644398E+02 -0.11837618419E+02 -0.15485771660E+03  0.15623872671E+03  0.00000000000E+00 0.  1.
         12    1    4    4    0    0  0.36774787967E+02  0.51267490536E+02 -0.17213417149E+03  0.18333279470E+03  0.00000000000E+00 0. -1.
         -5    1    5    5    0  502  0.35033386816E+02  0.47766673711E+02  0.75856670756E+02  0.96360353919E+02  0.47000000000E+01 0.  1.
         13    1    6    6    0    0 -0.40194611718E+00  0.50283219278E+01  0.42160338584E+02  0.42461037807E+02  0.00000000000E+00 0. -1.
        -14    1    6    6    0    0  0.59345759743E+01 -0.91310053404E+02  0.33556354579E+02  0.97461653881E+02  0.00000000000E+00 0.  1.
</event>
<event>
12    1  0.8462562E-002  0.3459444E+03  0.7818608E-02  0.1064558E+00
         21   -1    0    0  501  502  0.00000000000E+00  0.00000000000E+00  0.32413170364E+03  0.32413170364E+03  0.00000000000E+00 0. -1.
         21   -1    0    0  502  503 -0.00000000000E+00 -0.00000000000E+00 -0.37361796142E+03  0.37361796142E+03  0.00000000000E+00 0.  1.
         -6    2    1    2    0  503  0.23196744486E+03  0.18609851439E+03  0.23276233256E+02  0.34672653075E+03  0.17673695584E+03 0.  0.
        -24    2    3    3    0    0  0.51453773494E+02  0.11263970046E+03 -0.10638944742E+02  0.14885356091E+03  0.81908500926E+02 0.  0.
          6    2    1    2  501    0 -0.23196744486E+03 -0.18609851439E+03 -0.72762491042E+02  0.35102313431E+03  0.17170121778E+03 0.  0.
         24    2    5    5    0    0 -0.14721286932E+03 -0.19029067756E+03 -0.46196781487E+02  0.26197966610E+03  0.92827969765E+02 0.  0.
          5    1    5    5  501    0 -0.84754575539E+02  0.41921631726E+01 -0.26565709555E+02  0.89043468211E+02  0.47000000000E+01 0. -1.
        -11    1    6    6    0    0 -0.55261370865E+02 -0.72489899335E+02  0.27700465755E+02  0.95267625238E+02  0.00000000000E+00 0.  1.
         12    1    6    6    0    0 -0.91951498453E+02 -0.11780077822E+03 -0.73897247242E+02  0.16671204086E+03  0.00000000000E+00 0. -1.
         -5    1    3    3    0  503  0.18051367136E+03  0.73458813922E+02  0.33915177998E+02  0.19787296983E+03  0.47000000000E+01 0.  1.
         13    1    4    4    0    0  0.65410064457E+02  0.53508198001E+02 -0.21343400810E+02  0.87161600167E+02  0.00000000000E+00 0. -1.
        -14    1    4    4    0    0 -0.13956290963E+02  0.59131502464E+02  0.10704456067E+02  0.61691960747E+02  0.00000000000E+00 0.  1.
</event>
<event>
12    1  0.8462562E-002  0.1854907E+03  0.7818608E-02  0.1162604E+00
         21   -1    0    0  501  502  0.00000000000E+00  0.00000000000E+00  0.89803445224E+02  0.89803445224E+02  0.00000000000E+00 0.  1.
         21   -1    0    0  502  503 -0.00000000000E+00 -0.00000000000E+00 -0.96730926327E+03  0.96730926327E+03  0.00000000000E+00 0.  1.
         -6    2    1    2    0  503 -0.12661726984E+02  0.70732586321E+02 -0.84951797537E+03  0.86952237735E+03  0.17095308169E+03 0.  0.
        -24    2    3    3    0    0 -0.42264601336E+02 -0.17020420520E+02 -0.44570348846E+03  0.45519744422E+03  0.80480571282E+02 0.  0.
          6    2    1    2  501    0  0.12661726984E+02 -0.70732586321E+02 -0.27987842679E+02  0.18759033115E+03  0.17100700250E+03 0.  0.
         24    2    5    5    0    0  0.20045325072E+02 -0.22046488081E+02 -0.79192552126E+02  0.11639436250E+03  0.79926995531E+02 0.  0.
          5    1    5    5  501    0 -0.73835980888E+01 -0.48686098240E+02  0.51204709447E+02  0.71195968651E+02  0.47000000000E+01 0. -1.
        -13    1    6    6    0    0  0.91470933574E+01 -0.52197158448E+02 -0.44984718435E+02  0.69511420354E+02  0.00000000000E+00 0.  1.
         14    1    6    6    0    0  0.10898231715E+02  0.30150670367E+02 -0.34207833691E+02  0.46882942142E+02  0.00000000000E+00 0. -1.
         -5    1    3    3    0  503  0.29602874352E+02  0.87753006841E+02 -0.40381448691E+03  0.41432493313E+03  0.47000000000E+01 0.  1.
         13    1    4    4    0    0  0.15024138945E+02 -0.25734208070E+02 -0.90004980303E+02  0.94809655075E+02  0.00000000000E+00 0. -1.
        -14    1    4    4    0    0 -0.57288740281E+02  0.87137875504E+01 -0.35569850816E+03  0.36038778914E+03  0.00000000000E+00 0.  1.
</event>
<event>
12    1  0.8462562E-002  0.1908289E+03  0.7818608E-02  0.1158136E+00
         21   -1    0    0  503  502  0.00000000000E+00  0.00000000000E+00  0.46866077087E+03  0.46866077087E+03  0.00000000000E+00 0. -1.
         21   -1    0    0  501  503 -0.00000000000E+00 -0.00000000000E+00 -0.11515655958E+03  0.11515655958E+03  0.00000000000E+00 0. -1.
          6    2    1    2  501    0 -0.25658645086E+01  0.80884987930E+02  0.80237146546E+01  0.18913715537E+03  0.17076158413E+03 0.  0.
         24    2    3    3    0    0  0.55727766684E+02  0.33593444594E+02  0.35294375066E+02  0.10913455274E+03  0.80190736320E+02 0.  0.
         -6    2    1    2    0  502  0.25658645086E+01 -0.80884987930E+02  0.34548049663E+03  0.39468017508E+03  0.17281985451E+03 0.  0.
        -24    2    5    5    0    0 -0.35867342208E+02 -0.10279358139E+03  0.30931072644E+03  0.33734397254E+03  0.79213911045E+02 0.  0.
          5    1    3    3  501    0 -0.58293631193E+02  0.47291543336E+02 -0.27270660411E+02  0.80002602632E+02  0.47000000000E+01 0. -1.
        -13    1    4    4    0    0  0.67356032749E+02  0.19544603213E+02  0.82627534501E+00  0.70139214377E+02  0.00000000000E+00 0.  1.
         14    1    4    4    0    0 -0.11628266065E+02  0.14048841381E+02  0.34468099721E+02  0.38995338365E+02  0.00000000000E+00 0. -1.
         -5    1    5    5    0  502  0.38433206716E+02  0.21908593460E+02  0.36169770190E+02  0.57336202539E+02  0.47000000000E+01 0.  1.
         11    1    6    6    0    0  0.11969543066E+01 -0.52820137691E+02  0.23284293650E+03  0.23876187452E+03  0.00000000000E+00 0. -1.
        -12    1    6    6    0    0 -0.37064296514E+02 -0.49973443699E+02  0.76467789941E+02  0.98582098018E+02  0.00000000000E+00 0.  1.
</event>
<event>
12    1  0.8462562E-002  0.2058940E+03  0.7818608E-02  0.1145046E+00
         21   -1    0    0  503  502  0.00000000000E+00  0.00000000000E+00  0.52759598303E+02  0.52759598303E+02  0.00000000000E+00 0.  1.
         21   -1    0    0  501  503 -0.00000000000E+00 -0.00000000000E+00 -0.81102521117E+03  0.81102521117E+03  0.00000000000E+00 0.  1.
          6    2    1    2  501    0 -0.78572403083E+02  0.82004943790E+02 -0.43047045806E+03  0.47717623739E+03  0.17173791931E+03 0.  0.
         24    2    3    3    0    0 -0.51606021086E+02  0.10966737771E+03 -0.24132133291E+03  0.28406518759E+03  0.88130187433E+02 0.  0.
         -6    2    1    2    0  502  0.78572403083E+02 -0.82004943790E+02 -0.32779515480E+03  0.38660857208E+03  0.17064023899E+03 0.  0.
        -24    2    5    5    0    0  0.10427572942E+02 -0.15227599411E+01 -0.22837675086E+03  0.24160095561E+03  0.78128281332E+02 0.  0.
          5    1    3    3  501    0 -0.26966381997E+02 -0.27662433917E+02 -0.18914912515E+03  0.19311104980E+03  0.47000000000E+01 0. -1.
        -11    1    4    4    0    0 -0.69974034746E+02  0.10546414435E+03 -0.18094608370E+03  0.22081788082E+03  0.00000000000E+00 0.  1.
         12    1    4    4    0    0  0.18368013660E+02  0.42032333523E+01 -0.60375249212E+02  0.63247306771E+02  0.00000000000E+00 0. -1.
         -5    1    5    5    0  502  0.68144830141E+02 -0.80482183849E+02 -0.99418403940E+02  0.14500761647E+03  0.47000000000E+01 0.  1.
         11    1    6    6    0    0 -0.34057827301E+02 -0.37421109559E+01 -0.95881164988E+02  0.10181913766E+03  0.00000000000E+00 0. -1.
        -12    1    6    6    0    0  0.44485400242E+02  0.22193510147E+01 -0.13249558587E+03  0.13978181795E+03  0.00000000000E+00 0.  1.
</event>
<event>
12    1  0.8462562E-002  0.1827971E+03  0.7818608E-02  0.1165637E+00
         21   -1    0    0  501  502  0.00000000000E+00  0.00000000000E+00  0.12872890812E+04  0.12872890812E+04  0.00000000000E+00 0.  1.
         21   -1    0    0  502  503 -0.00000000000E+00 -0.00000000000E+00 -0.67113633092E+02  0.67113633092E+02  0.00000000000E+00 0.  1.
         -6    2    1    2    0  503 -0.49906985000E+02 -0.19369872022E+02  0.76435882748E+02  0.19614756802E+03  0.17252688247E+03 0.  0.
        -24    2    3    3    0    0 -0.13069010196E+02 -0.46731135367E+02  0.10583563856E+03  0.14144737824E+03  0.80321730443E+02 0.  0.
          6    2    1    2  501    0  0.49906985000E+02  0.19369872022E+02  0.11437395653E+04  0.11582551462E+04  0.17478241160E+03 0.  0.
         24    2    5    5    0    0 -0.10538050560E+02  0.70711930905E+01  0.97826445692E+03  0.98159456396E+03  0.79784008759E+02 0.  0.
          5    1    5    5  501    0  0.60445035560E+02  0.12298678932E+02  0.16547510841E+03  0.17666058228E+03  0.47000000000E+01 0. -1.
        -11    1    6    6    0    0 -0.14135113417E+02 -0.33053735865E+02  0.62654032557E+03  0.62757081708E+03  0.00000000000E+00 0.  1.
         12    1    6    6    0    0  0.35970628574E+01  0.40124928956E+02  0.35172413135E+03  0.35402374688E+03  0.00000000000E+00 0. -1.
         -5    1    3    3    0  503 -0.36837974804E+02  0.27361263344E+02 -0.29399755816E+02  0.54700189776E+02  0.47000000000E+01 0.  1.
         13    1    4    4    0    0 -0.39470983739E+02 -0.52981025022E+02  0.82237389733E+02  0.10548903185E+03  0.00000000000E+00 0. -1.
        -14    1    4    4    0    0  0.26401973543E+02  0.62498896556E+01  0.23598248831E+02  0.35958346396E+02  0.00000000000E+00 0.  1.
</event>
<event>
12    1  0.8462562E-002  0.2251664E+03  0.7818608E-02  0.1130170E+00
         21   -1    0    0  503  502  0.00000000000E+00  0.00000000000E+00  0.62728892991E+02  0.62728892991E+02  0.00000000000E+00 0. -1.
         21   -1    0    0  501  503 -0.00000000000E+00 -0.00000000000E+00 -0.10042957713E+04  0.10042957713E+04  0.00000000000E+00 0. -1.
          6    2    1    2  501    0 -0.14230587523E+03 -0.28258385007E+02 -0.70785342395E+03  0.74280306110E+03  0.17219297122E+03 0.  0.
         24    2    3    3    0    0 -0.40314315864E+02 -0.15003312266E+02 -0.14734901894E+03  0.17292127234E+03  0.79622167772E+02 0.  0.
         -6    2    1    2    0  502  0.14230587523E+03  0.28258385007E+02 -0.23371345440E+03  0.32422160323E+03  0.17160469336E+03 0.  0.
        -24    2    5    5    0    0  0.16106910613E+03  0.23509529449E+02 -0.24224700222E+03  0.30255314917E+03  0.79742354268E+02 0.  0.
          5    1    3    3  501    0 -0.10199155937E+03 -0.13255072741E+02 -0.56050440500E+03  0.56988178876E+03  0.47000000000E+01 0. -1.
        -11    1    4    4    0    0  0.83608412721E+01 -0.14727395023E+02  0.82664860354E+00  0.16955328922E+02  0.00000000000E+00 0.  1.
         12    1    4    4    0    0 -0.48675157136E+02 -0.27591724301E+00 -0.14817566755E+03  0.15596594342E+03  0.00000000000E+00 0. -1.
         -5    1    5    5    0  502 -0.18763230897E+02  0.47488555582E+01  0.85335478203E+01  0.21668454057E+02  0.47000000000E+01 0.  1.
         11    1    6    6    0    0  0.15320711271E+03  0.39805119725E+02 -0.19021048905E+03  0.24746090011E+03  0.00000000000E+00 0. -1.
        -12    1    6    6    0    0  0.78619934191E+01 -0.16295590276E+02 -0.52036513175E+02  0.55092249059E+02  0.00000000000E+00 0.  1.
</event>
<event>
12    1  0.8462562E-002  0.2256251E+03  0.7818608E-02  0.1132603E+00
         21   -1    0    0  501  502  0.00000000000E+00  0.00000000000E+00  0.23470779182E+04  0.23470779182E+04  0.00000000000E+00 0.  1.
         21   -1    0    0  502  503 -0.00000000000E+00 -0.00000000000E+00 -0.20253207734E+02  0.20253207734E+02  0.00000000000E+00 0.  1.
         -6    2    1    2    0  503 -0.11981275475E+03  0.34799135863E+01  0.12011605981E+04  0.12221675321E+04  0.19115304892E+03 0.  0.
        -24    2    3    3    0    0 -0.48729742860E+02 -0.22776459641E+02  0.10359760414E+04  0.10403703388E+04  0.78934964291E+02 0.  0.
          6    2    1    2  501    0  0.11981275475E+03 -0.34799135863E+01  0.11256641124E+04  0.11451635938E+04  0.17295304783E+03 0.  0.
         24    2    5    5    0    0  0.54471263827E+02 -0.63079323515E+02  0.47984628453E+03  0.49330137153E+03  0.78407057986E+02 0.  0.
          5    1    5    5  501    0  0.65341490927E+02  0.59599409929E+02  0.64581782784E+03  0.65186222230E+03  0.47000000000E+01 0. -1.
        -11    1    6    6    0    0  0.53727582325E+02 -0.12768456524E+02  0.34463330724E+03  0.34902980251E+03  0.00000000000E+00 0.  1.
         12    1    6    6    0    0  0.74368150183E+00 -0.50310866991E+02  0.13521297729E+03  0.14427156902E+03  0.00000000000E+00 0. -1.
         -5    1    3    3    0  503 -0.71083011894E+02  0.26256373228E+02  0.16518455669E+03  0.18179719327E+03  0.47000000000E+01 0.  1.
         11    1    4    4    0    0 -0.58671495843E+02 -0.43155440567E+02  0.78301020055E+03  0.78639030426E+03  0.00000000000E+00 0. -1.
        -12    1    4    4    0    0  0.99417529823E+01  0.20378980925E+02  0.25296584088E+03  0.25398003458E+03  0.00000000000E+00 0.  1.
</event>
<event>
12    1  0.8462562E-002  0.1956244E+03  0.7818608E-02  0.1153752E+00
         21   -1    0    0  503  502  0.00000000000E+00  0.00000000000E+00  0.16091415367E+03  0.16091415367E+03  0.00000000000E+00 0. -1.
         21   -1    0    0  501  503 -0.00000000000E+00 -0.00000000000E+00 -0.88150657936E+03  0.88150657936E+03  0.00000000000E+00 0. -1.
          6    2    1    2  501    0 -0.73482172584E+02 -0.53032692244E+02 -0.80650258531E+03  0.82988875135E+03  0.17336903809E+03 0.  0.
         24    2    3    3    0    0 -0.42287521177E+02 -0.34478587385E+02 -0.77178585462E+03  0.77944370726E+03  0.94350834446E+02 0.  0.
         -6    2    1    2    0  502  0.73482172584E+02  0.53032692244E+02  0.85910159630E+02  0.21253198168E+03  0.17198020693E+03 0.  0.
        -24    2    5    5    0    0  0.53196187555E+02  0.97946871218E+02  0.34399217785E+02  0.14108779513E+03  0.79366465211E+02 0.  0.
          5    1    3    3  501    0 -0.31194651406E+02 -0.18554104859E+02 -0.34716730695E+02  0.50445044094E+02  0.47000000000E+01 0. -1.
        -13    1    4    4    0    0 -0.40156030609E+02 -0.21707204642E+02 -0.13466546131E+03  0.14219175784E+03  0.00000000000E+00 0.  1.
         14    1    4    4    0    0 -0.21314905685E+01 -0.12771382744E+02 -0.63712039331E+03  0.63725194942E+03  0.00000000000E+00 0. -1.
         -5    1    5    5    0  502  0.20285985028E+02 -0.44914178974E+02  0.51510941845E+02  0.71444186546E+02  0.47000000000E+01 0.  1.
         11    1    6    6    0    0  0.43020941832E+01  0.29477032319E+02  0.47370324951E+02  0.55958476879E+02  0.00000000000E+00 0. -1.
        -12    1    6    6    0    0  0.48894093372E+02  0.68469838899E+02 -0.12971107166E+02  0.85129318256E+02  0.00000000000E+00 0.  1.
</event>
<event>
12    1  0.8462562E-002  0.2140322E+03  0.7818608E-02  0.1138456E+00
         21   -1    0    0  503  502  0.00000000000E+00  0.00000000000E+00  0.58217548993E+02  0.58217548993E+02  0.00000000000E+00 0.  1.
         21   -1    0    0  501  503 -0.00000000000E+00 -0.00000000000E+00 -0.22219305873E+04  0.22219305873E+04  0.00000000000E+00 0. -1.
          6    2    1    2  501    0  0.71972831839E+02 -0.10305240436E+03 -0.19985562036E+04  0.20099842507E+04  0.17323366484E+03 0.  0.
         24    2    3    3    0    0  0.76997468694E+02 -0.10073131207E+03 -0.19974654814E+04  0.20026416272E+04  0.68042122279E+02 0.  0.
         -6    2    1    2    0  502 -0.71972831839E+02  0.10305240436E+03 -0.16515683474E+03  0.27016388561E+03  0.17295045088E+03 0.  0.
        -24    2    5    5    0    0 -0.10686949686E+03  0.49375703051E+02 -0.85078617112E+02  0.16753067251E+03  0.83481169912E+02 0.  0.
          5    1    3    3  501    0 -0.50246368550E+01 -0.23210922862E+01 -0.10907222354E+01  0.73426235039E+01  0.47000000000E+01 0. -1.
        -11    1    4    4    0    0 -0.20044192131E+01 -0.58574723067E+00 -0.14215604720E+01  0.25261889034E+01  0.00000000000E+00 0.  1.
         12    1    4    4    0    0  0.79001887907E+02 -0.10014556484E+03 -0.19960439209E+04  0.20001154383E+04  0.00000000000E+00 0. -1.
         -5    1    5    5    0  502  0.34896665022E+02  0.53676701305E+02 -0.80078217631E+02  0.10263321310E+03  0.47000000000E+01 0.  1.
         11    1    6    6    0    0 -0.85660045933E+02  0.40978141773E+02 -0.10182618049E+03  0.13923154314E+03  0.00000000000E+00 0. -1.
        -12    1    6    6    0    0 -0.21209450927E+02  0.83975612780E+01  0.16747563374E+02  0.28299129368E+02  0.00000000000E+00 0.  1.
</event>
<event>
12    1  0.8462562E-002  0.1913890E+03  0.7818608E-02  0.1158586E+00
         21   -1    0    0  503  502  0.00000000000E+00  0.00000000000E+00  0.11061114658E+03  0.11061114658E+03  0.00000000000E+00 0.  1.
         21   -1    0    0  501  503 -0.00000000000E+00 -0.00000000000E+00 -0.32858133271E+03  0.32858133271E+03  0.00000000000E+00 0.  1.
          6    2    1    2  501    0 -0.18420177964E+02 -0.67651148724E+02 -0.73476495922E+02  0.19938388190E+03  0.17157842530E+03 0.  0.
         24    2    3    3    0    0  0.24770243366E+02 -0.29291580709E+01  0.11882195269E+02  0.83787408207E+02  0.79101190170E+02 0.  0.
         -6    2    1    2    0  502  0.18420177964E+02  0.67651148724E+02 -0.14449369020E+03  0.23980859739E+03  0.17808356464E+03 0.  0.
        -24    2    5    5    0    0  0.13146845054E+02  0.74982317470E+02 -0.13731964839E+02  0.10865116186E+03  0.76297579564E+02 0.  0.
          5    1    3    3  501    0 -0.43190421330E+02 -0.64721990653E+02 -0.85358691191E+02  0.11559647369E+03  0.47000000000E+01 0. -1.
        -11    1    4    4    0    0 -0.24846897747E+02  0.14720941656E+02  0.11602192469E+02  0.31123709949E+02  0.00000000000E+00 0.  1.
         12    1    4    4    0    0  0.49617141114E+02 -0.17650099727E+02  0.28000279943E+00  0.52663698258E+02  0.00000000000E+00 0. -1.
         -5    1    5    5    0  502  0.52733329105E+01 -0.73311687456E+01 -0.13076172536E+03  0.13115743553E+03  0.47000000000E+01 0.  1.
         11    1    6    6    0    0  0.19403751943E+02 -0.35858699436E+01  0.14972741712E+02  0.24769881854E+02  0.00000000000E+00 0. -1.
        -12    1    6    6    0    0 -0.62569068891E+01  0.78568187413E+02 -0.28704706552E+02  0.83881280006E+02  0.00000000000E+00 0.  1.
</event>
<event>
12    1  0.8462562E-002  0.1934891E+03  0.7818608E-02  0.1155482E+00
         21   -1    0    0  503  502  0.00000000000E+00  0.00000000000E+00  0.61924382649E+02  0.61924382649E+02  0.00000000000E+00 0.  1.
         21   -1    0    0  501  503 -0.00000000000E+00 -0.00000000000E+00 -0.93057361758E+03  0.93057361758E+03  0.00000000000E+00 0.  1.
          6    2    1    2  501    0 -0.84813121523E+02  0.22966062474E+02 -0.72844336394E+03  0.75355093490E+03  0.17172236724E+03 0.  0.
         24    2    3    3    0    0 -0.85596382372E+02  0.76291331029E+02 -0.52898013147E+03  0.54702764597E+03  0.79196957626E+02 0.  0.
         -6    2    1    2    0  502  0.84813121523E+02 -0.22966062474E+02 -0.14020587099E+03  0.23894706532E+03  0.17238708815E+03 0.  0.
        -24    2    5    5    0    0  0.77722512759E+02 -0.12492653047E+02 -0.14755078048E+02  0.11277273954E+03  0.79392210486E+02 0.  0.
          5    1    3    3  501    0  0.78326084967E+00 -0.53325268555E+02 -0.19946323247E+03  0.20652328893E+03  0.47000000000E+01 0. -1.
        -11    1    4    4    0    0 -0.50959056457E+02 -0.59573104972E+00 -0.26665360685E+03  0.27147988209E+03  0.00000000000E+00 0.  1.
         12    1    4    4    0    0 -0.34637325915E+02  0.76887062079E+02 -0.26232652462E+03  0.27554776389E+03  0.00000000000E+00 0. -1.
         -5    1    5    5    0  502  0.70906087632E+01 -0.10473409427E+02 -0.12545079294E+03  0.12617432578E+03  0.47000000000E+01 0.  1.
         11    1    6    6    0    0 -0.61765353316E+00  0.20942274821E+02 -0.17872727635E+02  0.27538968094E+02  0.00000000000E+00 0. -1.
        -12    1    6    6    0    0  0.78340166292E+02 -0.33434927869E+02  0.31176495870E+01  0.85233771448E+02  0.00000000000E+00 0.  1.
</event>
<event>
12    1  0.8462562E-002  0.2534014E+03  0.7818608E-02  0.1111280E+00
         21   -1    0    0  501  502  0.00000000000E+00  0.00000000000E+00  0.86672600703E+03  0.86672600703E+03  0.00000000000E+00 0. -1.
         21   -1    0    0  502  503 -0.00000000000E+00 -0.00000000000E+00 -0.90950028603E+02  0.90950028603E+02  0.00000000000E+00 0.  1.
         -6    2    1    2    0  503  0.18539465330E+03 -0.18038416633E+02  0.59486615392E+03  0.64632315381E+03  0.17079612446E+03 0.  0.
        -24    2    3    3    0    0  0.18200903223E+03 -0.52998663175E+02  0.55609576069E+03  0.59379778224E+03  0.86122964515E+02 0.  0.
          6    2    1    2  501    0 -0.18539465330E+03  0.18038416633E+02  0.18090982452E+03  0.31135288183E+03  0.17180131101E+03 0.  0.
         24    2    5    5    0    0 -0.68665453674E+02  0.61887585355E+02  0.12504495872E+03  0.17463628124E+03  0.79476860010E+02 0.  0.
          5    1    5    5  501    0 -0.11672919963E+03 -0.43849168721E+02  0.55864865800E+02  0.13671660058E+03  0.47000000000E+01 0. -1.
        -11    1    6    6    0    0  0.95234546665E+01  0.68397394622E+01 -0.53901696830E+01  0.12904733779E+02  0.00000000000E+00 0.  1.
         12    1    6    6    0    0 -0.78188908340E+02  0.55047845892E+02  0.13043512840E+03  0.16173154746E+03  0.00000000000E+00 0. -1.
         -5    1    3    3    0  503  0.33856210700E+01  0.34960246542E+02  0.38770393221E+02  0.52525371572E+02  0.47000000000E+01 0.  1.
         13    1    4    4    0    0  0.46960654307E+02 -0.50154113037E+02  0.24903373237E+03  0.25833803043E+03  0.00000000000E+00 0. -1.
        -14    1    4    4    0    0  0.13504837793E+03 -0.28445501374E+01  0.30706202832E+03  0.33545975181E+03  0.00000000000E+00 0.  1.
</event>
<event>
12    1  0.8462562E-002  0.2445644E+03  0.7818608E-02  0.1116958E+00
         21   -1    0    0  503  502  0.00000000000E+00  0.00000000000E+00  0.20557132215E+03  0.20557132215E+03  0.00000000000E+00 0. -1.
         21   -1    0    0  501  503 -0.00000000000E+00 -0.00000000000E+00 -0.37291725964E+03  0.37291725964E+03  0.00000000000E+00 0.  1.
          6    2    1    2  501    0  0.10547717557E+03  0.13746595853E+03 -0.22015285935E+03  0.32828805884E+03  0.17112405961E+03 0.  0.
         24    2    3    3    0    0  0.13123386747E+01  0.86844819447E+02 -0.57287313125E+02  0.12838786096E+03  0.75218758953E+02 0.  0.
         -6    2    1    2    0  502 -0.10547717557E+03 -0.13746595853E+03  0.52806921858E+02  0.25020052294E+03  0.17259607865E+03 0.  0.
        -24    2    5    5    0    0 -0.11790451811E+03 -0.11887373692E+03  0.90129838257E+02  0.20643752904E+03  0.80378012730E+02 0.  0.
          5    1    3    3  501    0  0.10416483689E+03  0.50621139082E+02 -0.16286554622E+03  0.19990019788E+03  0.47000000000E+01 0. -1.
        -13    1    4    4    0    0 -0.20177926578E+02  0.39336821863E+02 -0.61872284622E+02  0.76044157433E+02  0.00000000000E+00 0.  1.
         14    1    4    4    0    0  0.21490265253E+02  0.47507997583E+02  0.45849714965E+01  0.52343703524E+02  0.00000000000E+00 0. -1.
         -5    1    5    5    0  502  0.12427342545E+02 -0.18592221610E+02 -0.37322916399E+02  0.43762993906E+02  0.47000000000E+01 0.  1.
         13    1    6    6    0    0 -0.25606879849E+02  0.45209498550E+01  0.33181975664E+02  0.42156788210E+02  0.00000000000E+00 0. -1.
        -14    1    6    6    0    0 -0.92297638265E+02 -0.12339468677E+03  0.56947862593E+02  0.16428074083E+03  0.00000000000E+00 0.  1.
</event>
<event>
12    1  0.8462562E-002  0.2142257E+03  0.7818608E-02  0.1138318E+00
         21   -1    0    0  501  502  0.00000000000E+00  0.00000000000E+00  0.41802442178E+02  0.41802442178E+02  0.00000000000E+00 0.  1.
         21   -1    0    0  502  503 -0.00000000000E+00 -0.00000000000E+00 -0.12142428560E+04  0.12142428560E+04  0.00000000000E+00 0. -1.
         -6    2    1    2    0  503 -0.61438806618E+02 -0.11183478918E+03 -0.78153508129E+03  0.81028795361E+03  0.17171993901E+03 0.  0.
        -24    2    3    3    0    0 -0.30639173722E+01 -0.71362790156E+01 -0.18126577920E+03  0.19814848359E+03  0.79656919179E+02 0.  0.
          6    2    1    2  501    0  0.61438806618E+02  0.11183478918E+03 -0.39090533252E+03  0.44575734455E+03  0.17207813400E+03 0.  0.
         24    2    5    5    0    0  0.35145402995E+02 -0.56382160891E+01 -0.11156790558E+03  0.14154896510E+03  0.79509264447E+02 0.  0.
          5    1    5    5  501    0  0.26293403622E+02  0.11747300527E+03 -0.27933742694E+03  0.30420837945E+03  0.47000000000E+01 0. -1.
        -11    1    6    6    0    0  0.33661622887E+02  0.29811113689E+02 -0.88388047715E+02  0.99167808959E+02  0.00000000000E+00 0.  1.
         12    1    6    6    0    0  0.14837801082E+01 -0.35449329778E+02 -0.23179857861E+02  0.42381156138E+02  0.00000000000E+00 0. -1.
         -5    1    3    3    0  503 -0.58374889246E+02 -0.10469851016E+03 -0.60026930208E+03  0.61213947001E+03  0.47000000000E+01 0.  1.
         13    1    4    4    0    0  0.26212260999E+01  0.21629078520E+00 -0.18713681366E+03  0.18715529550E+03  0.00000000000E+00 0. -1.
        -14    1    4    4    0    0 -0.56851434721E+01 -0.73525698008E+01  0.58710344528E+01  0.10993188096E+02  0.00000000000E+00 0.  1.
</event>
<event>
12    1  0.8462562E-002  0.2809982E+03  0.7818608E-02  0.1095187E+00
         21   -1    0    0  503  502  0.00000000000E+00  0.00000000000E+00  0.24979898352E+03  0.24979898352E+03  0.00000000000E+00 0.  1.
         21   -1    0    0  501  503 -0.00000000000E+00 -0.00000000000E+00 -0.36556738190E+03  0.36556738190E+03  0.00000000000E+00 0. -1.
          6    2    1    2  501    0  0.16029354832E+03  0.15350776086E+03 -0.17144523805E+03  0.32890539425E+03  0.17183315874E+03 0.  0.
         24    2    3    3    0    0  0.17726388903E+03  0.14911606766E+03 -0.11523441432E+03  0.26983741530E+03  0.76649673602E+02 0.  0.
         -6    2    1    2    0  502 -0.16029354832E+03 -0.15350776086E+03  0.55676839664E+02  0.28646097116E+03  0.17234071848E+03 0.  0.
        -24    2    5    5    0    0 -0.17256353219E+03 -0.13478524851E+03  0.85917135602E+02  0.24854460964E+03  0.80295908572E+02 0.  0.
          5    1    3    3  501    0 -0.16970340709E+02  0.43916931958E+01 -0.56210823731E+02  0.59067978951E+02  0.47000000000E+01 0. -1.
        -13    1    4    4    0    0  0.96015744497E+02  0.59535451062E+02 -0.17454199265E+02  0.11431597525E+03  0.00000000000E+00 0.  1.
         14    1    4    4    0    0  0.81248144534E+02  0.89580616601E+02 -0.97780215054E+02  0.15552144006E+03  0.00000000000E+00 0. -1.
         -5    1    5    5    0  502  0.12269983866E+02 -0.18722512345E+02 -0.30240295938E+02  0.37916361522E+02  0.47000000000E+01 0.  1.
         13    1    6    6    0    0 -0.33989669588E+02 -0.34969093391E+02 -0.13931508807E+02  0.50717078671E+02  0.00000000000E+00 0. -1.
        -14    1    6    6    0    0 -0.13857386260E+03 -0.99816155123E+02  0.99848644409E+02  0.19782753097E+03  0.00000000000E+00 0.  1.
</event>
<event>
12    1  0.8462562E-002  0.1846885E+03  0.7818608E-02  0.1163482E+00
         21   -1    0    0  501  502  0.00000000000E+00  0.00000000000E+00  0.54601238108E+03  0.54601238108E+03  0.00000000000E+00 0.  1.
         21   -1    0    0  502  503 -0.00000000000E+00 -0.00000000000E+00 -0.34437810171E+03  0.34437810171E+03  0.00000000000E+00 0. -1.
         -6    2    1    2    0  503 -0.63913412045E+02 -0.14482290377E+02 -0.30215436028E+03  0.35381537162E+03  0.17202731988E+03 0.  0.
        -24    2    3    3    0    0 -0.56282604685E+02 -0.14144582661E+02 -0.31969254011E+03  0.33411712248E+03  0.77866106358E+02 0.  0.
          6    2    1    2  501    0  0.63913412045E+02  0.14482290377E+02  0.50378863965E+03  0.53657511117E+03  0.17267077205E+03 0.  0.
         24    2    5    5    0    0  0.98707248417E+02 -0.18021693790E+02  0.27638731725E+03  0.30419488081E+03  0.77953024557E+02 0.  0.
          5    1    5    5  501    0 -0.34793836372E+02  0.32503984168E+02  0.22740132240E+03  0.23238023036E+03  0.47000000000E+01 0. -1.
        -11    1    6    6    0    0  0.63932494701E+02 -0.48941878206E+02  0.17724888711E+03  0.19467881061E+03  0.00000000000E+00 0.  1.
         12    1    6    6    0    0  0.34774753716E+02  0.30920184416E+02  0.99138430141E+02  0.10951607020E+03  0.00000000000E+00 0. -1.
         -5    1    3    3    0  503 -0.76308073603E+01 -0.33770771654E+00  0.17538179832E+02  0.19698249143E+02  0.47000000000E+01 0.  1.
         13    1    4    4    0    0 -0.37772003922E+02 -0.44941356544E+02 -0.23280726801E+03  0.24009513499E+03  0.00000000000E+00 0. -1.
        -14    1    4    4    0    0 -0.18510600763E+02  0.30796773883E+02 -0.86885272101E+02  0.94021987484E+02  0.00000000000E+00 0.  1.
</event>
<event>
12    1  0.8462562E-002  0.2531566E+03  0.7818608E-02  0.1112268E+00
         21   -1    0    0  501  502  0.00000000000E+00  0.00000000000E+00  0.10213905800E+03  0.10213905800E+03  0.00000000000E+00 0.  1.
         21   -1    0    0  502  503 -0.00000000000E+00 -0.00000000000E+00 -0.65415556230E+03  0.65415556230E+03  0.00000000000E+00 0.  1.
         -6    2    1    2    0  503 -0.15003917158E+03  0.97105627813E+02 -0.37427121548E+03  0.45184864223E+03  0.17929583592E+03 0.  0.
        -24    2    3    3    0    0 -0.19667322964E+02  0.58530231791E+02 -0.23505266417E+03  0.25719825019E+03  0.84193784447E+02 0.  0.
          6    2    1    2  501    0  0.15003917158E+03 -0.97105627813E+02 -0.17774528882E+03  0.30444597807E+03  0.17074164666E+03 0.  0.
         24    2    5    5    0    0  0.82106261020E+02  0.11986633504E+02 -0.59619162550E+02  0.12982675369E+03  0.80096341666E+02 0.  0.
          5    1    5    5  501    0  0.67932910564E+02 -0.10909226132E+03 -0.11812612627E+03  0.17461922438E+03  0.47000000000E+01 0. -1.
        -13    1    6    6    0    0  0.76253074109E+02  0.26178081954E+02 -0.73525195245E+02  0.10911359962E+03  0.00000000000E+00 0.  1.
         14    1    6    6    0    0  0.58531869107E+01 -0.14191448450E+02  0.13906032696E+02  0.20713154068E+02  0.00000000000E+00 0. -1.
         -5    1    3    3    0  503 -0.13037184862E+03  0.38575396022E+02 -0.13921855131E+03  0.19465039204E+03  0.47000000000E+01 0.  1.
         13    1    4    4    0    0  0.81478375659E+01 -0.14369937076E+02 -0.10742937726E+02  0.19705153122E+02  0.00000000000E+00 0. -1.
        -14    1    4    4    0    0 -0.27815160530E+02  0.72900168867E+02 -0.22430972645E+03  0.23749309707E+03  0.00000000000E+00 0.  1.
</event>
<event>
12    1  0.8462562E-002  0.1990228E+03  0.7818608E-02  0.1151016E+00
         21   -1    0    0  501  502  0.00000000000E+00  0.00000000000E+00  0.35480611583E+03  0.35480611583E+03  0.00000000000E+00 0.  1.
         21   -1    0    0  502  503 -0.00000000000E+00 -0.00000000000E+00 -0.11816529353E+03  0.11816529353E+03  0.00000000000E+00 0.  1.
         -6    2    1    2    0  503  0.50698130980E+01  0.95483578405E+02  0.58520569034E+02  0.20744814161E+03  0.17454872589E+03 0.  0.
        -24    2    3    3    0    0 -0.61470700894E+02  0.51065582678E+02  0.10585601527E+02  0.11406479483E+03  0.80699328727E+02 0.  0.
          6    2    1    2  501    0 -0.50698130980E+01 -0.95483578405E+02  0.17812025327E+03  0.26552326775E+03  0.17214227935E+03 0.  0.
         24    2    5    5    0    0 -0.84342486416E+01 -0.13413458998E+03  0.12311886000E+03  0.19805132259E+03  0.77478047928E+02 0.  0.
          5    1    5    5  501    0  0.33644355436E+01  0.38651011577E+02  0.55001393268E+02  0.67471945161E+02  0.47000000000E+01 0. -1.
        -11    1    6    6    0    0  0.15645612077E+02 -0.67032056129E+02  0.10316269079E+03  0.12401863770E+03  0.00000000000E+00 0.  1.
         12    1    6    6    0    0 -0.24079860719E+02 -0.67102533852E+02  0.19956169208E+02  0.74032684884E+02  0.00000000000E+00 0. -1.
         -5    1    3    3    0  503  0.66540513992E+02  0.44417995726E+02  0.47934967507E+02  0.93383346784E+02  0.47000000000E+01 0.  1.
         11    1    4    4    0    0  0.11616070386E+02 -0.15675920704E+00 -0.17053068379E+02  0.20634069056E+02  0.00000000000E+00 0. -1.
        -12    1    4    4    0    0 -0.73086771280E+02  0.51222341885E+02  0.27638669906E+02  0.93430725773E+02  0.00000000000E+00 0.  1.
</event>
<event>
12    1  0.8462562E-002  0.1869001E+03  0.7818608E-02  0.1161299E+00
         21   -1    0    0  503  502  0.00000000000E+00  0.00000000000E+00  0.33958268713E+03  0.33958268713E+03  0.00000000000E+00 0.  1.
         21   -1    0    0  501  503 -0.00000000000E+00 -0.00000000000E+00 -0.12767273993E+03  0.12767273993E+03  0.00000000000E+00 0.  1.
          6    2    1    2  501    0  0.93770522958E+01 -0.71600984462E+02  0.29050031447E+01  0.18687225137E+03  0.17233156763E+03 0.  0.
         24    2    3    3    0    0 -0.49739876777E+02 -0.23155857602E+02  0.36254563258E+02  0.10334965096E+03  0.79727711075E+02 0.  0.
         -6    2    1    2    0  502 -0.93770522958E+01  0.71600984462E+02  0.20900494406E+03  0.28038317569E+03  0.17238627695E+03 0.  0.
        -24    2    5    5    0    0  0.10689025059E+02 -0.24222843045E+02  0.14109133316E+03  0.16113888054E+03  0.73198177218E+02 0.  0.
          5    1    3    3  501    0  0.59116929072E+02 -0.48445126860E+02 -0.33349560114E+02  0.83522600410E+02  0.47000000000E+01 0. -1.
        -13    1    4    4    0    0 -0.58932748613E+02 -0.13079865610E+01 -0.12755390177E+01  0.58961060775E+02  0.00000000000E+00 0.  1.
         14    1    4    4    0    0  0.91928718366E+01 -0.21847871041E+02  0.37530102276E+02  0.44388590184E+02  0.00000000000E+00 0. -1.
         -5    1    5    5    0  502 -0.20066077355E+02  0.95823827507E+02  0.67913610898E+02  0.11924429514E+03  0.47000000000E+01 0.  1.
         11    1    6    6    0    0  0.39589245044E+02 -0.26989844603E+02  0.99267200400E+02  0.11022584593E+03  0.00000000000E+00 0. -1.
        -12    1    6    6    0    0 -0.28900219985E+02  0.27670015577E+01  0.41824132761E+02  0.50913034618E+02  0.00000000000E+00 0.  1.
</event>
<event>
12    1  0.8462562E-002  0.1910567E+03  0.7818608E-02  0.1157576E+00
         21   -1    0    0  503  502  0.00000000000E+00  0.00000000000E+00  0.28562194010E+03  0.28562194010E+03  0.00000000000E+00 0.  1.
         21   -1    0    0  501  503 -0.00000000000E+00 -0.00000000000E+00 -0.13964659016E+03  0.13964659016E+03  0.00000000000E+00 0.  1.
          6    2    1    2  501    0 -0.74499994739E+02  0.29610287188E+02  0.10609453607E+02  0.19135100025E+03  0.17342325815E+03 0.  0.
         24    2    3    3    0    0 -0.88027311336E+02 -0.35215960051E+02 -0.74214587875E+01  0.12255685495E+03  0.77305454284E+02 0.  0.
         -6    2    1    2    0  502  0.74499994739E+02 -0.29610287188E+02  0.13536589633E+03  0.23391753001E+03  0.17310825120E+03 0.  0.
        -24    2    5    5    0    0  0.45560692254E+02  0.36205657257E+02  0.24498995462E+02  0.10169506036E+03  0.79718619078E+02 0.  0.
          5    1    3    3  501    0  0.13527316597E+02  0.64826247239E+02  0.18030912394E+02  0.68794145298E+02  0.47000000000E+01 0. -1.
        -11    1    4    4    0    0 -0.85937467744E+02  0.10894029545E+01 -0.62793853798E+01  0.86173463676E+02  0.00000000000E+00 0.  1.
         12    1    4    4    0    0 -0.20898435922E+01 -0.36305363006E+02 -0.11420734078E+01  0.36383391278E+02  0.00000000000E+00 0. -1.
         -5    1    5    5    0  502  0.28939302485E+02 -0.65815944445E+02  0.11086690087E+03  0.13222246965E+03  0.47000000000E+01 0.  1.
         11    1    6    6    0    0  0.61911823603E+02  0.36617232645E+02 -0.36837048524E+00  0.71930739779E+02  0.00000000000E+00 0. -1.
        -12    1    6    6    0    0 -0.16351131349E+02 -0.41157538793E+00  0.24867365947E+02  0.29764320585E+02  0.00000000000E+00 0.  1.
</event>
<event>
12    1  0.8462562E-002  0.2313600E+03  0.7818608E-02  0.1126092E+00
         21   -1    0    0  501  502  0.00000000000E+00  0.00000000000E+00  0.13616858792E+04  0.13616858792E+04  0.00000000000E+00 0. -1.
         21   -1    0    0  502  503 -0.00000000000E+00 -0.00000000000E+00 -0.68055037249E+02  0.68055037249E+02  0.00000000000E+00 0.  1.
         -6    2    1    2    0  503 -0.49738892369E+02  0.14549001947E+03  0.18091854753E+03  0.29369874107E+03  0.17287604371E+03 0.  0.
        -24    2    3    3    0    0 -0.54687450698E+02  0.84676822105E+02  0.19287967692E+03  0.23134577948E+03  0.78469219740E+02 0.  0.
          6    2    1    2  501    0  0.49738892369E+02 -0.14549001947E+03  0.11127122944E+04  0.11360421753E+04  0.16977005300E+03 0.  0.
         24    2    5    5    0    0 -0.20609953348E+02 -0.93735406104E+02  0.44446579296E+03  0.46209634906E+03  0.82292758888E+02 0.  0.
          5    1    5    5  501    0  0.70348845717E+02 -0.51754613369E+02  0.66824650142E+03  0.67394582627E+03  0.47000000000E+01 0. -1.
        -13    1    6    6    0    0 -0.44230352202E+02 -0.34415750325E+02  0.13604862810E+03  0.14713937995E+03  0.00000000000E+00 0.  1.
         14    1    6    6    0    0  0.23620398854E+02 -0.59319655778E+02  0.30841716486E+03  0.31495696910E+03  0.00000000000E+00 0. -1.
         -5    1    3    3    0  503  0.49485583293E+01  0.60813197367E+02 -0.11961129391E+02  0.62352961597E+02  0.47000000000E+01 0.  1.
         13    1    4    4    0    0 -0.38012397759E+02  0.12466653557E+01  0.90899612694E+02  0.98535456288E+02  0.00000000000E+00 0. -1.
        -14    1    4    4    0    0 -0.16675052939E+02  0.83430156749E+02  0.10198006423E+03  0.13281032319E+03  0.00000000000E+00 0.  1.
</event>
<event>
12    1  0.8462562E-002  0.1843015E+03  0.7818608E-02  0.1163735E+00
         21   -1    0    0  501  502  0.00000000000E+00  0.00000000000E+00  0.10320333542E+03  0.10320333542E+03  0.00000000000E+00 0. -1.
         21   -1    0    0  502  503 -0.00000000000E+00 -0.00000000000E+00 -0.34174978537E+03  0.34174978537E+03  0.00000000000E+00 0.  1.
         -6    2    1    2    0  503  0.38647830596E+02  0.53973583965E+02 -0.76155790324E+02  0.19941599147E+03  0.17193088926E+03 0.  0.
        -24    2    3    3    0    0 -0.35750778485E+02  0.59016475887E+02 -0.65269795994E+02  0.12390984163E+03  0.79576629702E+02 0.  0.
          6    2    1    2  501    0 -0.38647830596E+02 -0.53973583965E+02 -0.16239065963E+03  0.24553712932E+03  0.17178752272E+03 0.  0.
         24    2    5    5    0    0  0.40630414713E+02 -0.49107582896E+02 -0.73189731662E+02  0.12600632284E+03  0.80364614585E+02 0.  0.
          5    1    5    5  501    0 -0.79278245309E+02 -0.48660010692E+01 -0.89200927971E+02  0.11953080648E+03  0.47000000000E+01 0. -1.
        -11    1    6    6    0    0  0.51189660675E+02 -0.45225853474E+00 -0.48142796905E+02  0.70273144171E+02  0.00000000000E+00 0.  1.
         12    1    6    6    0    0 -0.10559245962E+02 -0.48655324361E+02 -0.25046934757E+02  0.55733178670E+02  0.00000000000E+00 0. -1.
         -5    1    3    3    0  503  0.74398609082E+02 -0.50428919221E+01 -0.10885994330E+02  0.75506149847E+02  0.47000000000E+01 0.  1.
         11    1    4    4    0    0 -0.44054677223E+01  0.34754875921E+02  0.12029031963E+02  0.37040614952E+02  0.00000000000E+00 0. -1.
        -12    1    4    4    0    0 -0.31345310763E+02  0.24261599966E+02 -0.77298827956E+02  0.86869226675E+02  0.00000000000E+00 0.  1.
</event>
<event>
12    1  0.8462562E-002  0.2119794E+03  0.7818608E-02  0.1140415E+00
         21   -1    0    0  501  502  0.00000000000E+00  0.00000000000E+00  0.56230471548E+03  0.56230471548E+03  0.00000000000E+00 0. -1.
         21   -1    0    0  502  503 -0.00000000000E+00 -0.00000000000E+00 -0.15786894633E+03  0.15786894633E+03  0.00000000000E+00 0. -1.
         -6    2    1    2    0  503 -0.59394540366E+02  0.10781367798E+03 -0.51580867928E+02  0.21816475154E+03  0.17257975633E+03 0.  0.
        -24    2    3    3    0    0 -0.61468183304E+02  0.73340023899E+02 -0.98865814198E+02  0.15942218636E+03  0.80522590757E+02 0.  0.
          6    2    1    2  501    0  0.59394540366E+02 -0.10781367798E+03  0.45601663708E+03  0.50200891027E+03  0.17003020939E+03 0.  0.
         24    2    5    5    0    0  0.62529683627E+02 -0.84833753413E-01  0.24761837235E+03  0.26734476783E+03  0.79046809102E+02 0.  0.
          5    1    5    5  501    0 -0.31351432611E+01 -0.10772884423E+03  0.20839826473E+03  0.23466414243E+03  0.47000000000E+01 0. -1.
        -11    1    6    6    0    0  0.31789283753E+02  0.26379161942E+02  0.20251367139E+03  0.20668383064E+03  0.00000000000E+00 0.  1.
         12    1    6    6    0    0  0.30740399874E+02 -0.26463995695E+02  0.45104700961E+02  0.60660937195E+02  0.00000000000E+00 0. -1.
         -5    1    3    3    0  503  0.20736429381E+01  0.34473654080E+02  0.47284946270E+02  0.58742565184E+02  0.47000000000E+01 0.  1.
         13    1    4    4    0    0  0.18679355598E+02  0.90414204472E+01 -0.26901317982E+02  0.33975675393E+02  0.00000000000E+00 0. -1.
        -14    1    4    4    0    0 -0.80147538902E+02  0.64298603451E+02 -0.71964496216E+02  0.12544651097E+03  0.00000000000E+00 0.  1.
</event>
<event>
12    1  0.8462562E-002  0.1924496E+03  0.7818608E-02  0.1157166E+00
         21   -1    0    0  501  502  0.00000000000E+00  0.00000000000E+00  0.60205137526E+03  0.60205137526E+03  0.00000000000E+00 0. -1.
         21   -1    0    0  502  503 -0.00000000000E+00 -0.00000000000E+00 -0.83303956833E+02  0.83303956833E+02  0.00000000000E+00 0. -1.
         -6    2    1    2    0  503  0.59155198971E+02  0.42695406540E+02  0.77132389847E+02  0.20362854748E+03  0.17376117081E+03 0.  0.
        -24    2    3    3    0    0  0.59053313120E+02  0.16406781329E+02 -0.20247147311E+02  0.10265346911E+03  0.79820495372E+02 0.  0.
          6    2    1    2  501    0 -0.59155198971E+02 -0.42695406540E+02  0.44161502858E+03  0.48172678461E+03  0.17808600798E+03 0.  0.
         24    2    5    5    0    0 -0.95634061773E+02 -0.32193845671E+02  0.20761550453E+03  0.24462162341E+03  0.80951982355E+02 0.  0.
          5    1    5    5  501    0  0.36478862802E+02 -0.10501560869E+02  0.23399952405E+03  0.23710516120E+03  0.47000000000E+01 0. -1.
        -13    1    6    6    0    0 -0.12700052521E+01 -0.29989347683E+01 -0.73548095657E+01  0.80436152837E+01  0.00000000000E+00 0.  1.
         14    1    6    6    0    0 -0.94364056521E+02 -0.29194910903E+02  0.21497031410E+03  0.23657800812E+03  0.00000000000E+00 0. -1.
         -5    1    3    3    0  503  0.10188585072E+00  0.26288625211E+02  0.97379537158E+02  0.10097507838E+03  0.47000000000E+01 0.  1.
         11    1    4    4    0    0  0.73295361037E+02  0.11059530764E+02  0.37731589076E+01  0.74221020597E+02  0.00000000000E+00 0. -1.
        -12    1    4    4    0    0 -0.14242047917E+02  0.53472505655E+01 -0.24020306218E+02  0.28432448511E+02  0.00000000000E+00 0.  1.
</event>
<event>
12    1  0.8462562E-002  0.1906301E+03  0.7818608E-02  0.1158829E+00
         21   -1    0    0  501  502  0.00000000000E+00  0.00000000000E+00  0.21399282431E+03  0.21399282431E+03  0.00000000000E+00 0.  1.
         21   -1    0    0  502  503 -0.00000000000E+00 -0.00000000000E+00 -0.23176091240E+03  0.23176091240E+03  0.00000000000E+00 0.  1.
         -6    2    1    2    0  503  0.67682693623E+02  0.34204427883E+02 -0.12737645881E+03  0.22585867963E+03  0.17040097125E+03 0.  0.
        -24    2    3    3    0    0  0.16265363249E+01  0.70158901047E+02 -0.99184369169E+02  0.14540357429E+03  0.79873295361E+02 0.  0.
          6    2    1    2  501    0 -0.67682693623E+02 -0.34204427883E+02  0.10960837073E+03  0.21989505708E+03  0.17489697336E+03 0.  0.
         24    2    5    5    0    0 -0.98830886158E+02 -0.34208805205E+02  0.31261662630E+02  0.13545273009E+03  0.80202020709E+02 0.  0.
          5    1    5    5  501    0  0.31148192535E+02  0.43773211345E-02  0.78346708100E+02  0.84442326989E+02  0.47000000000E+01 0. -1.
        -11    1    6    6    0    0 -0.23845005981E+02 -0.23573386941E+02  0.47356374437E+02  0.58025124575E+02  0.00000000000E+00 0.  1.
         12    1    6    6    0    0 -0.74985880177E+02 -0.10635418263E+02 -0.16094711806E+02  0.77427605514E+02  0.00000000000E+00 0. -1.
         -5    1    3    3    0  503  0.66056157298E+02 -0.35954473164E+02 -0.28192089644E+02  0.80455105344E+02  0.47000000000E+01 0.  1.
         13    1    4    4    0    0  0.19730419459E+02  0.33812843193E+02 -0.10079091458E+01  0.39161380181E+02  0.00000000000E+00 0. -1.
        -14    1    4    4    0    0 -0.18103883134E+02  0.36346057855E+02 -0.98176460023E+02  0.10624219411E+03  0.00000000000E+00 0.  1.
</event>
<event>
12    1  0.8462562E-002  0.2579731E+03  0.7818608E-02  0.1108527E+00
         21   -1    0    0  503  502  0.00000000000E+00  0.00000000000E+00  0.56948833986E+03  0.56948833986E+03  0.00000000000E+00 0. -1.
         21   -1    0    0  501  503 -0.00000000000E+00 -0.00000000000E+00 -0.35488914598E+03  0.35488914598E+03  0.00000000000E+00 0.  1.
          6    2    1    2  501    0 -0.18612003663E+03  0.43465987135E+02 -0.27152637652E+03  0.37453532456E+03  0.17326331442E+03 0.  0.
         24    2    3    3    0    0 -0.95006486870E+02 -0.29004574054E+02 -0.19791061439E+03  0.23671286041E+03  0.83647290054E+02 0.  0.
         -6    2    1    2    0  502  0.18612003663E+03 -0.43465987135E+02  0.48612557040E+03  0.54984216128E+03  0.17169266746E+03 0.  0.
        -24    2    5    5    0    0  0.50317170123E+02 -0.48337073183E+02  0.12826471852E+03  0.16702023749E+03  0.81090267366E+02 0.  0.
          5    1    3    3  501    0 -0.91113549759E+02  0.72470561189E+02 -0.73615762131E+02  0.13782246414E+03  0.47000000000E+01 0. -1.
        -11    1    4    4    0    0 -0.64587473055E+02  0.10707176108E+02 -0.16315614615E+03  0.17580134619E+03  0.00000000000E+00 0.  1.
         12    1    4    4    0    0 -0.30419013816E+02 -0.39711750163E+02 -0.34754468244E+02  0.60911514227E+02  0.00000000000E+00 0. -1.
         -5    1    5    5    0  502  0.13580286651E+03  0.48710860485E+01  0.35786085187E+03  0.38282192379E+03  0.47000000000E+01 0.  1.
         13    1    6    6    0    0  0.37614085353E+02 -0.61333303768E+00  0.10668961649E+03  0.11312767062E+03  0.00000000000E+00 0. -1.
        -14    1    6    6    0    0  0.12703084770E+02 -0.47723740146E+02  0.21575102038E+02  0.53892566873E+02  0.00000000000E+00 0.  1.
</event>
<event>
12    1  0.8462562E-002  0.1816550E+03  0.7818608E-02  0.1166818E+00
         21   -1    0    0  501  502  0.00000000000E+00  0.00000000000E+00  0.40585481581E+03  0.40585481581E+03  0.00000000000E+00 0.  1.
         21   -1    0    0  502  503 -0.00000000000E+00 -0.00000000000E+00 -0.99620453753E+02  0.99620453753E+02  0.00000000000E+00 0.  1.
         -6    2    1    2    0  503  0.15435299965E+02 -0.49328196683E+02  0.42337376256E+02  0.18652341974E+03  0.17414652799E+03 0.  0.
        -24    2    3    3    0    0  0.25968808059E+02 -0.78360239683E+02  0.75303452727E+02  0.14110683124E+03  0.86173207407E+02 0.  0.
          6    2    1    2  501    0 -0.15435299965E+02  0.49328196683E+02  0.26389698581E+03  0.31895184982E+03  0.17151426738E+03 0.  0.
         24    2    5    5    0    0 -0.77149464710E+02  0.32362233111E+02  0.18102731525E+03  0.21413794641E+03  0.78005238219E+02 0.  0.
          5    1    5    5  501    0  0.61714164745E+02  0.16965963572E+02  0.82869670553E+02  0.10481390341E+03  0.47000000000E+01 0. -1.
        -13    1    6    6    0    0 -0.36200709352E+02  0.56214396436E+02  0.10078394781E+03  0.12094607832E+03  0.00000000000E+00 0.  1.
         14    1    6    6    0    0 -0.40948755358E+02 -0.23852163325E+02  0.80243367446E+02  0.93191868099E+02  0.00000000000E+00 0. -1.
         -5    1    3    3    0  503 -0.10533508094E+02  0.29032043000E+02 -0.32966076471E+02  0.45416588505E+02  0.47000000000E+01 0.  1.
         11    1    4    4    0    0  0.29255751421E+02 -0.38674302496E+01  0.57217748357E+02  0.64379552150E+02  0.00000000000E+00 0. -1.
        -12    1    4    4    0    0 -0.32869433629E+01 -0.74492809434E+02  0.18085704370E+02  0.76727279090E+02  0.00000000000E+00 0.  1.
</event>
<event>
12    1  0.8462562E-002  0.2118165E+03  0.7818608E-02  0.1140325E+00
         21   -1    0    0  503  502  0.00000000000E+00  0.00000000000E+00  0.65345208714E+03  0.65345208714E+03  0.00000000000E+00 0.  1.
         21   -1    0    0  501  503 -0.00000000000E+00 -0.00000000000E+00 -0.68705221714E+02  0.68705221714E+02  0.00000000000E+00 0. -1.
          6    2    1    2  501    0  0.73326393856E+02 -0.98887648674E+02  0.26699538313E+03  0.34081194944E+03  0.17236798766E+03 0.  0.
         24    2    3    3    0    0 -0.44498930150E+00 -0.11129104990E+03  0.17786858370E+03  0.22435707530E+03  0.79454190351E+02 0.  0.
         -6    2    1    2    0  502 -0.73326393856E+02  0.98887648674E+02  0.31775148229E+03  0.38134535941E+03  0.17118046486E+03 0.  0.
        -24    2    5    5    0    0 -0.50201268337E+02  0.86633471201E+02  0.10301399519E+03  0.16496787754E+03  0.81098654366E+02 0.  0.
          5    1    3    3  501    0  0.73771383158E+02  0.12403401225E+02  0.89126799430E+02  0.11645487414E+03  0.47000000000E+01 0. -1.
        -11    1    4    4    0    0 -0.27458827907E+02 -0.23109630885E+02  0.90339561983E+02  0.97207400588E+02  0.00000000000E+00 0.  1.
         12    1    4    4    0    0  0.27013838606E+02 -0.88181419014E+02  0.87529021721E+02  0.12714967471E+03  0.00000000000E+00 0. -1.
         -5    1    5    5    0  502 -0.23125125519E+02  0.12254177473E+02  0.21473748710E+03  0.21637748187E+03  0.47000000000E+01 0.  1.
         11    1    6    6    0    0 -0.66100139208E+02  0.56206383163E+02  0.96949128454E+02  0.13010580087E+03  0.00000000000E+00 0. -1.
        -12    1    6    6    0    0  0.15898870871E+02  0.30427088038E+02  0.60648667395E+01  0.34862076674E+02  0.00000000000E+00 0.  1.
</event>
<event>
12    1  0.8462562E-002  0.2225751E+03  0.7818608E-02  0.1133371E+00
         21   -1    0    0  501  502  0.00000000000E+00  0.00000000000E+00  0.11151333665E+04  0.11151333665E+04  0.00000000000E+00 0. -1.
         21   -1    0    0  502  503 -0.00000000000E+00 -0.00000000000E+00 -0.44448442510E+02  0.44448442510E+02  0.00000000000E+00 0. -1.
         -6    2    1    2    0  503 -0.43061515834E+02  0.12387500782E+03  0.43769596710E+03  0.49103711444E+03  0.17983430274E+03 0.  0.
        -24    2    3    3    0    0 -0.49003399380E+02  0.15682906514E+03  0.40360528702E+03  0.44302107190E+03  0.79835791517E+02 0.  0.
          6    2    1    2  501    0  0.43061515834E+02 -0.12387500782E+03  0.63298895694E+03  0.66854469462E+03  0.17052177978E+03 0.  0.
         24    2    5    5    0    0  0.89779804962E+01 -0.98659423990E+02  0.27644557062E+03  0.30945864729E+03  0.97612574982E+02 0.  0.
          5    1    5    5  501    0  0.34083535338E+02 -0.25215583828E+02  0.35654338632E+03  0.35908604732E+03  0.47000000000E+01 0. -1.
        -13    1    6    6    0    0 -0.63651789599E+01  0.18829133831E+02  0.29670890042E+02  0.35712931830E+02  0.00000000000E+00 0.  1.
         14    1    6    6    0    0  0.15343159456E+02 -0.11748855782E+03  0.24677468058E+03  0.27374571546E+03  0.00000000000E+00 0. -1.
         -5    1    3    3    0  503  0.59418835462E+01 -0.32954057323E+02  0.34090680073E+02  0.48016042548E+02  0.47000000000E+01 0.  1.
         13    1    4    4    0    0  0.15898570693E+02  0.74311015044E+02  0.14030914728E+03  0.15956675192E+03  0.00000000000E+00 0. -1.
        -14    1    4    4    0    0 -0.64901970073E+02  0.82518050097E+02  0.26329613974E+03  0.28345431998E+03  0.00000000000E+00 0.  1.
</event>
<event>
12    1  0.8462562E-002  0.2756094E+03  0.7818608E-02  0.1098121E+00
         21   -1    0    0  501  502  0.00000000000E+00  0.00000000000E+00  0.36803414928E+03  0.36803414928E+03  0.00000000000E+00 0.  1.
         21   -1    0    0  502  503 -0.00000000000E+00 -0.00000000000E+00 -0.20647097359E+03  0.20647097359E+03  0.00000000000E+00 0.  1.
         -6    2    1    2    0  503  0.14419935378E+03 -0.16014034291E+03  0.73734469731E+02  0.28530218967E+03  0.17182020936E+03 0.  0.
        -24    2    3    3    0    0  0.11430056158E+02 -0.65644879418E+02 -0.41513996428E+01  0.10462187071E+03  0.80551879767E+02 0.  0.
          6    2    1    2  501    0 -0.14419935378E+03  0.16014034291E+03  0.87828705956E+02  0.28920293320E+03  0.17171508938E+03 0.  0.
         24    2    5    5    0    0 -0.60029873474E+02  0.16266231050E+03  0.57679499184E+02  0.19963772564E+03  0.80409476462E+02 0.  0.
          5    1    5    5  501    0 -0.84169480308E+02 -0.25219675898E+01  0.30149206772E+02  0.89565207557E+02  0.47000000000E+01 0. -1.
        -11    1    6    6    0    0 -0.73038567349E+02  0.91343168210E+02  0.22668427748E+02  0.11913045083E+03  0.00000000000E+00 0.  1.
         12    1    6    6    0    0  0.13008693875E+02  0.71319142291E+02  0.35011071436E+02  0.80507274806E+02  0.00000000000E+00 0. -1.
         -5    1    3    3    0  503  0.13276929762E+03 -0.94495463493E+02  0.77885869374E+02  0.18068031896E+03  0.47000000000E+01 0.  1.
         11    1    4    4    0    0 -0.17243058938E+02 -0.31706867303E+02 -0.35203015613E+02  0.50417267121E+02  0.00000000000E+00 0. -1.
        -12    1    4    4    0    0  0.28673115096E+02 -0.33938012116E+02  0.31051615970E+02  0.54204603587E+02  0.00000000000E+00 0.  1.
</event>
<event>
12    1  0.8462562E-002  0.2499457E+03  0.7818608E-02  0.1113538E+00
         21   -1    0    0  503  502  0.00000000000E+00  0.00000000000E+00  0.46596906401E+02  0.46596906401E+02  0.00000000000E+00 0. -1.
         21   -1    0    0  501  503 -0.00000000000E+00 -0.00000000000E+00 -0.18847613912E+04  0.18847613912E+04  0.00000000000E+00 0.  1.
          6    2    1    2  501    0  0.10598632356E+03  0.14386689542E+03 -0.14427325244E+04  0.14642233391E+04  0.17476288355E+03 0.  0.
         24    2    3    3    0    0  0.13355743320E+03  0.73256704981E+02 -0.91942638401E+03  0.93543475031E+03  0.80555345488E+02 0.  0.
         -6    2    1    2    0  502 -0.10598632356E+03 -0.14386689542E+03 -0.39543196040E+03  0.46713495849E+03  0.17296777087E+03 0.  0.
        -24    2    5    5    0    0 -0.13376332552E+03 -0.76630109458E+02 -0.30813852627E+03  0.35340465969E+03  0.78617435636E+02 0.  0.
          5    1    3    3  501    0 -0.27571109639E+02  0.70610190435E+02 -0.52330614037E+03  0.52878858878E+03  0.47000000000E+01 0. -1.
        -11    1    4    4    0    0  0.62522400113E+02  0.73686082747E+02 -0.41951150191E+03  0.43049807147E+03  0.00000000000E+00 0.  1.
         12    1    4    4    0    0  0.71035033082E+02 -0.42937776589E+00 -0.49991488210E+03  0.50493667884E+03  0.00000000000E+00 0. -1.
         -5    1    5    5    0  502  0.27777001960E+02 -0.67236785957E+02 -0.87293434125E+02  0.11373029880E+03  0.47000000000E+01 0.  1.
         11    1    6    6    0    0 -0.53222562579E+02 -0.26038931704E+01 -0.16410251755E+03  0.17253711975E+03  0.00000000000E+00 0. -1.
        -12    1    6    6    0    0 -0.80540762938E+02 -0.74026216288E+02 -0.14403600873E+03  0.18086753994E+03  0.00000000000E+00 0.  1.
</event>
<event>
12    1  0.8462562E-002  0.2641937E+03  0.7818608E-02  0.1105006E+00
         21   -1    0    0  501  502  0.00000000000E+00  0.00000000000E+00  0.13636240004E+04  0.13636240004E+04  0.00000000000E+00 0.  1.
         21   -1    0    0  502  503 -0.00000000000E+00 -0.00000000000E+00 -0.51237775655E+02  0.51237775655E+02  0.00000000000E+00 0.  1.
         -6    2    1    2    0  503  0.13768199463E+03 -0.14530950786E+03  0.73025231127E+03  0.77657370803E+03  0.17241548994E+03 0.  0.
        -24    2    3    3    0    0  0.90710264486E+02 -0.40323601965E+02  0.53312418119E+03  0.54829761744E+03  0.80960112135E+02 0.  0.
          6    2    1    2  501    0 -0.13768199463E+03  0.14530950786E+03  0.58213391349E+03  0.63828806804E+03  0.16870263735E+03 0.  0.
         24    2    5    5    0    0 -0.15409919152E+03  0.90304481706E+02  0.37453051622E+03  0.42284355590E+03  0.81376316807E+02 0.  0.
          5    1    5    5  501    0  0.16417196894E+02  0.55005026152E+02  0.20760339727E+03  0.21544451214E+03  0.47000000000E+01 0. -1.
        -11    1    6    6    0    0 -0.98792137097E+02  0.59639199773E+02  0.14811664274E+03  0.18776384199E+03  0.00000000000E+00 0.  1.
         12    1    6    6    0    0 -0.55307054423E+02  0.30665281933E+02  0.22641387349E+03  0.23507971391E+03  0.00000000000E+00 0. -1.
         -5    1    3    3    0  503  0.46971730140E+02 -0.10498590589E+03  0.19712813008E+03  0.22827609059E+03  0.47000000000E+01 0.  1.
         13    1    4    4    0    0  0.10329972474E+02  0.11987036911E+02  0.22588250949E+03  0.22643609580E+03  0.00000000000E+00 0. -1.
        -14    1    4    4    0    0  0.80380292012E+02 -0.52310638876E+02  0.30724167170E+03  0.32186152164E+03  0.00000000000E+00 0.  1.
</event>
<event>
12    1  0.8462562E-002  0.2354588E+03  0.7818608E-02  0.1122982E+00
         21   -1    0    0  503  502  0.00000000000E+00  0.00000000000E+00  0.56663444595E+02  0.56663444595E+02  0.00000000000E+00 0. -1.
         21   -1    0    0  501  503 -0.00000000000E+00 -0.00000000000E+00 -0.13659423723E+04  0.13659423723E+04  0.00000000000E+00 0. -1.
          6    2    1    2  501    0  0.15635443758E+03 -0.35244697235E+02 -0.10357355823E+04  0.10621624411E+04  0.17248755335E+03 0.  0.
         24    2    3    3    0    0  0.10532010955E+03 -0.55920779843E+02 -0.43611080518E+03  0.45999637901E+03  0.84761873569E+02 0.  0.
         -6    2    1    2    0  502 -0.15635443758E+03  0.35244697235E+02 -0.27354334543E+03  0.36044337580E+03  0.17147759763E+03 0.  0.
        -24    2    5    5    0    0 -0.16213336468E+03  0.67083476907E+02 -0.19023786525E+03  0.27095037653E+03  0.80226182450E+02 0.  0.
          5    1    3    3  501    0  0.51034328033E+02  0.20676082608E+02 -0.59962477714E+03  0.60216606213E+03  0.47000000000E+01 0. -1.
        -11    1    4    4    0    0  0.92356662400E+01  0.68410351255E+01 -0.16751869875E+03  0.16791251211E+03  0.00000000000E+00 0.  1.
         12    1    4    4    0    0  0.96084443311E+02 -0.62761814969E+02 -0.26859210643E+03  0.29208386689E+03  0.00000000000E+00 0. -1.
         -5    1    5    5    0  502  0.57789270951E+01 -0.31838779672E+02 -0.83305480187E+02  0.89492999271E+02  0.47000000000E+01 0.  1.
         11    1    6    6    0    0 -0.10082789137E+03  0.36017813311E+02 -0.16704997202E+03  0.19841683322E+03  0.00000000000E+00 0. -1.
        -12    1    6    6    0    0 -0.61305473305E+02  0.31065663596E+02 -0.23187893226E+02  0.72533543303E+02  0.00000000000E+00 0.  1.
</event>
<event>
12    1  0.8462562E-002  0.1759689E+03  0.7818608E-02  0.1172572E+00
         21   -1    0    0  503  502  0.00000000000E+00  0.00000000000E+00  0.31428711466E+02  0.31428711466E+02  0.00000000000E+00 0.  1.
         21   -1    0    0  501  503 -0.00000000000E+00 -0.00000000000E+00 -0.17080534717E+04  0.17080534717E+04  0.00000000000E+00 0.  1.
          6    2    1    2  501    0 -0.31951034115E+02  0.16318208840E+02 -0.14066768670E+04  0.14172448305E+04  0.16898505543E+03 0.  0.
         24    2    3    3    0    0 -0.20993941235E+02  0.76090579111E+02 -0.91904010024E+03  0.92581375658E+03  0.79157338476E+02 0.  0.
         -6    2    1    2    0  502  0.31951034115E+02 -0.16318208840E+02 -0.26994789329E+03  0.32223735270E+03  0.17227273105E+03 0.  0.
        -24    2    5    5    0    0  0.23280149926E+02 -0.75553286729E+02 -0.15626089551E+03  0.19366518562E+03  0.82695055100E+02 0.  0.
          5    1    3    3  501    0 -0.10957092880E+02 -0.59772370271E+02 -0.48763676675E+03  0.49143107393E+03  0.47000000000E+01 0. -1.
        -13    1    4    4    0    0  0.17960509573E+02  0.97198210625E+01 -0.45317849101E+03  0.45363840175E+03  0.00000000000E+00 0.  1.
         14    1    4    4    0    0 -0.38954450808E+02  0.66370758048E+02 -0.46586160923E+03  0.47217535483E+03  0.00000000000E+00 0. -1.
         -5    1    5    5    0  502  0.86708841885E+01  0.59235077889E+02 -0.11368699778E+03  0.12857216708E+03  0.47000000000E+01 0.  1.
         13    1    6    6    0    0  0.31176233563E+01  0.16465353610E+02 -0.94730916142E+01  0.19250114535E+02  0.00000000000E+00 0. -1.
        -14    1    6    6    0    0  0.20162526570E+02 -0.92018640339E+02 -0.14678780390E+03  0.17441507108E+03  0.00000000000E+00 0.  1.
</event>
<event>
12    1  0.8462562E-002  0.2156057E+03  0.7818608E-02  0.1137457E+00
         21   -1    0    0  501  502  0.00000000000E+00  0.00000000000E+00  0.36524328527E+03  0.36524328527E+03  0.00000000000E+00 0. -1.
         21   -1    0    0  502  503 -0.00000000000E+00 -0.00000000000E+00 -0.31111290072E+03  0.31111290072E+03  0.00000000000E+00 0. -1.
         -6    2    1    2    0  503 -0.12033581349E+03 -0.52287516372E+02 -0.23341300556E+03  0.31775373267E+03  0.17108802145E+03 0.  0.
        -24    2    3    3    0    0 -0.98431508798E+02 -0.50929193235E+02 -0.25348903887E+03  0.28764093274E+03  0.78727814105E+02 0.  0.
          6    2    1    2  501    0  0.12033581349E+03  0.52287516372E+02  0.28754339011E+03  0.35860245332E+03  0.16941022977E+03 0.  0.
         24    2    5    5    0    0  0.57152377480E+02  0.94061780501E+02  0.21159971521E+03  0.25123966886E+03  0.78948837405E+02 0.  0.
          5    1    5    5  501    0  0.63183436012E+02 -0.41774264129E+02  0.75943674902E+02  0.10736278446E+03  0.47000000000E+01 0. -1.
        -11    1    6    6    0    0  0.30952907995E+02  0.57783113860E+01  0.10861332901E+03  0.11308548375E+03  0.00000000000E+00 0.  1.
         12    1    6    6    0    0  0.26199469485E+02  0.88283469115E+02  0.10298638620E+03  0.13815418511E+03  0.00000000000E+00 0. -1.
         -5    1    3    3    0  503 -0.21904304695E+02 -0.13583231373E+01  0.20076033310E+02  0.30112799926E+02  0.47000000000E+01 0.  1.
         13    1    4    4    0    0 -0.45746007307E+02 -0.65700806219E+02 -0.16865222669E+03  0.18668922489E+03  0.00000000000E+00 0. -1.
        -14    1    4    4    0    0 -0.52685501491E+02  0.14771612984E+02 -0.84836812180E+02  0.10095170785E+03  0.00000000000E+00 0.  1.
</event>
<event>
12    1  0.8462562E-002  0.2496540E+03  0.7818608E-02  0.1113711E+00
         21   -1    0    0  503  502  0.00000000000E+00  0.00000000000E+00  0.47407584710E+03  0.47407584710E+03  0.00000000000E+00 0. -1.
         21   -1    0    0  501  503 -0.00000000000E+00 -0.00000000000E+00 -0.13238315489E+03  0.13238315489E+03  0.00000000000E+00 0.  1.
          6    2    1    2  501    0 -0.15710320214E+03 -0.87542631567E+02  0.13862444012E+03  0.28555881444E+03  0.17315303243E+03 0.  0.
         24    2    3    3    0    0 -0.16062156580E+03 -0.10234039909E+03  0.74634072338E+02  0.21961785618E+03  0.79930678167E+02 0.  0.
         -6    2    1    2    0  502  0.15710320214E+03  0.87542631567E+02  0.20306825209E+03  0.32090018755E+03  0.17144995450E+03 0.  0.
        -24    2    5    5    0    0  0.11326293874E+03  0.63895209743E+02  0.21964249068E+03  0.26819378719E+03  0.82304268756E+02 0.  0.
          5    1    3    3  501    0  0.35183636628E+01  0.14797767525E+02  0.63990367785E+02  0.65940958257E+02  0.47000000000E+01 0. -1.
        -11    1    4    4    0    0 -0.13550119302E+03 -0.44681618096E+02  0.41829446089E+02  0.14868329720E+03  0.00000000000E+00 0.  1.
         12    1    4    4    0    0 -0.25120372782E+02 -0.57658780995E+02  0.32804626249E+02  0.70934558982E+02  0.00000000000E+00 0. -1.
         -5    1    5    5    0  502  0.43840263396E+02  0.23647421824E+02 -0.16574238591E+02  0.52706400355E+02  0.47000000000E+01 0.  1.
         13    1    6    6    0    0 -0.50883833188E+01  0.26946455872E+02  0.60745789195E+02  0.66648736176E+02  0.00000000000E+00 0. -1.
        -14    1    6    6    0    0  0.11835132206E+03  0.36948753871E+02  0.15889670148E+03  0.20154505101E+03  0.00000000000E+00 0.  1.
</event>
<event>
12    1  0.8462562E-002  0.2358332E+03  0.7818608E-02  0.1122698E+00
         21   -1    0    0  501  502  0.00000000000E+00  0.00000000000E+00  0.10516283172E+03  0.10516283172E+03  0.00000000000E+00 0. -1.
         21   -1    0    0  502  503 -0.00000000000E+00 -0.00000000000E+00 -0.56805739154E+03  0.56805739154E+03  0.00000000000E+00 0.  1.
         -6    2    1    2    0  503 -0.32666516830E+02  0.15636398618E+03 -0.14186107035E+03  0.27521242849E+03  0.17349501439E+03 0.  0.
        -24    2    3    3    0    0 -0.22521410624E+02  0.12933667694E+02 -0.17885352030E+02  0.85298637061E+02  0.79255775630E+02 0.  0.
          6    2    1    2  501    0  0.32666516830E+02 -0.15636398618E+03 -0.32103348947E+03  0.39800779477E+03  0.17271625818E+03 0.  0.
         24    2    5    5    0    0  0.46843538803E+01 -0.82052192181E+02 -0.29197793868E+03  0.31332273586E+03  0.78520791638E+02 0.  0.
          5    1    5    5  501    0  0.27982162950E+02 -0.74311793999E+02 -0.29055550793E+02  0.84685058910E+02  0.47000000000E+01 0. -1.
        -13    1    6    6    0    0 -0.99370801341E+00 -0.82971461139E+02 -0.29526147851E+03  0.30669951338E+03  0.00000000000E+00 0.  1.
         14    1    6    6    0    0  0.56780618937E+01  0.91926895838E+00  0.32835398234E+01  0.66232224829E+01  0.00000000000E+00 0. -1.
         -5    1    3    3    0  503 -0.10145106206E+02  0.14343031849E+03 -0.12397571832E+03  0.18991379143E+03  0.47000000000E+01 0.  1.
         11    1    4    4    0    0 -0.20128721309E+02  0.45984217130E+02 -0.90765695479E+01  0.51010761231E+02  0.00000000000E+00 0. -1.
        -12    1    4    4    0    0 -0.23926893150E+01 -0.33050549436E+02 -0.88087824826E+01  0.34287875831E+02  0.00000000000E+00 0.  1.
</event>
<event>
12    1  0.8462562E-002  0.1884206E+03  0.7818608E-02  0.1160216E+00
         21   -1    0    0  501  502  0.00000000000E+00  0.00000000000E+00  0.18465651362E+03  0.18465651362E+03  0.00000000000E+00 0.  1.
         21   -1    0    0  502  503 -0.00000000000E+00 -0.00000000000E+00 -0.35019900168E+03  0.35019900168E+03  0.00000000000E+00 0.  1.
         -6    2    1    2    0  503 -0.30082712233E+02 -0.71769235631E+02 -0.26300926834E+03  0.32271856642E+03  0.17005177187E+03 0.  0.
        -24    2    3    3    0    0 -0.73249070174E+02  0.44648951592E+01 -0.16015939441E+03  0.18753290252E+03  0.64282161904E+02 0.  0.
          6    2    1    2  501    0  0.30082712233E+02  0.71769235631E+02  0.97466780285E+02  0.21213694889E+03  0.17159988073E+03 0.  0.
         24    2    5    5    0    0  0.55852657907E+02  0.77982589705E+02  0.12364117772E+03  0.17458851417E+03  0.77415791401E+02 0.  0.
          5    1    5    5  501    0 -0.25769945674E+02 -0.62133540740E+01 -0.26174397435E+02  0.37548434721E+02  0.47000000000E+01 0. -1.
        -13    1    6    6    0    0  0.38165935009E+02  0.10207573137E+02  0.94429800520E+01  0.40620229157E+02  0.00000000000E+00 0.  1.
         14    1    6    6    0    0  0.17686722898E+02  0.67775016568E+02  0.11419819767E+03  0.13396828501E+03  0.00000000000E+00 0. -1.
         -5    1    3    3    0  503  0.43166357942E+02 -0.76234130790E+02 -0.10284987393E+03  0.13518566389E+03  0.47000000000E+01 0.  1.
         13    1    4    4    0    0 -0.47809289938E+02  0.19326655293E+02 -0.14600961798E+03  0.15484849484E+03  0.00000000000E+00 0. -1.
        -14    1    4    4    0    0 -0.25439780237E+02 -0.14861760134E+02 -0.14149776431E+02  0.32684407687E+02  0.00000000000E+00 0.  1.
</event>
<event>
12    1  0.8462562E-002  0.1877697E+03  0.7818608E-02  0.1160649E+00
         21   -1    0    0  501  502  0.00000000000E+00  0.00000000000E+00  0.10868187218E+03  0.10868187218E+03  0.00000000000E+00 0.  1.
         21   -1    0    0  502  503 -0.00000000000E+00 -0.00000000000E+00 -0.44909890947E+03  0.44909890947E+03  0.00000000000E+00 0.  1.
         -6    2    1    2    0  503 -0.72281507091E+02 -0.96737366071E+01 -0.31810215729E+03  0.36938657372E+03  0.17302965330E+03 0.  0.
        -24    2    3    3    0    0 -0.27266768340E+02  0.56535068647E+02 -0.22369208424E+03  0.24551048849E+03  0.79357172096E+02 0.  0.
          6    2    1    2  501    0  0.72281507091E+02  0.96737366071E+01 -0.22314879992E+02  0.18839420794E+03  0.17226789099E+03 0.  0.
         24    2    5    5    0    0  0.65528393539E+02 -0.41912303010E+02  0.27207800861E+02  0.11641289130E+03  0.82225819115E+02 0.  0.
          5    1    5    5  501    0  0.67531135525E+01  0.51586039617E+02 -0.49522680853E+02  0.71981316638E+02  0.47000000000E+01 0. -1.
        -11    1    6    6    0    0  0.73185866026E+02 -0.98968716775E+01  0.23052428863E+00  0.73852367575E+02  0.00000000000E+00 0.  1.
         12    1    6    6    0    0 -0.76574724872E+01 -0.32015431332E+02  0.26977276572E+02  0.42560523723E+02  0.00000000000E+00 0. -1.
         -5    1    3    3    0  503 -0.45014738751E+02 -0.66208805254E+02 -0.94410073053E+02  0.12387608523E+03  0.47000000000E+01 0.  1.
         11    1    4    4    0    0  0.62478519297E+01 -0.12534911387E+02 -0.70748675595E+01  0.15691188871E+02  0.00000000000E+00 0. -1.
        -12    1    4    4    0    0 -0.33514620270E+02  0.69069980034E+02 -0.21661721668E+03  0.22981929961E+03  0.00000000000E+00 0.  1.
</event>
<event>
12    1  0.8462562E-002  0.1834864E+03  0.7818608E-02  0.1164621E+00
         21   -1    0    0  501  502  0.00000000000E+00  0.00000000000E+00  0.50996687722E+02  0.50996687722E+02  0.00000000000E+00 0.  1.
         21   -1    0    0  502  503 -0.00000000000E+00 -0.00000000000E+00 -0.72222516050E+03  0.72222516050E+03  0.00000000000E+00 0.  1.
         -6    2    1    2    0  503 -0.46048063114E+02 -0.41482451352E+02 -0.45152827050E+03  0.48738593636E+03  0.17270221196E+03 0.  0.
        -24    2    3    3    0    0  0.25715068320E+02 -0.64653854598E+02 -0.22691573169E+03  0.25040546553E+03  0.79817054751E+02 0.  0.
          6    2    1    2  501    0  0.46048063114E+02  0.41482451352E+02 -0.21970020228E+03  0.28583591186E+03  0.17202549736E+03 0.  0.
         24    2    5    5    0    0  0.81453856441E+02  0.13884763054E+02 -0.20384867547E+03  0.23799697895E+03  0.90888734843E+02 0.  0.
          5    1    5    5  501    0 -0.35405793327E+02  0.27597688298E+02 -0.15851526809E+02  0.47838932917E+02  0.47000000000E+01 0. -1.
        -11    1    6    6    0    0  0.59468081013E+01  0.21406686125E+02 -0.19417361280E+01  0.22302041984E+02  0.00000000000E+00 0.  1.
         12    1    6    6    0    0  0.75507048340E+02 -0.75219230708E+01 -0.20190693935E+03  0.21569493696E+03  0.00000000000E+00 0. -1.
         -5    1    3    3    0  503 -0.71763131434E+02  0.23171403246E+02 -0.22461253881E+03  0.23698047082E+03  0.47000000000E+01 0.  1.
         11    1    4    4    0    0  0.47606773445E+02 -0.21066604599E+02 -0.15500099921E+03  0.16350998888E+03  0.00000000000E+00 0. -1.
        -12    1    4    4    0    0 -0.21891705125E+02 -0.43587249999E+02 -0.71914732476E+02  0.86895476654E+02  0.00000000000E+00 0.  1.
</event>
<event>
12    1  0.8462562E-002  0.2001558E+03  0.7818608E-02  0.1149752E+00
         21   -1    0    0  503  502  0.00000000000E+00  0.00000000000E+00  0.84903112992E+02  0.84903112992E+02  0.00000000000E+00 0. -1.
         21   -1    0    0  501  503 -0.00000000000E+00 -0.00000000000E+00 -0.59503609410E+03  0.59503609410E+03  0.00000000000E+00 0.  1.
          6    2    1    2  501    0 -0.24690074799E+02  0.97936721015E+02 -0.41040749121E+03  0.45631560312E+03  0.17201284746E+03 0.  0.
         24    2    3    3    0    0  0.17192574579E+02  0.12152636366E+03 -0.34834089922E+03  0.37767096313E+03  0.78928655323E+02 0.  0.
         -6    2    1    2    0  502  0.24690074799E+02 -0.97936721015E+02 -0.99725489900E+02  0.22362360397E+03  0.17280376674E+03 0.  0.
        -24    2    5    5    0    0  0.65714351114E+02 -0.22870304929E+02 -0.24489866866E+02  0.10960410106E+03  0.81067124040E+02 0.  0.
          5    1    3    3  501    0 -0.41882649378E+02 -0.23589642645E+02 -0.62066591982E+02  0.78644639990E+02  0.47000000000E+01 0. -1.
        -13    1    4    4    0    0  0.43374744701E+02  0.10755412888E+03 -0.26760238053E+03  0.29165097837E+03  0.00000000000E+00 0.  1.
         14    1    4    4    0    0 -0.26182170122E+02  0.13972234781E+02 -0.80738518690E+02  0.86019984756E+02  0.00000000000E+00 0. -1.
         -5    1    5    5    0  502 -0.41024276315E+02 -0.75066416086E+02 -0.75235623033E+02  0.11401950291E+03  0.47000000000E+01 0.  1.
         11    1    6    6    0    0  0.35663721893E+01 -0.15460180517E+02  0.25139068718E+02  0.29727242863E+02  0.00000000000E+00 0. -1.
        -12    1    6    6    0    0  0.62147978925E+02 -0.74101244116E+01 -0.49628935584E+02  0.79876858197E+02  0.00000000000E+00 0.  1.
</event>
<event>
12    1  0.8462562E-002  0.2303030E+03  0.7818608E-02  0.1126452E+00
         21   -1    0    0  501  502  0.00000000000E+00  0.00000000000E+00  0.12565861301E+03  0.12565861301E+03  0.00000000000E+00 0. -1.
         21   -1    0    0  502  503 -0.00000000000E+00 -0.00000000000E+00 -0.42188643690E+03  0.42188643690E+03  0.00000000000E+00 0. -1.
         -6    2    1    2    0  503  0.12932394524E+03  0.81188040000E+02 -0.14495953376E+03  0.27200634740E+03  0.17221499919E+03 0.  0.
        -24    2    3    3    0    0  0.85120691928E+02  0.76139828690E+02 -0.17029325739E+03  0.22059331798E+03  0.81356085942E+02 0.  0.
          6    2    1    2  501    0 -0.12932394524E+03 -0.81188040000E+02 -0.15126829013E+03  0.27553870251E+03  0.17240446725E+03 0.  0.
         24    2    5    5    0    0 -0.78179660619E+02  0.17152886726E+02 -0.10636845257E+03  0.15585260836E+03  0.81052495171E+02 0.  0.
          5    1    5    5  501    0 -0.51144284625E+02 -0.98340926726E+02 -0.44899837557E+02  0.11968609415E+03  0.47000000000E+01 0. -1.
        -13    1    6    6    0    0 -0.89037324986E+02  0.17673778628E+02 -0.61402436662E+02  0.10959136334E+03  0.00000000000E+00 0.  1.
         14    1    6    6    0    0  0.10857664368E+02 -0.52089190139E+00 -0.44966015907E+02  0.46261245016E+02  0.00000000000E+00 0. -1.
         -5    1    3    3    0  503  0.44203253315E+02  0.50482113101E+01  0.25333723629E+02  0.51413029418E+02  0.47000000000E+01 0.  1.
         11    1    4    4    0    0  0.26613632324E+02  0.62924772948E+02 -0.45361997606E+02  0.82009287905E+02  0.00000000000E+00 0. -1.
        -12    1    4    4    0    0  0.58507059605E+02  0.13215055743E+02 -0.12493125978E+03  0.13858403008E+03  0.00000000000E+00 0.  1.
</event>
<event>
12    1  0.8462562E-002  0.1834026E+03  0.7818608E-02  0.1165236E+00
         21   -1    0    0  503  502  0.00000000000E+00  0.00000000000E+00  0.40297770085E+03  0.40297770085E+03  0.00000000000E+00 0. -1.
         21   -1    0    0  501  503 -0.00000000000E+00 -0.00000000000E+00 -0.37622541525E+03  0.37622541525E+03  0.00000000000E+00 0. -1.
          6    2    1    2  501    0 -0.25338625688E+02 -0.54384100410E+02 -0.33108628002E+03  0.37710242376E+03  0.17025990972E+03 0.  0.
         24    2    3    3    0    0 -0.58703342332E+02 -0.11443781662E+02 -0.10686325831E+03  0.14633169608E+03  0.80100978520E+02 0.  0.
         -6    2    1    2    0  502  0.25338625688E+02  0.54384100410E+02  0.35783856562E+03  0.40210069233E+03  0.17331142893E+03 0.  0.
        -24    2    5    5    0    0  0.78194637271E+02  0.69395452666E+01  0.21205047975E+03  0.23986321283E+03  0.80039967015E+02 0.  0.
          5    1    3    3  501    0  0.33364716644E+02 -0.42940318747E+02 -0.22422302171E+03  0.23077072769E+03  0.47000000000E+01 0. -1.
        -13    1    4    4    0    0 -0.12567026256E+02  0.33363338522E+02 -0.37837077951E+02  0.51987373218E+02  0.00000000000E+00 0.  1.
         14    1    4    4    0    0 -0.46136316076E+02 -0.44807120185E+02 -0.69026180361E+02  0.94344322858E+02  0.00000000000E+00 0. -1.
         -5    1    5    5    0  502 -0.52856011583E+02  0.47444555143E+02  0.14578808587E+03  0.16223747950E+03  0.47000000000E+01 0.  1.
         13    1    6    6    0    0  0.81410384952E+01  0.21046476746E+02  0.12602297919E+03  0.12802742665E+03  0.00000000000E+00 0. -1.
        -14    1    6    6    0    0  0.70053598776E+02 -0.14106931480E+02  0.86027500561E+02  0.11183578618E+03  0.00000000000E+00 0.  1.
</event>
<event>
12    1  0.8462562E-002  0.2060547E+03  0.7818608E-02  0.1146887E+00
         21   -1    0    0  503  502  0.00000000000E+00  0.00000000000E+00  0.23522807841E+02  0.23522807841E+02  0.00000000000E+00 0. -1.
         21   -1    0    0  501  503 -0.00000000000E+00 -0.00000000000E+00 -0.17691238434E+04  0.17691238434E+04  0.00000000000E+00 0. -1.
          6    2    1    2  501    0 -0.10501999768E+03  0.42789466990E+02 -0.10506061205E+04  0.10706221418E+04  0.17204188893E+03 0.  0.
         24    2    3    3    0    0 -0.19800605698E+00  0.52510249090E+02 -0.35939112032E+03  0.37142087600E+03  0.77679626017E+02 0.  0.
         -6    2    1    2    0  502  0.10501999768E+03 -0.42789466990E+02 -0.69499491501E+03  0.72202450946E+03  0.15950336037E+03 0.  0.
        -24    2    5    5    0    0  0.12973178983E+03 -0.61225699286E+02 -0.60002824659E+03  0.62206789165E+03  0.79722277741E+02 0.  0.
          5    1    3    3  501    0 -0.10482199162E+03 -0.97207821006E+01 -0.69121500022E+03  0.69920126578E+03  0.47000000000E+01 0. -1.
        -11    1    4    4    0    0 -0.98401069538E+01  0.53924369860E+02 -0.35726598520E+03  0.36144660677E+03  0.00000000000E+00 0.  1.
         12    1    4    4    0    0  0.96421008968E+01 -0.14141207694E+01 -0.21251351192E+01  0.99742692229E+01  0.00000000000E+00 0. -1.
         -5    1    5    5    0  502 -0.24711792154E+02  0.18436232297E+02 -0.94966668422E+02  0.99956617809E+02  0.47000000000E+01 0.  1.
         11    1    6    6    0    0  0.34215333094E+02 -0.46862508243E+01 -0.30328940498E+03  0.30524926394E+03  0.00000000000E+00 0. -1.
        -12    1    6    6    0    0  0.95516456740E+02 -0.56539448462E+02 -0.29673884161E+03  0.31681862770E+03  0.00000000000E+00 0.  1.
</event>
<event>
12    1  0.8462562E-002  0.2466718E+03  0.7818608E-02  0.1117772E+00
         21   -1    0    0  501  502  0.00000000000E+00  0.00000000000E+00  0.48347573832E+02  0.48347573832E+02  0.00000000000E+00 0.  1.
         21   -1    0    0  502  503 -0.00000000000E+00 -0.00000000000E+00 -0.13565979036E+04  0.13565979036E+04  0.00000000000E+00 0. -1.
         -6    2    1    2    0  503  0.14104715662E+03  0.73723401949E+02 -0.91900170993E+03  0.95153094373E+03  0.18846101360E+03 0.  0.
        -24    2    3    3    0    0  0.83685791936E+02 -0.18017642087E+02 -0.66814001066E+03  0.67829034009E+03  0.79616357731E+02 0.  0.
          6    2    1    2  501    0 -0.14104715662E+03 -0.73723401949E+02 -0.38924861988E+03  0.45341453374E+03  0.16953115035E+03 0.  0.
         24    2    5    5    0    0 -0.20193963023E+02 -0.64431334491E+02 -0.12863687298E+03  0.16595599839E+03  0.80216926552E+02 0.  0.
          5    1    5    5  501    0 -0.12085319360E+03 -0.92920674579E+01 -0.26061174691E+03  0.28745853535E+03  0.47000000000E+01 0. -1.
        -13    1    6    6    0    0  0.23913204862E+02 -0.81162852480E+01 -0.94738556785E+01  0.26971640559E+02  0.00000000000E+00 0.  1.
         14    1    6    6    0    0 -0.44107167885E+02 -0.56315049243E+02 -0.11916301730E+03  0.13898435783E+03  0.00000000000E+00 0. -1.
         -5    1    3    3    0  503  0.57361364687E+02  0.91741044035E+02 -0.25086169927E+03  0.27324060364E+03  0.47000000000E+01 0.  1.
         11    1    4    4    0    0  0.69273542233E+02 -0.39132544247E+02 -0.34125241230E+03  0.35040460695E+03  0.00000000000E+00 0. -1.
        -12    1    4    4    0    0  0.14412249704E+02  0.21114902160E+02 -0.32688759836E+03  0.32788573314E+03  0.00000000000E+00 0.  1.
</event>
<event>
12    1  0.8462562E-002  0.2461758E+03  0.7818608E-02  0.1116074E+00
         21   -1    0    0  503  502  0.00000000000E+00  0.00000000000E+00  0.60877609200E+03  0.60877609200E+03  0.00000000000E+00 0. -1.
         21   -1    0    0  501  503 -0.00000000000E+00 -0.00000000000E+00 -0.12903622948E+03  0.12903622948E+03  0.00000000000E+00 0.  1.
          6    2    1    2  501    0  0.75493081576E+02  0.15653621211E+03  0.60331476496E+02  0.25149357242E+03  0.17148276544E+03 0.  0.
         24    2    3    3    0    0  0.22426912684E+02  0.30143245755E+02 -0.22324377017E+02  0.91352133855E+02  0.80220027882E+02 0.  0.
         -6    2    1    2    0  502 -0.75493081576E+02 -0.15653621211E+03  0.41940838602E+03  0.48631874906E+03  0.17435521317E+03 0.  0.
        -24    2    5    5    0    0  0.52278506154E+01 -0.88920427972E+02  0.10556958949E+03  0.15525282910E+03  0.70882506899E+02 0.  0.
          5    1    3    3  501    0  0.53066168891E+02  0.12639296635E+03  0.82655853513E+02  0.16014143856E+03  0.47000000000E+01 0. -1.
        -11    1    4    4    0    0  0.52380919885E+02  0.19566889463E+02 -0.79266772267E+01  0.56475270190E+02  0.00000000000E+00 0.  1.
         12    1    4    4    0    0 -0.29954007201E+02  0.10576356292E+02 -0.14397699790E+02  0.34876863664E+02  0.00000000000E+00 0. -1.
         -5    1    5    5    0  502 -0.80720932191E+02 -0.67615784137E+02  0.31383879653E+03  0.33106591997E+03  0.47000000000E+01 0.  1.
         13    1    6    6    0    0  0.20205282693E+01 -0.10092913353E+03  0.98032531833E+02  0.14071655847E+03  0.00000000000E+00 0. -1.
        -14    1    6    6    0    0  0.32073223461E+01  0.12008705554E+02  0.75370576594E+01  0.14536270632E+02  0.00000000000E+00 0.  1.
</event>
<event>
12    1  0.8462562E-002  0.2457541E+03  0.7818608E-02  0.1116069E+00
         21   -1    0    0  503  502  0.00000000000E+00  0.00000000000E+00  0.18811248492E+03  0.18811248492E+03  0.00000000000E+00 0. -1.
         21   -1    0    0  501  503 -0.00000000000E+00 -0.00000000000E+00 -0.63589893389E+03  0.63589893389E+03  0.00000000000E+00 0. -1.
          6    2    1    2  501    0 -0.23933976775E+02  0.17380025478E+03 -0.51406253067E+03  0.56978536569E+03  0.17209216633E+03 0.  0.
         24    2    3    3    0    0  0.23743539632E+02  0.15061610793E+03 -0.26904465716E+03  0.31905343997E+03  0.78492689912E+02 0.  0.
         -6    2    1    2    0  502  0.23933976775E+02 -0.17380025478E+03  0.66276081710E+02  0.25422605311E+03  0.17163625278E+03 0.  0.
        -24    2    5    5    0    0 -0.13584487815E+02 -0.17729996328E+02  0.46733377910E+02  0.92455944529E+02  0.76584606736E+02 0.  0.
          5    1    3    3  501    0 -0.47677516407E+02  0.23184146855E+02 -0.24501787351E+03  0.25073192572E+03  0.47000000000E+01 0. -1.
        -11    1    4    4    0    0  0.48821831724E+02  0.65207641800E+02 -0.14598938736E+03  0.16717807579E+03  0.00000000000E+00 0.  1.
         12    1    4    4    0    0 -0.25078292092E+02  0.85408466129E+02 -0.12305526980E+03  0.15187536418E+03  0.00000000000E+00 0. -1.
         -5    1    5    5    0  502  0.37518464590E+02 -0.15607025846E+03  0.19542703800E+02  0.16177010859E+03  0.47000000000E+01 0.  1.
         11    1    6    6    0    0 -0.36439824570E+02 -0.14861717726E+02 -0.10956071918E+01  0.39369173520E+02  0.00000000000E+00 0. -1.
        -12    1    6    6    0    0  0.22855336756E+02 -0.28682786015E+01  0.47828985102E+02  0.53086771009E+02  0.00000000000E+00 0.  1.
</event>
<event>
12    1  0.8462562E-002  0.2126764E+03  0.7818608E-02  0.1140619E+00
         21   -1    0    0  503  502  0.00000000000E+00  0.00000000000E+00  0.91863322283E+03  0.91863322283E+03  0.00000000000E+00 0. -1.
         21   -1    0    0  501  503 -0.00000000000E+00 -0.00000000000E+00 -0.58456423629E+02  0.58456423629E+02  0.00000000000E+00 0. -1.
          6    2    1    2  501    0  0.11061777283E+03  0.56540500576E+02  0.63282801730E+03  0.66577190561E+03  0.16537173564E+03 0.  0.
         24    2    3    3    0    0  0.11973520135E+03  0.85307428237E+02  0.58933624849E+03  0.61262787881E+03  0.79886346531E+02 0.  0.
         -6    2    1    2    0  502 -0.11061777283E+03 -0.56540500576E+02  0.22734878190E+03  0.31131774085E+03  0.17262139863E+03 0.  0.
        -24    2    5    5    0    0 -0.24222850521E+02 -0.23162493291E+02  0.19619492135E+03  0.21348713726E+03  0.77207920765E+02 0.  0.
          5    1    3    3  501    0 -0.91174285206E+01 -0.28766927660E+02  0.43491768815E+02  0.53144026800E+02  0.47000000000E+01 0. -1.
        -13    1    4    4    0    0 -0.68973367177E+01  0.14995482822E+02  0.24683388886E+02  0.29693558994E+02  0.00000000000E+00 0.  1.
         14    1    4    4    0    0  0.12663253807E+03  0.70311945415E+02  0.56465285960E+03  0.58293431982E+03  0.00000000000E+00 0. -1.
         -5    1    5    5    0  502 -0.86394922309E+02 -0.33378007285E+02  0.31153860547E+02  0.97830603587E+02  0.47000000000E+01 0.  1.
         13    1    6    6    0    0  0.52630097993E+01  0.16774442139E+02  0.88614084869E+01  0.19687705341E+02  0.00000000000E+00 0. -1.
        -14    1    6    6    0    0 -0.29485860320E+02 -0.39936935429E+02  0.18733351287E+03  0.19379943192E+03  0.00000000000E+00 0.  1.
</event>
<event>
12    1  0.8462562E-002  0.2433232E+03  0.7818608E-02  0.1117947E+00
         21   -1    0    0  501  502  0.00000000000E+00  0.00000000000E+00  0.52467388813E+03  0.52467388813E+03  0.00000000000E+00 0. -1.
         21   -1    0    0  502  503 -0.00000000000E+00 -0.00000000000E+00 -0.11651682412E+03  0.11651682412E+03  0.00000000000E+00 0. -1.
         -6    2    1    2    0  503  0.13187025238E+03  0.10524237140E+03  0.14086835023E+03  0.28115846736E+03  0.17532960808E+03 0.  0.
        -24    2    3    3    0    0  0.97680381424E+02 -0.32133045070E+01  0.39922699025E+02  0.12902794639E+03  0.74179557909E+02 0.  0.
          6    2    1    2  501    0 -0.13187025238E+03 -0.10524237140E+03  0.26728871379E+03  0.36003224489E+03  0.17237819073E+03 0.  0.
         24    2    5    5    0    0 -0.11583359415E+03 -0.68212618562E+01  0.13430998052E+03  0.19375138997E+03  0.77694781679E+02 0.  0.
          5    1    5    5  501    0 -0.16036658228E+02 -0.98421109548E+02  0.13297873327E+03  0.16628085492E+03  0.47000000000E+01 0. -1.
        -11    1    6    6    0    0  0.10514052920E+02 -0.40956589655E+01  0.33790787127E+01  0.11778705536E+02  0.00000000000E+00 0.  1.
         12    1    6    6    0    0 -0.12634764707E+03 -0.27256028906E+01  0.13093090180E+03  0.18197268443E+03  0.00000000000E+00 0. -1.
         -5    1    3    3    0  503  0.34189870954E+02  0.10845567591E+03  0.10094565120E+03  0.15213052097E+03  0.47000000000E+01 0.  1.
         11    1    4    4    0    0  0.49603998705E+02  0.32756908076E+02  0.34524820391E+02  0.68742526410E+02  0.00000000000E+00 0. -1.
        -12    1    4    4    0    0  0.48076382720E+02 -0.35970212583E+02  0.53978786346E+01  0.60285419982E+02  0.00000000000E+00 0.  1.
</event>
<event>
12    1  0.8462562E-002  0.2107799E+03  0.7818608E-02  0.1141483E+00
         21   -1    0    0  503  502  0.00000000000E+00  0.00000000000E+00  0.34942233183E+03  0.34942233183E+03  0.00000000000E+00 0.  1.
         21   -1    0    0  501  503 -0.00000000000E+00 -0.00000000000E+00 -0.17337104444E+03  0.17337104444E+03  0.00000000000E+00 0.  1.
          6    2    1    2  501    0 -0.10018503146E+03  0.68194169338E+02 -0.49693225891E+02  0.21394268076E+03  0.16915841301E+03 0.  0.
         24    2    3    3    0    0 -0.87920557962E+02 -0.33166423790E+01 -0.68903988220E+02  0.13874057379E+03  0.82220207948E+02 0.  0.
         -6    2    1    2    0  502  0.10018503146E+03 -0.68194169338E+02  0.22574451328E+03  0.30885069551E+03  0.17245486825E+03 0.  0.
        -24    2    5    5    0    0  0.97778407258E+02 -0.79756840476E+02  0.24534415441E+03  0.28548997771E+03  0.73409827284E+02 0.  0.
          5    1    3    3  501    0 -0.12264473494E+02  0.71510811717E+02  0.19210762329E+02  0.75202106964E+02  0.47000000000E+01 0. -1.
        -11    1    4    4    0    0 -0.39736665415E+02  0.23020635202E+02 -0.70114358848E+02  0.83815127156E+02  0.00000000000E+00 0.  1.
         12    1    4    4    0    0 -0.48183892547E+02 -0.26337277581E+02  0.12103706283E+01  0.54925446638E+02  0.00000000000E+00 0. -1.
         -5    1    5    5    0  502  0.24066241980E+01  0.11562671138E+02 -0.19599641129E+02  0.23360717803E+02  0.47000000000E+01 0.  1.
         11    1    6    6    0    0  0.13540233826E+02 -0.29459241252E+02  0.13038607332E+03  0.13435666319E+03  0.00000000000E+00 0. -1.
        -12    1    6    6    0    0  0.84238173432E+02 -0.50297599224E+02  0.11495808109E+03  0.15113331452E+03  0.00000000000E+00 0.  1.
</event>
<event>
12    1  0.8462562E-002  0.1950423E+03  0.7818608E-02  0.1154304E+00
         21   -1    0    0  503  502  0.00000000000E+00  0.00000000000E+00  0.77395426276E+02  0.77395426276E+02  0.00000000000E+00 0. -1.
         21   -1    0    0  501  503 -0.00000000000E+00 -0.00000000000E+00 -0.48791603852E+03  0.48791603852E+03  0.00000000000E+00 0. -1.
          6    2    1    2  501    0  0.87057298456E+02 -0.32666164219E+02 -0.20651373434E+03  0.28405881817E+03  0.17145097903E+03 0.  0.
         24    2    3    3    0    0  0.44033185568E+02  0.39388305402E+02 -0.16198093716E+03  0.18893689164E+03  0.77259077046E+02 0.  0.
         -6    2    1    2    0  502 -0.87057298456E+02  0.32666164219E+02 -0.20400687791E+03  0.28125264662E+03  0.16981811888E+03 0.  0.
        -24    2    5    5    0    0 -0.10133179082E+03 -0.24921845183E+02 -0.16009297352E+03  0.20728873003E+03  0.80309571213E+02 0.  0.
          5    1    3    3  501    0  0.43024112888E+02 -0.72054469622E+02 -0.44532797175E+02  0.95121926529E+02  0.47000000000E+01 0. -1.
        -13    1    4    4    0    0  0.24785975377E+02 -0.47610863462E+01 -0.63523445674E+01  0.26026232922E+02  0.00000000000E+00 0.  1.
         14    1    4    4    0    0  0.19247210190E+02  0.44149391749E+02 -0.15562859259E+03  0.16291065872E+03  0.00000000000E+00 0. -1.
         -5    1    5    5    0  502  0.14274492368E+02  0.57588009402E+02 -0.43913904386E+02  0.73963916592E+02  0.47000000000E+01 0.  1.
         13    1    6    6    0    0 -0.59708055599E+02 -0.24550961498E+02 -0.30932461401E+02  0.71586442726E+02  0.00000000000E+00 0. -1.
        -14    1    6    6    0    0 -0.41623735225E+02 -0.37088368504E+00 -0.12916051212E+03  0.13570228730E+03  0.00000000000E+00 0.  1.
</event>
<event>
12    1  0.8462562E-002  0.1920256E+03  0.7818608E-02  0.1156884E+00
         21   -1    0    0  501  502  0.00000000000E+00  0.00000000000E+00  0.20364111118E+04  0.20364111118E+04  0.00000000000E+00 0. -1.
         21   -1    0    0  502  503 -0.00000000000E+00 -0.00000000000E+00 -0.42731895043E+02  0.42731895043E+02  0.00000000000E+00 0. -1.
         -6    2    1    2    0  503 -0.22036430443E+02 -0.80733581823E+02  0.20491468643E+03  0.28010093029E+03  0.17164785736E+03 0.  0.
        -24    2    3    3    0    0 -0.44134206004E+01  0.55436537500E+01  0.34912145439E+02  0.88587782446E+02  0.81109351627E+02 0.  0.
          6    2    1    2  501    0  0.22036430443E+02  0.80733581823E+02  0.17887645303E+04  0.17990420765E+04  0.17283035829E+03 0.  0.
         24    2    5    5    0    0  0.68171902486E+02  0.95732791047E+02  0.11625144876E+04  0.11708982522E+04  0.75832760408E+02 0.  0.
          5    1    5    5  501    0 -0.46135472043E+02 -0.14999209224E+02  0.62625004265E+03  0.62814382428E+03  0.47000000000E+01 0. -1.
        -13    1    6    6    0    0 -0.10663307118E+02  0.44534621796E+02  0.36335172467E+03  0.36622604287E+03  0.00000000000E+00 0.  1.
         14    1    6    6    0    0  0.78835209603E+02  0.51198169252E+02  0.79916276297E+03  0.80467220937E+03  0.00000000000E+00 0. -1.
         -5    1    3    3    0  503 -0.17623009842E+02 -0.86277235573E+02  0.17000254099E+03  0.19151314784E+03  0.47000000000E+01 0.  1.
         13    1    4    4    0    0 -0.68303367190E+01 -0.36504103534E+02  0.26540968737E+02  0.45646753401E+02  0.00000000000E+00 0. -1.
        -14    1    4    4    0    0  0.24169161187E+01  0.42047757284E+02  0.83711767020E+01  0.42941029046E+02  0.00000000000E+00 0.  1.
</event>
<event>
12    1  0.8462562E-002  0.1890068E+03  0.7818608E-02  0.1160255E+00
         21   -1    0    0  501  502  0.00000000000E+00  0.00000000000E+00  0.18781171655E+03  0.18781171655E+03  0.00000000000E+00 0. -1.
         21   -1    0    0  502  503 -0.00000000000E+00 -0.00000000000E+00 -0.22212577081E+03  0.22212577081E+03  0.00000000000E+00 0.  1.
         -6    2    1    2    0  503 -0.65504193013E+02 -0.45514749773E+02 -0.99610043634E+02  0.21364861855E+03  0.17135104221E+03 0.  0.
        -24    2    3    3    0    0  0.53342855116E+01  0.22614140480E+02 -0.74966481338E+02  0.11221375822E+03  0.80200375675E+02 0.  0.
          6    2    1    2  501    0  0.65504193013E+02  0.45514749773E+02  0.65295989372E+02  0.19628886882E+03  0.16704299460E+03 0.  0.
         24    2    5    5    0    0  0.28220705921E+02 -0.37683418187E+02  0.15384686534E+02  0.92244543105E+02  0.77819784785E+02 0.  0.
          5    1    5    5  501    0  0.37283487093E+02  0.83198167961E+02  0.49911302839E+02  0.10404432571E+03  0.47000000000E+01 0. -1.
        -13    1    6    6    0    0  0.21724190827E+02 -0.51290873204E+02  0.36281215751E+02  0.66475715547E+02  0.00000000000E+00 0.  1.
         14    1    6    6    0    0  0.64965150933E+01  0.13607455017E+02 -0.20896529218E+02  0.25768827558E+02  0.00000000000E+00 0. -1.
         -5    1    3    3    0  503 -0.70838478525E+02 -0.68128890254E+02 -0.24643562296E+02  0.10143486033E+03  0.47000000000E+01 0.  1.
         13    1    4    4    0    0  0.53398515739E+01  0.52800813737E+02 -0.43625978686E+02  0.68699825054E+02  0.00000000000E+00 0. -1.
        -14    1    4    4    0    0 -0.55660623114E-02 -0.30186673256E+02 -0.31340502652E+02  0.43513933168E+02  0.00000000000E+00 0.  1.
</event>
<event>
12    1  0.8462562E-002  0.1934473E+03  0.7818608E-02  0.1158447E+00
         21   -1    0    0  503  502  0.00000000000E+00  0.00000000000E+00  0.63994260539E+02  0.63994260539E+02  0.00000000000E+00 0.  1.
         21   -1    0    0  501  503 -0.00000000000E+00 -0.00000000000E+00 -0.17010151851E+04  0.17010151851E+04  0.00000000000E+00 0.  1.
          6    2    1    2  501    0  0.53997376967E+02 -0.30640415038E+00 -0.15364750916E+04  0.15469926167E+04  0.17179824927E+03 0.  0.
         24    2    3    3    0    0  0.80526289133E+02  0.28170609707E+02 -0.13973794030E+04  0.14024781742E+04  0.83652655495E+02 0.  0.
         -6    2    1    2    0  502 -0.53997376967E+02  0.30640415038E+00 -0.10054583291E+03  0.21801682887E+03  0.18575807534E+03 0.  0.
        -24    2    5    5    0    0 -0.12320793747E+01  0.70167470996E+02 -0.53640056701E+02  0.11858349879E+03  0.79118888364E+02 0.  0.
          5    1    3    3  501    0 -0.26528912166E+02 -0.28477013857E+02 -0.13909568864E+03  0.14451444252E+03  0.47000000000E+01 0. -1.
        -11    1    4    4    0    0  0.59670656443E+02  0.57794317561E+02 -0.93660694621E+03  0.94028364980E+03  0.00000000000E+00 0.  1.
         12    1    4    4    0    0  0.20855632689E+02 -0.29623707854E+02 -0.46077245679E+03  0.46219452443E+03  0.00000000000E+00 0. -1.
         -5    1    5    5    0  502 -0.52765297592E+02 -0.69861066846E+02 -0.46905776208E+02  0.99433330088E+02  0.47000000000E+01 0.  1.
         13    1    6    6    0    0  0.17971672936E+02 -0.10222297244E+02 -0.21706156703E+02  0.29977218481E+02  0.00000000000E+00 0. -1.
        -14    1    6    6    0    0 -0.19203752311E+02  0.80389768239E+02 -0.31933899998E+02  0.88606280305E+02  0.00000000000E+00 0.  1.
</event>
<event>
12    1  0.8462562E-002  0.1771160E+03  0.7818608E-02  0.1171451E+00
         21   -1    0    0  501  502  0.00000000000E+00  0.00000000000E+00  0.11804638320E+04  0.11804638320E+04  0.00000000000E+00 0. -1.
         21   -1    0    0  502  503 -0.00000000000E+00 -0.00000000000E+00 -0.51136080515E+02  0.51136080515E+02  0.00000000000E+00 0. -1.
         -6    2    1    2    0  503  0.30306843705E+02 -0.23363066523E+02  0.13633330290E+03  0.22351029637E+03  0.17293277726E+03 0.  0.
        -24    2    3    3    0    0 -0.20541767292E+02 -0.90473411901E-01  0.69752857872E+01  0.82503979414E+02  0.79600751369E+02 0.  0.
          6    2    1    2  501    0 -0.30306843705E+02  0.23363066523E+02  0.99299444854E+03  0.10080896161E+04  0.16953572368E+03 0.  0.
         24    2    5    5    0    0 -0.25266921976E+02  0.15015951611E+02  0.99360157199E+03  0.99724831833E+03  0.79976424110E+02 0.  0.
          5    1    5    5  501    0 -0.50399217294E+01  0.83471149128E+01 -0.60712344625E+00  0.10841297768E+02  0.47000000000E+01 0. -1.
        -13    1    6    6    0    0 -0.74724137929E+01 -0.75702951606E+01  0.15935493077E+02  0.19159495722E+02  0.00000000000E+00 0.  1.
         14    1    6    6    0    0 -0.17794508183E+02  0.22586246771E+02  0.97766607891E+03  0.97808882261E+03  0.00000000000E+00 0. -1.
         -5    1    3    3    0  503  0.50848610997E+02 -0.23272593112E+02  0.12935801711E+03  0.14100631696E+03  0.47000000000E+01 0.  1.
         13    1    4    4    0    0  0.11828850125E+02  0.16042337315E+02  0.32577657065E+02  0.38191386747E+02  0.00000000000E+00 0. -1.
        -14    1    4    4    0    0 -0.32370617417E+02 -0.16132810727E+02 -0.25602371278E+02  0.44312592668E+02  0.00000000000E+00 0.  1.
</event>
<event>
12    1  0.8462562E-002  0.1872422E+03  0.7818608E-02  0.1161765E+00
         21   -1    0    0  501  502  0.00000000000E+00  0.00000000000E+00  0.22200835999E+03  0.22200835999E+03  0.00000000000E+00 0. -1.
         21   -1    0    0  502  503 -0.00000000000E+00 -0.00000000000E+00 -0.28578105310E+03  0.28578105310E+03  0.00000000000E+00 0. -1.
         -6    2    1    2    0  503 -0.40227958807E+02 -0.53118598648E+02 -0.20344285754E+03  0.27419278575E+03  0.17132662747E+03 0.  0.
        -24    2    3    3    0    0 -0.84492657533E+02 -0.67166722193E+02 -0.11568594162E+03  0.17479419612E+03  0.74292638681E+02 0.  0.
          6    2    1    2  501    0  0.40227958807E+02  0.53118598648E+02  0.13967016444E+03  0.23359662733E+03  0.17498501443E+03 0.  0.
         24    2    5    5    0    0  0.56612482345E+02  0.42452703615E+02  0.16724071284E+03  0.19947274907E+03  0.82539180919E+02 0.  0.
          5    1    5    5  501    0 -0.16384523539E+02  0.10665895033E+02 -0.27570548407E+02  0.34123878266E+02  0.47000000000E+01 0. -1.
        -13    1    6    6    0    0 -0.15206147913E+02 -0.53821360930E+01  0.72284108422E+01  0.17676092515E+02  0.00000000000E+00 0.  1.
         14    1    6    6    0    0  0.71818630259E+02  0.47834839708E+02  0.16001230200E+03  0.18179665655E+03  0.00000000000E+00 0. -1.
         -5    1    3    3    0  503  0.44264698727E+02  0.14048123545E+02 -0.87756915920E+02  0.99398589630E+02  0.47000000000E+01 0.  1.
         11    1    4    4    0    0 -0.74933314512E+01 -0.13542474195E+02 -0.67617711614E+02  0.69366443958E+02  0.00000000000E+00 0. -1.
        -12    1    4    4    0    0 -0.76999326082E+02 -0.53624247998E+02 -0.48068230010E+02  0.10542775217E+03  0.00000000000E+00 0.  1.
</event>
<event>
12    1  0.8462562E-002  0.2475701E+03  0.7818608E-02  0.1115925E+00
         21   -1    0    0  503  502  0.00000000000E+00  0.00000000000E+00  0.30674117549E+02  0.30674117549E+02  0.00000000000E+00 0.  1.
         21   -1    0    0  501  503 -0.00000000000E+00 -0.00000000000E+00 -0.23579520028E+04  0.23579520028E+04  0.00000000000E+00 0. -1.
          6    2    1    2  501    0  0.13608898688E+03  0.10364065850E+03 -0.16763987423E+04  0.16945806922E+04  0.17896754062E+03 0.  0.
         24    2    3    3    0    0  0.94580150264E+02  0.18183859195E+02 -0.52430541043E+03  0.53856729111E+03  0.76697497249E+02 0.  0.
         -6    2    1    2    0  502 -0.13608898688E+03 -0.10364065850E+03 -0.65087914294E+03  0.69404542818E+03  0.16968735729E+03 0.  0.
        -24    2    5    5    0    0 -0.15939524676E+03 -0.54622598883E+02 -0.48715379395E+03  0.52149389437E+03  0.79035371274E+02 0.  0.
          5    1    3    3  501    0  0.41508836619E+02  0.85456799301E+02 -0.11520933319E+04  0.11560134010E+04  0.47000000000E+01 0. -1.
        -13    1    4    4    0    0 -0.59793531502E+01  0.20404415834E+02 -0.65458462148E+02  0.68825163396E+02  0.00000000000E+00 0.  1.
         14    1    4    4    0    0  0.10055950341E+03 -0.22205566392E+01 -0.45884694829E+03  0.46974212771E+03  0.00000000000E+00 0. -1.
         -5    1    5    5    0  502  0.23306259878E+02 -0.49018059614E+02 -0.16372534899E+03  0.17255153381E+03  0.47000000000E+01 0.  1.
         13    1    6    6    0    0 -0.25474915378E+01  0.11294161740E+01 -0.10039273720E+03  0.10043140434E+03  0.00000000000E+00 0. -1.
        -14    1    6    6    0    0 -0.15684775522E+03 -0.55752015057E+02 -0.38676105675E+03  0.42106249004E+03  0.00000000000E+00 0.  1.
</event>
<event>
12    1  0.8462562E-002  0.1774587E+03  0.7818608E-02  0.1170461E+00
         21   -1    0    0  503  502  0.00000000000E+00  0.00000000000E+00  0.39662455001E+02  0.39662455001E+02  0.00000000000E+00 0. -1.
         21   -1    0    0  501  503 -0.00000000000E+00 -0.00000000000E+00 -0.82967991904E+03  0.82967991904E+03  0.00000000000E+00 0. -1.
          6    2    1    2  501    0  0.32804371271E+02 -0.30051564868E+02 -0.48984895284E+03  0.52100249027E+03  0.17179166146E+03 0.  0.
         24    2    3    3    0    0  0.88432034979E+01  0.48301395662E+02 -0.30628485073E+03  0.31992739592E+03  0.78306460802E+02 0.  0.
         -6    2    1    2    0  502 -0.32804371271E+02  0.30051564868E+02 -0.30016851120E+03  0.34833988377E+03  0.17105647074E+03 0.  0.
        -24    2    5    5    0    0  0.20263137760E+02 -0.41691747057E+01 -0.26205141632E+03  0.27443303393E+03  0.78832534801E+02 0.  0.
          5    1    3    3  501    0  0.23961167773E+02 -0.78352960530E+02 -0.18356410211E+03  0.20107509435E+03  0.47000000000E+01 0. -1.
        -11    1    4    4    0    0 -0.30694234670E+02  0.24876280243E+01 -0.80999795029E+02  0.86656166139E+02  0.00000000000E+00 0.  1.
         12    1    4    4    0    0  0.39537438168E+02  0.45813767638E+02 -0.22528505570E+03  0.23327122978E+03  0.00000000000E+00 0. -1.
         -5    1    5    5    0  502 -0.53067509031E+02  0.34220739574E+02 -0.38117094875E+02  0.73906849841E+02  0.47000000000E+01 0.  1.
         13    1    6    6    0    0 -0.13428120844E+01 -0.23622545165E+02 -0.21003564777E+02  0.31638228738E+02  0.00000000000E+00 0. -1.
        -14    1    6    6    0    0  0.21605949845E+02  0.19453370459E+02 -0.24104785155E+03  0.24279480519E+03  0.00000000000E+00 0.  1.
</event>
<event>
12    1  0.8462562E-002  0.1846745E+03  0.7818608E-02  0.1164606E+00
         21   -1    0    0  503  502  0.00000000000E+00  0.00000000000E+00  0.31966445591E+02  0.31966445591E+02  0.00000000000E+00 0.  1.
         21   -1    0    0  501  503 -0.00000000000E+00 -0.00000000000E+00 -0.11379426936E+04  0.11379426936E+04  0.00000000000E+00 0.  1.
          6    2    1    2  501    0  0.38939989260E+02  0.54008290739E+02 -0.72018027725E+03  0.74219053577E+03  0.16659514224E+03 0.  0.
         24    2    3    3    0    0  0.83361876239E+02  0.71803096711E+02 -0.50130120946E+03  0.51809212998E+03  0.70793117138E+02 0.  0.
         -6    2    1    2    0  502 -0.38939989260E+02 -0.54008290739E+02 -0.38579597078E+03  0.42771860344E+03  0.17225404037E+03 0.  0.
        -24    2    5    5    0    0  0.98156891301E+01  0.22661455212E+02 -0.24872604865E+03  0.26320228306E+03  0.82467601053E+02 0.  0.
          5    1    3    3  501    0 -0.44421886979E+02 -0.17794805972E+02 -0.21887906778E+03  0.22409840579E+03  0.47000000000E+01 0. -1.
        -11    1    4    4    0    0  0.27375547924E+02  0.68757409260E+02 -0.25730256058E+03  0.26773421454E+03  0.00000000000E+00 0.  1.
         12    1    4    4    0    0  0.55986328315E+02  0.30456874509E+01 -0.24399864888E+03  0.25035791544E+03  0.00000000000E+00 0. -1.
         -5    1    5    5    0  502 -0.48755678390E+02 -0.76669745950E+02 -0.13706992212E+03  0.16451632038E+03  0.47000000000E+01 0.  1.
         11    1    6    6    0    0 -0.14192707627E+01  0.11949606960E+02  0.18246697697E+01  0.12171148498E+02  0.00000000000E+00 0. -1.
        -12    1    6    6    0    0  0.11234959893E+02  0.10711848252E+02 -0.25055071842E+03  0.25103113456E+03  0.00000000000E+00 0.  1.
</event>
<event>
12    1  0.8462562E-002  0.1938628E+03  0.7818608E-02  0.1155218E+00
         21   -1    0    0  503  502  0.00000000000E+00  0.00000000000E+00  0.34104495117E+03  0.34104495117E+03  0.00000000000E+00 0. -1.
         21   -1    0    0  501  503 -0.00000000000E+00 -0.00000000000E+00 -0.13013987954E+03  0.13013987954E+03  0.00000000000E+00 0. -1.
          6    2    1    2  501    0  0.84312291680E+02 -0.29004118686E+02  0.12277224764E+02  0.19425115050E+03  0.17214231843E+03 0.  0.
         24    2    3    3    0    0  0.76617613933E+02 -0.73725711008E+01  0.70285843479E+02  0.13168740891E+03  0.80478943226E+02 0.  0.
         -6    2    1    2    0  502 -0.84312291680E+02  0.29004118686E+02  0.19862784687E+03  0.27693368021E+03  0.17114157955E+03 0.  0.
        -24    2    5    5    0    0 -0.11763981476E+03  0.49265236702E+02  0.17569000308E+03  0.23144223732E+03  0.80201885689E+02 0.  0.
          5    1    3    3  501    0  0.76946777475E+01 -0.21631547585E+02 -0.58008618715E+02  0.62563741590E+02  0.47000000000E+01 0. -1.
        -13    1    4    4    0    0 -0.10134288620E+02 -0.12153259488E+02  0.34055651568E+02  0.37552535544E+02  0.00000000000E+00 0.  1.
         14    1    4    4    0    0  0.86751902553E+02  0.47806883870E+01  0.36230191910E+02  0.94134873367E+02  0.00000000000E+00 0. -1.
         -5    1    5    5    0  502  0.33327523085E+02 -0.20261118016E+02  0.22937843785E+02  0.45491442884E+02  0.47000000000E+01 0.  1.
         11    1    6    6    0    0 -0.43901252280E+02  0.26823865709E+02  0.13459726502E+03  0.14409463374E+03  0.00000000000E+00 0. -1.
        -12    1    6    6    0    0 -0.73738562485E+02  0.22441370994E+02  0.41092738067E+02  0.87347603580E+02  0.00000000000E+00 0.  1.
</event>
<event>
12    1  0.8462562E-002  0.2059556E+03  0.7818608E-02  0.1144868E+00
         21   -1    0    0  501  502  0.00000000000E+00  0.00000000000E+00  0.51935690563E+03  0.51935690563E+03  0.00000000000E+00 0.  1.
         21   -1    0    0  502  503 -0.00000000000E+00 -0.00000000000E+00 -0.11020992007E+03  0.11020992007E+03  0.00000000000E+00 0.  1.
         -6    2    1    2    0  503  0.97544924813E+02 -0.53029258158E+02  0.44180838132E+02  0.21064103210E+03  0.17346637532E+03 0.  0.
        -24    2    3    3    0    0  0.22734804131E+02  0.27448055786E+02 -0.91094819231E+01  0.88431783561E+02  0.80417228238E+02 0.  0.
          6    2    1    2  501    0 -0.97544924813E+02  0.53029258158E+02  0.36496614743E+03  0.41892579360E+03  0.17312254965E+03 0.  0.
         24    2    5    5    0    0 -0.62227912411E+02 -0.38491291530E+02  0.18833821563E+03  0.21682973062E+03  0.78676273478E+02 0.  0.
          5    1    5    5  501    0 -0.35317012402E+02  0.91520549688E+02  0.17662793180E+03  0.20209606298E+03  0.47000000000E+01 0. -1.
        -13    1    6    6    0    0 -0.33575549272E+02  0.21381242884E+02  0.87205572937E+02  0.95860768865E+02  0.00000000000E+00 0.  1.
         14    1    6    6    0    0 -0.28652363139E+02 -0.59872534414E+02  0.10113264269E+03  0.12096896176E+03  0.00000000000E+00 0. -1.
         -5    1    3    3    0  503  0.74810120682E+02 -0.80477313944E+02  0.53290320055E+02  0.12220924854E+03  0.47000000000E+01 0.  1.
         11    1    4    4    0    0  0.10274812355E+02 -0.16749495026E+02  0.24587099984E+02  0.31474479156E+02  0.00000000000E+00 0. -1.
        -12    1    4    4    0    0  0.12459991776E+02  0.44197550812E+02 -0.33696581907E+02  0.56957304405E+02  0.00000000000E+00 0.  1.
</event>
<event>
12    1  0.8462562E-002  0.2190149E+03  0.7818608E-02  0.1134717E+00
         21   -1    0    0  501  502  0.00000000000E+00  0.00000000000E+00  0.12090684297E+04  0.12090684297E+04  0.00000000000E+00 0. -1.
         21   -1    0    0  502  503 -0.00000000000E+00 -0.00000000000E+00 -0.55534036390E+02  0.55534036390E+02  0.00000000000E+00 0. -1.
         -6    2    1    2    0  503 -0.94023095789E+02  0.97007478979E+02  0.23736512965E+03  0.32261857576E+03  0.17172579053E+03 0.  0.
        -24    2    3    3    0    0 -0.12064634256E+03  0.11934477002E+03  0.19547357337E+03  0.26798576211E+03  0.69337844689E+02 0.  0.
          6    2    1    2  501    0  0.94023095789E+02 -0.97007478979E+02  0.91616926365E+03  0.94198389032E+03  0.17238542991E+03 0.  0.
         24    2    5    5    0    0  0.52361619009E+01 -0.80978176237E+02  0.34200626187E+03  0.36075648147E+03  0.81191584241E+02 0.  0.
          5    1    5    5  501    0  0.88786933888E+02 -0.16029302742E+02  0.57416300179E+03  0.58122740885E+03  0.47000000000E+01 0. -1.
        -13    1    6    6    0    0 -0.49622135352E+01  0.13867769853E+02  0.19495876486E+02  0.24434152407E+02  0.00000000000E+00 0.  1.
         14    1    6    6    0    0  0.10198375436E+02 -0.94845946090E+02  0.32251038538E+03  0.33632232907E+03  0.00000000000E+00 0. -1.
         -5    1    3    3    0  503  0.26623246770E+02 -0.22337291039E+02  0.41891556280E+02  0.54632813648E+02  0.47000000000E+01 0.  1.
         11    1    4    4    0    0 -0.65770615367E+02  0.18214053445E+02  0.71138796042E+02  0.98581204552E+02  0.00000000000E+00 0. -1.
        -12    1    4    4    0    0 -0.54875727192E+02  0.10113071657E+03  0.12433477733E+03  0.16940455756E+03  0.00000000000E+00 0.  1.
</event>
<event>
12    1  0.8462562E-002  0.1830354E+03  0.7818608E-02  0.1165050E+00
         21   -1    0    0  503  502  0.00000000000E+00  0.00000000000E+00  0.18584224863E+04  0.18584224863E+04  0.00000000000E+00 0. -1.
         21   -1    0    0  501  503 -0.00000000000E+00 -0.00000000000E+00 -0.35993730769E+02  0.35993730769E+02  0.00000000000E+00 0. -1.
          6    2    1    2  501    0  0.45908211953E+02 -0.40416456266E+02  0.24002367304E+03  0.30146053819E+03  0.17183142496E+03 0.  0.
         24    2    3    3    0    0 -0.23268406415E+02 -0.59073811665E+02  0.10187396513E+03  0.14576553751E+03  0.82693126646E+02 0.  0.
         -6    2    1    2    0  502 -0.45908211953E+02  0.40416456266E+02  0.15824050825E+04  0.15929556789E+04  0.17251346590E+03 0.  0.
        -24    2    5    5    0    0  0.23373781534E+02  0.50033964661E+02  0.11669655018E+04  0.11716426998E+04  0.88816678890E+02 0.  0.
          5    1    3    3  501    0  0.69176618368E+02  0.18657355398E+02  0.13814970792E+03  0.15569500068E+03  0.47000000000E+01 0. -1.
        -13    1    4    4    0    0 -0.16264223909E+01 -0.73630545857E+02  0.92068326808E+02  0.11790114221E+03  0.00000000000E+00 0.  1.
         14    1    4    4    0    0 -0.21641984024E+02  0.14556734192E+02  0.98056383167E+01  0.27864395303E+02  0.00000000000E+00 0. -1.
         -5    1    5    5    0  502 -0.69281993487E+02 -0.96175083951E+01  0.41543958070E+03  0.42131297903E+03  0.47000000000E+01 0.  1.
         11    1    6    6    0    0 -0.33375874152E+02  0.28455188529E+02  0.48058768998E+03  0.48258488838E+03  0.00000000000E+00 0. -1.
        -12    1    6    6    0    0  0.56749655686E+02  0.21578776132E+02  0.68637781181E+03  0.68905781147E+03  0.00000000000E+00 0.  1.
</event>
<event>
12    1  0.8462562E-002  0.2017777E+03  0.7818608E-02  0.1148488E+00
         21   -1    0    0  503  502  0.00000000000E+00  0.00000000000E+00  0.61585498928E+02  0.61585498928E+02  0.00000000000E+00 0. -1.
         21   -1    0    0  501  503 -0.00000000000E+00 -0.00000000000E+00 -0.17744603983E+04  0.17744603983E+04  0.00000000000E+00 0. -1.
          6    2    1    2  501    0 -0.83932559223E+02 -0.29835234323E+02 -0.15839306384E+04  0.15965863704E+04  0.17976917136E+03 0.  0.
         24    2    3    3    0    0 -0.72596579373E+02  0.25609647096E+02 -0.55547273636E+03  0.56656191160E+03  0.80723735539E+02 0.  0.
         -6    2    1    2    0  502  0.83932559223E+02  0.29835234323E+02 -0.12894426093E+03  0.23945952685E+03  0.18105089579E+03 0.  0.
        -24    2    5    5    0    0  0.11742847978E+03  0.58156847988E+02 -0.78799842668E+02  0.17267148019E+03  0.80214450283E+02 0.  0.
          5    1    3    3  501    0 -0.11335979850E+02 -0.55444881420E+02 -0.10284579021E+04  0.10300244588E+04  0.47000000000E+01 0. -1.
        -13    1    4    4    0    0 -0.27058122183E+02 -0.20851306010E+02 -0.84919413919E+02  0.91532648813E+02  0.00000000000E+00 0.  1.
         14    1    4    4    0    0 -0.45538457190E+02  0.46460953107E+02 -0.47055332244E+03  0.47502926279E+03  0.00000000000E+00 0. -1.
         -5    1    5    5    0  502 -0.33495920555E+02 -0.28321613665E+02 -0.50144418259E+02  0.66788046662E+02  0.47000000000E+01 0.  1.
         13    1    6    6    0    0  0.10062462146E+03  0.90459181907E+01 -0.59772105390E+02  0.11738759586E+03  0.00000000000E+00 0. -1.
        -14    1    6    6    0    0  0.16803858319E+02  0.49110929798E+02 -0.19027737278E+02  0.55283884324E+02  0.00000000000E+00 0.  1.
</event>
<event>
12    1  0.8462562E-002  0.2030513E+03  0.7818608E-02  0.1147628E+00
         21   -1    0    0  501  502  0.00000000000E+00  0.00000000000E+00  0.16082535837E+03  0.16082535837E+03  0.00000000000E+00 0.  1.
         21   -1    0    0  502  503 -0.00000000000E+00 -0.00000000000E+00 -0.27510062276E+03  0.27510062276E+03  0.00000000000E+00 0.  1.
         -6    2    1    2    0  503  0.99063948183E+02 -0.44128835810E+02 -0.11764022121E+03  0.23284682419E+03  0.16916678725E+03 0.  0.
        -24    2    3    3    0    0  0.22338826198E+02 -0.12233613473E+02 -0.12338210097E+03  0.14942555151E+03  0.80350284079E+02 0.  0.
          6    2    1    2  501    0 -0.99063948183E+02  0.44128835810E+02  0.33649568108E+01  0.20307915694E+03  0.17166479275E+03 0.  0.
         24    2    5    5    0    0 -0.12434366739E+03  0.69094754508E+02  0.19189465009E+02  0.16390178644E+03  0.79120966305E+02 0.  0.
          5    1    5    5  501    0  0.25279719211E+02 -0.24965918698E+02 -0.15824508198E+02  0.39177370503E+02  0.47000000000E+01 0. -1.
        -11    1    6    6    0    0 -0.77770382756E+02  0.26882898480E+02 -0.26216177920E+02  0.86360932426E+02  0.00000000000E+00 0.  1.
         12    1    6    6    0    0 -0.46573284638E+02  0.42211856029E+02  0.45405642929E+02  0.77540854013E+02  0.00000000000E+00 0. -1.
         -5    1    3    3    0  503  0.76725121985E+02 -0.31895222337E+02  0.57418797559E+01  0.83421272675E+02  0.47000000000E+01 0.  1.
         13    1    4    4    0    0 -0.10190503205E+02 -0.35557613950E+02 -0.90002021018E+02  0.97306495429E+02  0.00000000000E+00 0. -1.
        -14    1    4    4    0    0  0.32529329403E+02  0.23324000477E+02 -0.33380079947E+02  0.52119056083E+02  0.00000000000E+00 0.  1.
</event>
<event>
12    1  0.8462562E-002  0.1882180E+03  0.7818608E-02  0.1160310E+00
         21   -1    0    0  501  502  0.00000000000E+00  0.00000000000E+00  0.14326885269E+03  0.14326885269E+03  0.00000000000E+00 0. -1.
         21   -1    0    0  502  503 -0.00000000000E+00 -0.00000000000E+00 -0.25321004795E+03  0.25321004795E+03  0.00000000000E+00 0. -1.
         -6    2    1    2    0  503  0.23735854358E+02 -0.71182367433E+02 -0.21526294124E+02  0.18944501032E+03  0.17261434002E+03 0.  0.
        -24    2    3    3    0    0  0.21231256044E+02 -0.10652924731E+03  0.13991548840E+02  0.13905372041E+03  0.85679209576E+02 0.  0.
          6    2    1    2  501    0 -0.23735854358E+02  0.71182367433E+02 -0.88414901129E+02  0.20703389032E+03  0.17150952389E+03 0.  0.
         24    2    5    5    0    0  0.49065798589E+02  0.63531167839E+02 -0.63611333917E+02  0.12960050945E+03  0.79411764674E+02 0.  0.
          5    1    5    5  501    0 -0.72801652948E+02  0.76511995945E+01 -0.24803567211E+02  0.77433380874E+02  0.47000000000E+01 0. -1.
        -13    1    6    6    0    0  0.66158707790E+02  0.39227684105E+02 -0.24989363458E+02  0.80871837513E+02  0.00000000000E+00 0.  1.
         14    1    6    6    0    0 -0.17092909201E+02  0.24303483734E+02 -0.38621970459E+02  0.48728671937E+02  0.00000000000E+00 0. -1.
         -5    1    3    3    0  503  0.25045983145E+01  0.35346879881E+02 -0.35517842964E+02  0.50391289911E+02  0.47000000000E+01 0.  1.
         11    1    4    4    0    0  0.16302017637E+02 -0.99919075466E+02 -0.20751940957E+02  0.10334515216E+03  0.00000000000E+00 0. -1.
        -12    1    4    4    0    0  0.49292384067E+01 -0.66101718485E+01  0.34743489797E+02  0.35708568249E+02  0.00000000000E+00 0.  1.
</event>
<event>
12    1  0.8462562E-002  0.1908276E+03  0.7818608E-02  0.1158417E+00
         21   -1    0    0  503  502  0.00000000000E+00  0.00000000000E+00  0.18193062224E+03  0.18193062224E+03  0.00000000000E+00 0.  1.
         21   -1    0    0  501  503 -0.00000000000E+00 -0.00000000000E+00 -0.28068837462E+03  0.28068837462E+03  0.00000000000E+00 0. -1.
          6    2    1    2  501    0  0.68367204334E+02 -0.48752519587E+02 -0.17544967751E+03  0.25695710437E+03  0.16790914613E+03 0.  0.
         24    2    3    3    0    0  0.37390758818E+02 -0.74321882376E+02 -0.50218927234E+02  0.12535861158E+03  0.79189833941E+02 0.  0.
         -6    2    1    2    0  502 -0.68367204334E+02  0.48752519587E+02  0.76691925131E+02  0.20566189248E+03  0.17136008825E+03 0.  0.
        -24    2    5    5    0    0 -0.72031265702E+02 -0.79630358341E+01  0.98040514223E+02  0.14476910285E+03  0.78065597630E+02 0.  0.
          5    1    3    3  501    0  0.30976445515E+02  0.25569362789E+02 -0.12523075028E+03  0.13159849279E+03  0.47000000000E+01 0. -1.
        -11    1    4    4    0    0  0.54069265105E+02 -0.24414659034E+02 -0.40542855843E+02  0.71855996024E+02  0.00000000000E+00 0.  1.
         12    1    4    4    0    0 -0.16678506286E+02 -0.49907223343E+02 -0.96760713911E+01  0.53502615555E+02  0.00000000000E+00 0. -1.
         -5    1    5    5    0  502  0.36640613685E+01  0.56715555421E+02 -0.21348589092E+02  0.60892789628E+02  0.47000000000E+01 0.  1.
         11    1    6    6    0    0  0.56562770204E+01  0.17785817786E+02  0.22849902769E+01  0.18802924363E+02  0.00000000000E+00 0. -1.
        -12    1    6    6    0    0 -0.77687542723E+02 -0.25748853620E+02  0.95755523946E+02  0.12596617849E+03  0.00000000000E+00 0.  1.
</event>
<event>
12    1  0.8462562E-002  0.1986268E+03  0.7818608E-02  0.1150977E+00
         21   -1    0    0  501  502  0.00000000000E+00  0.00000000000E+00  0.68337146748E+03  0.68337146748E+03  0.00000000000E+00 0.  1.
         21   -1    0    0  502  503 -0.00000000000E+00 -0.00000000000E+00 -0.63918666195E+02  0.63918666195E+02  0.00000000000E+00 0.  1.
         -6    2    1    2    0  503  0.93686993293E+02  0.26319485551E+02  0.19229138530E+03  0.27620683148E+03  0.17275493875E+03 0.  0.
        -24    2    3    3    0    0  0.26166829008E+02 -0.41103996007E+02  0.52045138060E+02  0.10651299448E+03  0.79133306319E+02 0.  0.
          6    2    1    2  501    0 -0.93686993293E+02 -0.26319485551E+02  0.42716141598E+03  0.47108330219E+03  0.17315494296E+03 0.  0.
         24    2    5    5    0    0 -0.10798940405E+03 -0.46252651240E+01  0.20138200137E+03  0.24376495226E+03  0.84755749127E+02 0.  0.
          5    1    5    5  501    0  0.14302410762E+02 -0.21694220427E+02  0.22577941461E+03  0.22731834993E+03  0.47000000000E+01 0. -1.
        -11    1    6    6    0    0 -0.76775199644E+02  0.14942280811E+02  0.18957861538E+03  0.20507987333E+03  0.00000000000E+00 0.  1.
         12    1    6    6    0    0 -0.31214204411E+02 -0.19567545935E+02  0.11803385986E+02  0.38685078928E+02  0.00000000000E+00 0. -1.
         -5    1    3    3    0  503  0.67520164285E+02  0.67423481558E+02  0.14024624724E+03  0.16969383700E+03  0.47000000000E+01 0.  1.
         11    1    4    4    0    0 -0.22901766064E+02 -0.33902167609E+02  0.35688491534E+02  0.54291033196E+02  0.00000000000E+00 0. -1.
        -12    1    4    4    0    0  0.49068595073E+02 -0.72018283984E+01  0.16356646525E+02  0.52221961283E+02  0.00000000000E+00 0.  1.
</event>
<event>
12    1  0.8462562E-002  0.2017898E+03  0.7818608E-02  0.1149121E+00
         21   -1    0    0  501  502  0.00000000000E+00  0.00000000000E+00  0.35192507498E+03  0.35192507498E+03  0.00000000000E+00 0.  1.
         21   -1    0    0  502  503 -0.00000000000E+00 -0.00000000000E+00 -0.14863786784E+03  0.14863786784E+03  0.00000000000E+00 0. -1.
         -6    2    1    2    0  503  0.91134009021E+02 -0.55398830217E+02 -0.19548660548E+02  0.20273445523E+03  0.17130286401E+03 0.  0.
        -24    2    3    3    0    0 -0.17073358205E+02 -0.37333855114E+02  0.10737664872E+02  0.88828664532E+02  0.78037926021E+02 0.  0.
          6    2    1    2  501    0 -0.91134009021E+02  0.55398830217E+02  0.22283586769E+03  0.29782848759E+03  0.16634766634E+03 0.  0.
         24    2    5    5    0    0 -0.10316547743E+03  0.22008139024E+02  0.10218809978E+03  0.17198068906E+03  0.89484500100E+02 0.  0.
          5    1    5    5  501    0  0.12031468407E+02  0.33390691194E+02  0.12064776791E+03  0.12584779852E+03  0.47000000000E+01 0. -1.
        -13    1    6    6    0    0  0.61203654876E+01  0.89449218080E+01  0.48172543110E+02  0.49376759812E+02  0.00000000000E+00 0.  1.
         14    1    6    6    0    0 -0.10928584292E+03  0.13063217216E+02  0.54015556671E+02  0.12260392925E+03  0.00000000000E+00 0. -1.
         -5    1    3    3    0  503  0.10820736723E+03 -0.18064975103E+02 -0.30286325419E+02  0.11390579070E+03  0.47000000000E+01 0.  1.
         11    1    4    4    0    0 -0.68063012881E+00 -0.16194783726E+02 -0.33452466352E+02  0.37172594506E+02  0.00000000000E+00 0. -1.
        -12    1    4    4    0    0 -0.16392728076E+02 -0.21139071389E+02  0.44190131224E+02  0.51656070026E+02  0.00000000000E+00 0.  1.
</event>
<event>
12    1  0.8462562E-002  0.1811636E+03  0.7818608E-02  0.1168399E+00
         21   -1    0    0  503  502  0.00000000000E+00  0.00000000000E+00  0.99499915141E+03  0.99499915141E+03  0.00000000000E+00 0. -1.
         21   -1    0    0  501  503 -0.00000000000E+00 -0.00000000000E+00 -0.70471853729E+02  0.70471853729E+02  0.00000000000E+00 0. -1.
          6    2    1    2  501    0 -0.18441079315E+02  0.20333854522E+02  0.63154631598E+02  0.18525335669E+03  0.17197895112E+03 0.  0.
         24    2    3    3    0    0  0.68653803941E+01  0.58639303534E+01 -0.30564807099E+02  0.86992383779E+02  0.80944105872E+02 0.  0.
         -6    2    1    2    0  502  0.18441079315E+02 -0.20333854522E+02  0.86137266608E+03  0.88021764845E+03  0.17907177253E+03 0.  0.
        -24    2    5    5    0    0 -0.51021153067E+01  0.50510919851E+02  0.62928506552E+03  0.63637341865E+03  0.79962801827E+02 0.  0.
          5    1    3    3  501    0 -0.25306459709E+02  0.14469924168E+02  0.93719438697E+02  0.98260972915E+02  0.47000000000E+01 0. -1.
        -13    1    4    4    0    0  0.37401689543E+01  0.22979770157E+02  0.21749528553E+02  0.31860644886E+02  0.00000000000E+00 0.  1.
         14    1    4    4    0    0  0.31252114398E+01 -0.17115839804E+02 -0.52314335651E+02  0.55131738893E+02  0.00000000000E+00 0. -1.
         -5    1    5    5    0  502  0.23543194622E+02 -0.70844774372E+02  0.23208760057E+03  0.24384422980E+03  0.47000000000E+01 0.  1.
         13    1    6    6    0    0 -0.10396628687E+02 -0.30821980863E+00  0.44541065060E+03  0.44553207803E+03  0.00000000000E+00 0. -1.
        -14    1    6    6    0    0  0.52945133803E+01  0.50819139659E+02  0.18387441492E+03  0.19084134062E+03  0.00000000000E+00 0.  1.
</event>
<event>
12    1  0.8462562E-002  0.2245551E+03  0.7818608E-02  0.1130587E+00
         21   -1    0    0  501  502  0.00000000000E+00  0.00000000000E+00  0.45860968769E+03  0.45860968769E+03  0.00000000000E+00 0.  1.
         21   -1    0    0  502  503 -0.00000000000E+00 -0.00000000000E+00 -0.10983918726E+03  0.10983918726E+03  0.00000000000E+00 0. -1.
         -6    2    1    2    0  503  0.57932896253E+02 -0.13206729168E+03  0.16939693421E+03  0.28128333764E+03  0.17212496830E+03 0.  0.
        -24    2    3    3    0    0  0.98793030302E+02 -0.82130097480E+02  0.79845603681E+02  0.17080797967E+03  0.79338702683E+02 0.  0.
          6    2    1    2  501    0 -0.57932896253E+02  0.13206729168E+03  0.17937356622E+03  0.28716553730E+03  0.17172996115E+03 0.  0.
         24    2    5    5    0    0  0.30159384215E+02  0.61524840537E+02  0.10747752722E+03  0.15327148324E+03  0.85122466224E+02 0.  0.
          5    1    5    5  501    0 -0.88092280468E+02  0.70542451143E+02  0.71896038998E+02  0.13389405407E+03  0.47000000000E+01 0. -1.
        -11    1    6    6    0    0  0.38146618877E+02  0.35108502385E+02  0.11097506416E+02  0.53018167831E+02  0.00000000000E+00 0.  1.
         12    1    6    6    0    0 -0.79872346624E+01  0.26416338152E+02  0.96380020807E+02  0.10025331541E+03  0.00000000000E+00 0. -1.
         -5    1    3    3    0  503 -0.40860134048E+02 -0.49937194199E+02  0.89551330527E+02  0.11047535797E+03  0.47000000000E+01 0.  1.
         13    1    4    4    0    0  0.38899646344E+02 -0.70935258364E+02  0.15838639014E+02  0.82436981086E+02  0.00000000000E+00 0. -1.
        -14    1    4    4    0    0  0.59893383958E+02 -0.11194839117E+02  0.64006964667E+02  0.88370998584E+02  0.00000000000E+00 0.  1.
</event>
<event>
12    1  0.8462562E-002  0.2000161E+03  0.7818608E-02  0.1149925E+00
         21   -1    0    0  501  502  0.00000000000E+00  0.00000000000E+00  0.36236649282E+03  0.36236649282E+03  0.00000000000E+00 0.  1.
         21   -1    0    0  502  503 -0.00000000000E+00 -0.00000000000E+00 -0.24860634271E+03  0.24860634271E+03  0.00000000000E+00 0.  1.
         -6    2    1    2    0  503  0.28037691384E+02  0.97225815632E+02 -0.17125825050E+03  0.26331694264E+03  0.17253246812E+03 0.  0.
        -24    2    3    3    0    0 -0.64546294350E+01  0.56529969810E+02 -0.18439272158E+03  0.20817642765E+03  0.78098972672E+02 0.  0.
          6    2    1    2  501    0 -0.28037691384E+02 -0.97225815632E+02  0.28501840061E+03  0.34765589288E+03  0.17143558502E+03 0.  0.
         24    2    5    5    0    0 -0.59140186720E+02 -0.12371259725E+03  0.22282920280E+03  0.27310053667E+03  0.78285893382E+02 0.  0.
          5    1    5    5  501    0  0.31102495336E+02  0.26486781623E+02  0.62189197803E+02  0.74555356215E+02  0.47000000000E+01 0. -1.
        -11    1    6    6    0    0 -0.69780447431E+02 -0.89103323577E+02  0.20141524008E+03  0.23103422269E+03  0.00000000000E+00 0.  1.
         12    1    6    6    0    0  0.10640260710E+02 -0.34609273678E+02  0.21413962720E+02  0.42066313980E+02  0.00000000000E+00 0. -1.
         -5    1    3    3    0  503  0.34492320819E+02  0.40695845822E+02  0.13134471080E+02  0.55140514989E+02  0.47000000000E+01 0.  1.
         13    1    4    4    0    0 -0.35631429492E+02  0.57258667956E+02 -0.12827095477E+03  0.14491925911E+03  0.00000000000E+00 0. -1.
        -14    1    4    4    0    0  0.29176800057E+02 -0.72869814619E+00 -0.56121766805E+02  0.63257168541E+02  0.00000000000E+00 0.  1.
</event>
<event>
12    1  0.8462562E-002  0.2555570E+03  0.7818608E-02  0.1109844E+00
         21   -1    0    0  503  502  0.00000000000E+00  0.00000000000E+00  0.14848461500E+03  0.14848461500E+03  0.00000000000E+00 0.  1.
         21   -1    0    0  501  503 -0.00000000000E+00 -0.00000000000E+00 -0.85166097298E+03  0.85166097298E+03  0.00000000000E+00 0. -1.
          6    2    1    2  501    0  0.18153741051E+03  0.53224376253E+02 -0.69933065751E+03  0.74455970163E+03  0.17180545719E+03 0.  0.
         24    2    3    3    0    0  0.10165421735E+03  0.93042653068E+02 -0.36760464098E+03  0.40100321463E+03  0.81730599405E+02 0.  0.
         -6    2    1    2    0  502 -0.18153741051E+03 -0.53224376253E+02 -0.38457004804E+01  0.25558588636E+03  0.17181586147E+03 0.  0.
        -24    2    5    5    0    0 -0.19846947138E+03 -0.25508433679E+02  0.17319516554E+02  0.21653560377E+03  0.80912859211E+02 0.  0.
          5    1    3    3  501    0  0.79883193156E+02 -0.39818276815E+02 -0.33172601652E+03  0.34355648699E+03  0.47000000000E+01 0. -1.
        -11    1    4    4    0    0  0.56459460443E+02  0.70708648052E+02 -0.31665259558E+03  0.32932696499E+03  0.00000000000E+00 0.  1.
         12    1    4    4    0    0  0.45194756906E+02  0.22334005016E+02 -0.50952045400E+02  0.71676249639E+02  0.00000000000E+00 0. -1.
         -5    1    5    5    0  502  0.16932060875E+02 -0.27715942574E+02 -0.21165217034E+02  0.39050282590E+02  0.47000000000E+01 0.  1.
         13    1    6    6    0    0 -0.16669975831E+03  0.48385492536E+01  0.32778178805E+02  0.16996067188E+03  0.00000000000E+00 0. -1.
        -14    1    6    6    0    0 -0.31769713069E+02 -0.30346982933E+02 -0.15458662251E+02  0.46574931886E+02  0.00000000000E+00 0.  1.
</event>
<event>
12    1  0.8462562E-002  0.1951143E+03  0.7818608E-02  0.1154234E+00
         21   -1    0    0  501  502  0.00000000000E+00  0.00000000000E+00  0.40744300646E+03  0.40744300646E+03  0.00000000000E+00 0. -1.
         21   -1    0    0  502  503 -0.00000000000E+00 -0.00000000000E+00 -0.27869015697E+03  0.27869015697E+03  0.00000000000E+00 0. -1.
         -6    2    1    2    0  503 -0.80802645567E+02 -0.34246294004E+02 -0.21575755692E+03  0.29089670847E+03  0.17426329347E+03 0.  0.
        -24    2    3    3    0    0  0.12791261337E+02  0.26213184060E+02 -0.85639801986E+02  0.11952609242E+03  0.78112506682E+02 0.  0.
          6    2    1    2  501    0  0.80802645567E+02  0.34246294004E+02  0.34451040642E+03  0.39523645495E+03  0.17269209308E+03 0.  0.
         24    2    5    5    0    0  0.56844823881E+02 -0.44273776437E+02  0.16076738050E+03  0.19393327998E+03  0.81070741759E+02 0.  0.
          5    1    5    5  501    0  0.23957821686E+02  0.78520070442E+02  0.18374302591E+03  0.20130317497E+03  0.47000000000E+01 0. -1.
        -13    1    6    6    0    0  0.28307761022E+02  0.13875668669E+02  0.16039367975E+02  0.35371243124E+02  0.00000000000E+00 0.  1.
         14    1    6    6    0    0  0.28537062859E+02 -0.58149445107E+02  0.14472801253E+03  0.15856203686E+03  0.00000000000E+00 0. -1.
         -5    1    3    3    0  503 -0.93593906905E+02 -0.60459478065E+02 -0.13011775493E+03  0.17137061605E+03  0.47000000000E+01 0.  1.
         11    1    4    4    0    0 -0.72128680070E+01 -0.22599989195E+02 -0.68239941479E+01  0.24685053629E+02  0.00000000000E+00 0. -1.
        -12    1    4    4    0    0  0.20004129344E+02  0.48813173256E+02 -0.78815807838E+02  0.94841038793E+02  0.00000000000E+00 0.  1.
</event>
<event>
12    1  0.8462562E-002  0.1838998E+03  0.7818608E-02  0.1164677E+00
         21   -1    0    0  503  502  0.00000000000E+00  0.00000000000E+00  0.18854712947E+03  0.18854712947E+03  0.00000000000E+00 0. -1.
         21   -1    0    0  501  503 -0.00000000000E+00 -0.00000000000E+00 -0.38713331738E+03  0.38713331738E+03  0.00000000000E+00 0. -1.
          6    2    1    2  501    0  0.49179051483E+02 -0.20613461400E+02 -0.31108207165E+03  0.36010108797E+03  0.17337025224E+03 0.  0.
         24    2    3    3    0    0 -0.13582681918E+02 -0.56977225725E+02 -0.23425460186E+03  0.25433763186E+03  0.79884410155E+02 0.  0.
         -6    2    1    2    0  502 -0.49179051483E+02  0.20613461400E+02  0.11249588374E+03  0.21557935888E+03  0.17599898358E+03 0.  0.
        -24    2    5    5    0    0 -0.69275660851E+01  0.67597726097E+02  0.25376649306E+02  0.10785489483E+03  0.79820174538E+02 0.  0.
          5    1    3    3  501    0  0.62761733401E+02  0.36363764325E+02 -0.76827469786E+02  0.10576345611E+03  0.47000000000E+01 0. -1.
        -13    1    4    4    0    0 -0.17067982119E+02 -0.56382947158E+02 -0.76549247227E+02  0.96592649797E+02  0.00000000000E+00 0.  1.
         14    1    4    4    0    0  0.34853002010E+01 -0.59427856711E+00 -0.15770535463E+03  0.15774498206E+03  0.00000000000E+00 0. -1.
         -5    1    5    5    0  502 -0.42251485398E+02 -0.46984264696E+02  0.87119234432E+02  0.10772446405E+03  0.47000000000E+01 0.  1.
         13    1    6    6    0    0 -0.18659244868E+02  0.69238579035E+02  0.45197365904E+02  0.84764085145E+02  0.00000000000E+00 0. -1.
        -14    1    6    6    0    0  0.11731678783E+02 -0.16408529379E+01 -0.19820716598E+02  0.23090809684E+02  0.00000000000E+00 0.  1.
</event>
<event>
12    1  0.8462562E-002  0.2352724E+03  0.7818608E-02  0.1123186E+00
         21   -1    0    0  503  502  0.00000000000E+00  0.00000000000E+00  0.58754312884E+02  0.58754312884E+02  0.00000000000E+00 0.  1.
         21   -1    0    0  501  503 -0.00000000000E+00 -0.00000000000E+00 -0.10021875586E+04  0.10021875586E+04  0.00000000000E+00 0. -1.
          6    2    1    2  501    0 -0.15617428247E+02 -0.15959168882E+03 -0.33569373257E+03  0.40925143970E+03  0.17053752549E+03 0.  0.
         24    2    3    3    0    0 -0.56057520480E+02 -0.45086518350E+02 -0.13491517391E+03  0.17455811908E+03  0.84221096206E+02 0.  0.
         -6    2    1    2    0  502  0.15617428247E+02  0.15959168882E+03 -0.60773951315E+03  0.65169043179E+03  0.17216181877E+03 0.  0.
        -24    2    5    5    0    0 -0.47975616618E+02  0.70565362213E+02 -0.40297802691E+03  0.41948552566E+03  0.79345358616E+02 0.  0.
          5    1    3    3  501    0  0.40440092233E+02 -0.11450517047E+03 -0.20077855866E+03  0.23469332062E+03  0.47000000000E+01 0. -1.
        -13    1    4    4    0    0 -0.32203881489E+02 -0.51639445598E+02 -0.32092346930E+02  0.68801461148E+02  0.00000000000E+00 0.  1.
         14    1    4    4    0    0 -0.23853638990E+02  0.65529272479E+01 -0.10282282698E+03  0.10575665793E+03  0.00000000000E+00 0. -1.
         -5    1    5    5    0  502  0.63593044866E+02  0.89026326606E+02 -0.20476148624E+03  0.23220490613E+03  0.47000000000E+01 0.  1.
         11    1    6    6    0    0 -0.40437447983E+01  0.59224135271E+02 -0.31448797516E+03  0.32004146074E+03  0.00000000000E+00 0. -1.
        -12    1    6    6    0    0 -0.43931871820E+02  0.11341226942E+02 -0.88490051753E+02  0.99444064928E+02  0.00000000000E+00 0.  1.
</event>
<event>
12    1  0.8462562E-002  0.2748867E+03  0.7818608E-02  0.1098535E+00
         21   -1    0    0  501  502  0.00000000000E+00  0.00000000000E+00  0.14774332913E+03  0.14774332913E+03  0.00000000000E+00 0.  1.
         21   -1    0    0  502  503 -0.00000000000E+00 -0.00000000000E+00 -0.80688047370E+03  0.80688047370E+03  0.00000000000E+00 0. -1.
         -6    2    1    2    0  503 -0.20817513982E+03 -0.50370027575E+02 -0.61846338429E+03  0.67674420682E+03  0.17208060681E+03 0.  0.
        -24    2    3    3    0    0 -0.16181091792E+03 -0.95966702052E+02 -0.42329596123E+03  0.47097464925E+03  0.85119142321E+02 0.  0.
          6    2    1    2  501    0  0.20817513982E+03  0.50370027575E+02 -0.40673760278E+02  0.27787959602E+03  0.17230405274E+03 0.  0.
         24    2    5    5    0    0  0.73241719995E+02 -0.11103856410E+02  0.29201582106E+02  0.11389569537E+03  0.81436182692E+02 0.  0.
          5    1    5    5  501    0  0.13493341983E+03  0.61473883985E+02 -0.69875342384E+02  0.16398390065E+03  0.47000000000E+01 0. -1.
        -13    1    6    6    0    0  0.53195293817E+02 -0.31573265758E+01  0.57448543937E+02  0.78358427727E+02  0.00000000000E+00 0.  1.
         14    1    6    6    0    0  0.20046426178E+02 -0.79465298341E+01 -0.28246961831E+02  0.35537267644E+02  0.00000000000E+00 0. -1.
         -5    1    3    3    0  503 -0.46364221905E+02  0.45596674476E+02 -0.19516742306E+03  0.20576955757E+03  0.47000000000E+01 0.  1.
         11    1    4    4    0    0 -0.10120950566E+03 -0.32364922622E+02 -0.30937741692E+03  0.32711655163E+03  0.00000000000E+00 0. -1.
        -12    1    4    4    0    0 -0.60601412255E+02 -0.63601779430E+02 -0.11391854431E+03  0.14385809762E+03  0.00000000000E+00 0.  1.
</event>
<event>
12    1  0.8462562E-002  0.2194149E+03  0.7818608E-02  0.1134433E+00
         21   -1    0    0  503  502  0.00000000000E+00  0.00000000000E+00  0.59598822469E+02  0.59598822469E+02  0.00000000000E+00 0. -1.
         21   -1    0    0  501  503 -0.00000000000E+00 -0.00000000000E+00 -0.93337523648E+03  0.93337523648E+03  0.00000000000E+00 0. -1.
          6    2    1    2  501    0  0.79590404859E+02  0.10969798813E+03 -0.62009647587E+03  0.65756922236E+03  0.17178289107E+03 0.  0.
         24    2    3    3    0    0  0.55931199378E+02 -0.10032969840E+02 -0.28120074890E+03  0.29733643088E+03  0.78141745555E+02 0.  0.
         -6    2    1    2    0  502 -0.79590404859E+02 -0.10969798813E+03 -0.25367993814E+03  0.33540483659E+03  0.17255321570E+03 0.  0.
        -24    2    5    5    0    0 -0.95391048638E+02 -0.94150635994E+02 -0.26649208188E+03  0.30937367201E+03  0.82038069267E+02 0.  0.
          5    1    3    3  501    0  0.23659205480E+02  0.11973095797E+03 -0.33889572698E+03  0.36023279149E+03  0.47000000000E+01 0. -1.
        -13    1    4    4    0    0 -0.10457085049E+02  0.20881596616E+02 -0.71282426395E+02  0.75010506049E+02  0.00000000000E+00 0.  1.
         14    1    4    4    0    0  0.66388284428E+02 -0.30914566455E+02 -0.20991832250E+03  0.22232592483E+03  0.00000000000E+00 0. -1.
         -5    1    5    5    0  502  0.15800643780E+02 -0.15547352134E+02  0.12812143739E+02  0.26031164580E+02  0.47000000000E+01 0.  1.
         11    1    6    6    0    0 -0.31968003075E+02  0.77595392818E+01 -0.90948305516E+02  0.96714827957E+02  0.00000000000E+00 0. -1.
        -12    1    6    6    0    0 -0.63423045563E+02 -0.10191017528E+03 -0.17554377636E+03  0.21265884405E+03  0.00000000000E+00 0.  1.
</event>
<event>
12    1  0.8462562E-002  0.1796222E+03  0.7818608E-02  0.1168409E+00
         21   -1    0    0  501  502  0.00000000000E+00  0.00000000000E+00  0.23975061903E+03  0.23975061903E+03  0.00000000000E+00 0. -1.
         21   -1    0    0  502  503 -0.00000000000E+00 -0.00000000000E+00 -0.25336004616E+03  0.25336004616E+03  0.00000000000E+00 0. -1.
         -6    2    1    2    0  503  0.28166860014E+02 -0.39756051610E+02 -0.17616023727E+03  0.25158810838E+03  0.17288791583E+03 0.  0.
        -24    2    3    3    0    0 -0.48632988375E+02 -0.47029733309E+02 -0.87090325725E+02  0.13366159609E+03  0.75523069723E+02 0.  0.
          6    2    1    2  501    0 -0.28166860014E+02  0.39756051610E+02  0.16255081015E+03  0.24152255681E+03  0.17186175818E+03 0.  0.
         24    2    5    5    0    0  0.21769591153E+02  0.16955291257E+02  0.15045452058E+02  0.84063214456E+02  0.77967053275E+02 0.  0.
          5    1    5    5  501    0 -0.49936451168E+02  0.22800760354E+02  0.14750535809E+03  0.15745934235E+03  0.47000000000E+01 0. -1.
        -13    1    6    6    0    0 -0.28147081490E+02  0.16788740394E+02  0.51771226938E+01  0.33180153704E+02  0.00000000000E+00 0.  1.
         14    1    6    6    0    0  0.49916672644E+02  0.16655086250E+00  0.98683293646E+01  0.50883060752E+02  0.00000000000E+00 0. -1.
         -5    1    3    3    0  503  0.76799848390E+02  0.72736816985E+01 -0.89069911549E+02  0.11792651229E+03  0.47000000000E+01 0.  1.
         11    1    4    4    0    0 -0.58711401654E+02 -0.20315461234E+02 -0.84654945206E+02  0.10500574459E+03  0.00000000000E+00 0. -1.
        -12    1    4    4    0    0  0.10078413279E+02 -0.26714272075E+02 -0.24353805187E+01  0.28655851496E+02  0.00000000000E+00 0.  1.
</event>
<event>
12    1  0.8462562E-002  0.2479739E+03  0.7818608E-02  0.1114897E+00
         21   -1    0    0  503  502  0.00000000000E+00  0.00000000000E+00  0.12553460289E+04  0.12553460289E+04  0.00000000000E+00 0.  1.
         21   -1    0    0  501  503 -0.00000000000E+00 -0.00000000000E+00 -0.49799416797E+02  0.49799416797E+02  0.00000000000E+00 0.  1.
          6    2    1    2  501    0 -0.17482586571E+03  0.26725852401E+02  0.49958951674E+03  0.55690320135E+03  0.17109393889E+03 0.  0.
         24    2    3    3    0    0 -0.11227462411E+03  0.49000534935E+02  0.18673674095E+03  0.23704734533E+03  0.79461876799E+02 0.  0.
         -6    2    1    2    0  502  0.17482586571E+03 -0.26725852401E+02  0.70595709537E+03  0.74824224436E+03  0.17381795428E+03 0.  0.
        -24    2    5    5    0    0  0.20195655271E+02  0.73799397226E+01  0.33253966865E+03  0.34261141267E+03  0.79609175748E+02 0.  0.
          5    1    3    3  501    0 -0.62551241603E+02 -0.22274682534E+02  0.31285277579E+03  0.31985585601E+03  0.47000000000E+01 0. -1.
        -13    1    4    4    0    0 -0.50500359834E+02 -0.93184913425E+01  0.11466995273E+03  0.12564361776E+03  0.00000000000E+00 0.  1.
         14    1    4    4    0    0 -0.61774264277E+02  0.58319026277E+02  0.72066788225E+02  0.11140372758E+03  0.00000000000E+00 0. -1.
         -5    1    5    5    0  502  0.15463021044E+03 -0.34105792123E+02  0.37341742672E+03  0.40563083169E+03  0.47000000000E+01 0.  1.
         13    1    6    6    0    0 -0.58980464045E+01 -0.13739351674E+02  0.27911670608E+03  0.27951689099E+03  0.00000000000E+00 0. -1.
        -14    1    6    6    0    0  0.26093701675E+02  0.21119291396E+02  0.53422962572E+02  0.63094521681E+02  0.00000000000E+00 0.  1.
</event>
<event>
12    1  0.8462562E-002  0.1741488E+03  0.7818608E-02  0.1173637E+00
         21   -1    0    0  501  502  0.00000000000E+00  0.00000000000E+00  0.98242900734E+02  0.98242900734E+02  0.00000000000E+00 0.  1.
         21   -1    0    0  502  503 -0.00000000000E+00 -0.00000000000E+00 -0.62937873099E+03  0.62937873099E+03  0.00000000000E+00 0.  1.
         -6    2    1    2    0  503  0.21366930845E+02 -0.12775655703E+02 -0.52532148912E+03  0.55337580508E+03  0.17216954318E+03 0.  0.
        -24    2    3    3    0    0  0.54934593011E+02 -0.11054678825E+02 -0.50215233255E+03  0.51228262412E+03  0.84477845982E+02 0.  0.
          6    2    1    2  501    0 -0.21366930845E+02  0.12775655703E+02 -0.58143411288E+01  0.17424582664E+03  0.17236019966E+03 0.  0.
         24    2    5    5    0    0  0.32251954012E+02  0.31090451051E+02 -0.43680038742E+02  0.10593537651E+03  0.85484229695E+02 0.  0.
          5    1    5    5  501    0 -0.53618884857E+02 -0.18314795349E+02  0.37865697614E+02  0.68310450136E+02  0.47000000000E+01 0. -1.
        -11    1    6    6    0    0 -0.18892340394E+02 -0.80086032862E+01  0.93302524063E+01  0.22541336742E+02  0.00000000000E+00 0.  1.
         12    1    6    6    0    0  0.51144294406E+02  0.39099054337E+02 -0.53010291149E+02  0.83394039763E+02  0.00000000000E+00 0. -1.
         -5    1    3    3    0  503 -0.33567662166E+02 -0.17209768782E+01 -0.23169156576E+02  0.41093180956E+02  0.47000000000E+01 0.  1.
         11    1    4    4    0    0 -0.16091648979E+01 -0.19339522175E+02 -0.33632450158E+03  0.33688392199E+03  0.00000000000E+00 0. -1.
        -12    1    4    4    0    0  0.56543757908E+02  0.82848433506E+01 -0.16582783097E+03  0.17539870213E+03  0.00000000000E+00 0.  1.
</event>
<event>
12    1  0.8462562E-002  0.1753266E+03  0.7818608E-02  0.1172419E+00
         21   -1    0    0  501  502  0.00000000000E+00  0.00000000000E+00  0.34312466059E+03  0.34312466059E+03  0.00000000000E+00 0. -1.
         21   -1    0    0  502  503 -0.00000000000E+00 -0.00000000000E+00 -0.10004916679E+03  0.10004916679E+03  0.00000000000E+00 0. -1.
         -6    2    1    2    0  503  0.22339628887E+02 -0.26358184987E+02  0.49756014935E+02  0.18219135194E+03  0.17182611782E+03 0.  0.
        -24    2    3    3    0    0  0.54440213016E+02 -0.75563483019E+01 -0.21597103242E+02  0.10158543381E+03  0.82657911300E+02 0.  0.
          6    2    1    2  501    0 -0.22339628887E+02  0.26358184987E+02  0.19331947886E+03  0.26098247544E+03  0.17188839009E+03 0.  0.
         24    2    5    5    0    0 -0.54036662097E+01 -0.51474648581E+02  0.11199317700E+03  0.14704901158E+03  0.80013130531E+02 0.  0.
          5    1    5    5  501    0 -0.16935962677E+02  0.77832833567E+02  0.81326301863E+02  0.11393346386E+03  0.47000000000E+01 0. -1.
        -11    1    6    6    0    0  0.34892410498E+02 -0.28279301107E+02  0.34326633134E+02  0.56528903437E+02  0.00000000000E+00 0.  1.
         12    1    6    6    0    0 -0.40296076707E+02 -0.23195347474E+02  0.77666543863E+02  0.90520108142E+02  0.00000000000E+00 0. -1.
         -5    1    3    3    0  503 -0.32100584129E+02 -0.18801836685E+02  0.71353118177E+02  0.80605918131E+02  0.47000000000E+01 0.  1.
         13    1    4    4    0    0  0.59019213729E+02 -0.94096048563E+01  0.17424122420E+02  0.62252777406E+02  0.00000000000E+00 0. -1.
        -14    1    4    4    0    0 -0.45790007123E+01  0.18532565544E+01 -0.39021225662E+02  0.39332656401E+02  0.00000000000E+00 0.  1.
</event>
<event>
12    1  0.8462562E-002  0.1928427E+03  0.7818608E-02  0.1156343E+00
         21   -1    0    0  503  502  0.00000000000E+00  0.00000000000E+00  0.34481821042E+03  0.34481821042E+03  0.00000000000E+00 0.  1.
         21   -1    0    0  501  503 -0.00000000000E+00 -0.00000000000E+00 -0.27912186421E+03  0.27912186421E+03  0.00000000000E+00 0.  1.
          6    2    1    2  501    0 -0.83249096974E+02 -0.25958801165E+01 -0.21221718151E+03  0.28674803343E+03  0.17392858249E+03 0.  0.
         24    2    3    3    0    0 -0.90954734389E+02  0.32576210803E+02 -0.21649521530E+03  0.25018515060E+03  0.79927830661E+02 0.  0.
         -6    2    1    2    0  502  0.83249096974E+02  0.25958801165E+01  0.27791352772E+03  0.33719204120E+03  0.17182954640E+03 0.  0.
        -24    2    5    5    0    0  0.31480270007E+02  0.24943866168E+02  0.63357193397E+02  0.11530027811E+03  0.87560358147E+02 0.  0.
          5    1    3    3  501    0  0.77056374142E+01 -0.35172090920E+02  0.42780337950E+01  0.36562882829E+02  0.47000000000E+01 0. -1.
        -13    1    4    4    0    0 -0.18243064574E+02  0.42058135210E+02 -0.47741841758E+02  0.66188968845E+02  0.00000000000E+00 0.  1.
         14    1    4    4    0    0 -0.72711669815E+02 -0.94819244070E+01 -0.16875337355E+03  0.18399618176E+03  0.00000000000E+00 0. -1.
         -5    1    5    5    0  502  0.51768826968E+02 -0.22347986051E+02  0.21455633432E+03  0.22189176308E+03  0.47000000000E+01 0.  1.
         13    1    6    6    0    0  0.30828265869E+02 -0.25829767449E+02  0.47205642621E+02  0.62015575126E+02  0.00000000000E+00 0. -1.
        -14    1    6    6    0    0  0.65200413762E+00  0.50773633616E+02  0.16151550776E+02  0.53284702988E+02  0.00000000000E+00 0.  1.
</event>
<event>
12    1  0.8462562E-002  0.2385650E+03  0.7818608E-02  0.1121043E+00
         21   -1    0    0  501  502  0.00000000000E+00  0.00000000000E+00  0.65559867088E+03  0.65559867088E+03  0.00000000000E+00 0.  1.
         21   -1    0    0  502  503 -0.00000000000E+00 -0.00000000000E+00 -0.91518218687E+02  0.91518218687E+02  0.00000000000E+00 0. -1.
         -6    2    1    2    0  503 -0.16344966304E+03 -0.14087066171E+02  0.37125924320E+03  0.44037063006E+03  0.17081752948E+03 0.  0.
        -24    2    3    3    0    0 -0.92397763520E+02  0.57966483699E+02  0.24447764140E+03  0.27808769495E+03  0.75272763999E+02 0.  0.
          6    2    1    2  501    0  0.16344966304E+03  0.14087066171E+02  0.19282120899E+03  0.30674625951E+03  0.17320222661E+03 0.  0.
         24    2    5    5    0    0  0.12686176480E+03  0.62537306940E+02  0.14512835983E+03  0.22939771079E+03  0.10749998493E+03 0.  0.
          5    1    5    5  501    0  0.36587898237E+02 -0.48450240768E+02  0.47692849164E+02  0.77348548722E+02  0.47000000000E+01 0. -1.
        -11    1    6    6    0    0  0.54568496071E+02 -0.23780430265E+02  0.78679038367E+02  0.98659113646E+02  0.00000000000E+00 0.  1.
         12    1    6    6    0    0  0.72293268729E+02  0.86317737204E+02  0.66449321462E+02  0.13073859714E+03  0.00000000000E+00 0. -1.
         -5    1    3    3    0  503 -0.71051899517E+02 -0.72053549870E+02  0.12678160180E+03  0.16228293511E+03  0.47000000000E+01 0.  1.
         11    1    4    4    0    0  0.55841336785E+01  0.88976979876E+01  0.36922904420E+00  0.10511322871E+02  0.00000000000E+00 0. -1.
        -12    1    4    4    0    0 -0.97981897199E+02  0.49068785711E+02  0.24410841236E+03  0.26757637208E+03  0.00000000000E+00 0.  1.
</event>
<event>
12    1  0.8462562E-002  0.1888509E+03  0.7818608E-02  0.1159831E+00
         21   -1    0    0  503  502  0.00000000000E+00  0.00000000000E+00  0.31739344177E+03  0.31739344177E+03  0.00000000000E+00 0.  1.
         21   -1    0    0  501  503 -0.00000000000E+00 -0.00000000000E+00 -0.13031034639E+03  0.13031034639E+03  0.00000000000E+00 0. -1.
          6    2    1    2  501    0  0.66768313274E+02  0.38072018261E+02  0.82114833036E+01  0.18758898808E+03  0.17092312236E+03 0.  0.
         24    2    3    3    0    0  0.51296592066E+02 -0.50423232684E+00 -0.57265840681E+02  0.10989168296E+03  0.78518856762E+02 0.  0.
         -6    2    1    2    0  502 -0.66768313274E+02 -0.38072018261E+02  0.17887161207E+03  0.26011480008E+03  0.17250266487E+03 0.  0.
        -24    2    5    5    0    0  0.10543729699E+02 -0.39390545031E+02  0.15630668655E+03  0.17942926008E+03  0.78104377860E+02 0.  0.
          5    1    3    3  501    0  0.15471721207E+02  0.38576250588E+02  0.65477323984E+02  0.77697305119E+02  0.47000000000E+01 0. -1.
        -11    1    4    4    0    0 -0.14685484063E+02 -0.19297052559E+02 -0.22047753031E+02  0.32774122312E+02  0.00000000000E+00 0.  1.
         12    1    4    4    0    0  0.65982076129E+02  0.18792820233E+02 -0.35218087650E+02  0.77117560648E+02  0.00000000000E+00 0. -1.
         -5    1    5    5    0  502 -0.77312042972E+02  0.13185267696E+01  0.22564925524E+02  0.80685540001E+02  0.47000000000E+01 0.  1.
         11    1    6    6    0    0  0.25760682699E+02 -0.26265477379E+01  0.99164848177E+01  0.27728112039E+02  0.00000000000E+00 0. -1.
        -12    1    6    6    0    0 -0.15216953000E+02 -0.36763997293E+02  0.14639020173E+03  0.15170114804E+03  0.00000000000E+00 0.  1.
</event>
<event>
12    1  0.8462562E-002  0.2108401E+03  0.7818608E-02  0.1141168E+00
         21   -1    0    0  503  502  0.00000000000E+00  0.00000000000E+00  0.66161580557E+03  0.66161580557E+03  0.00000000000E+00 0. -1.
         21   -1    0    0  501  503 -0.00000000000E+00 -0.00000000000E+00 -0.33219586005E+03  0.33219586005E+03  0.00000000000E+00 0. -1.
          6    2    1    2  501    0 -0.39062882413E+02  0.11572497822E+03 -0.27935976784E+03  0.34999344297E+03  0.17185851992E+03 0.  0.
         24    2    3    3    0    0 -0.67799499121E+02  0.88002088656E+02 -0.27877822228E+03  0.30978424078E+03  0.76862467611E+02 0.  0.
         -6    2    1    2    0  502  0.39062882413E+02 -0.11572497822E+03  0.60877971336E+03  0.64381822266E+03  0.17020865155E+03 0.  0.
        -24    2    5    5    0    0 -0.29169857737E+02 -0.88531966520E+02  0.31707126192E+03  0.34296763291E+03  0.91672364365E+02 0.  0.
          5    1    3    3  501    0  0.28736616708E+02  0.27722889564E+02 -0.58154555682E+00  0.40209202191E+02  0.47000000000E+01 0. -1.
        -11    1    4    4    0    0 -0.11000328424E+02 -0.55865105790E+01 -0.24752351957E+01  0.12583446077E+02  0.00000000000E+00 0.  1.
         12    1    4    4    0    0 -0.56799170697E+02  0.93588599235E+02 -0.27630298708E+03  0.29720079470E+03  0.00000000000E+00 0. -1.
         -5    1    5    5    0  502  0.68232740150E+02 -0.27193011699E+02  0.29170845144E+03  0.30085058975E+03  0.47000000000E+01 0.  1.
         11    1    6    6    0    0  0.23482582694E+02 -0.90836167751E+01  0.13632705496E+03  0.13863264298E+03  0.00000000000E+00 0. -1.
        -12    1    6    6    0    0 -0.52652440431E+02 -0.79448349745E+02  0.18074420696E+03  0.20433498993E+03  0.00000000000E+00 0.  1.
</event>
<event>
12    1  0.8462562E-002  0.2428111E+03  0.7818608E-02  0.1118230E+00
         21   -1    0    0  501  502  0.00000000000E+00  0.00000000000E+00  0.11992377751E+03  0.11992377751E+03  0.00000000000E+00 0. -1.
         21   -1    0    0  502  503 -0.00000000000E+00 -0.00000000000E+00 -0.62117224147E+03  0.62117224147E+03  0.00000000000E+00 0. -1.
         -6    2    1    2    0  503  0.15302914776E+03  0.71523954357E+02 -0.79781777712E+02  0.25558243713E+03  0.17442377705E+03 0.  0.
        -24    2    3    3    0    0  0.72280226960E+02  0.10125596478E+03 -0.16097131211E+02  0.14842738659E+03  0.79337064762E+02 0.  0.
          6    2    1    2  501    0 -0.15302914776E+03 -0.71523954357E+02 -0.42146668624E+03  0.48551358186E+03  0.17191763855E+03 0.  0.
         24    2    5    5    0    0 -0.14487053752E+03 -0.86551213942E+01 -0.22806712149E+03  0.28193427366E+03  0.80062094615E+02 0.  0.
          5    1    5    5  501    0 -0.81586102450E+01 -0.62868832962E+02 -0.19339956475E+03  0.20357930819E+03  0.47000000000E+01 0. -1.
        -11    1    6    6    0    0 -0.14910922986E+03  0.59707004864E+01 -0.21584373962E+03  0.26240756777E+03  0.00000000000E+00 0.  1.
         12    1    6    6    0    0  0.42386923418E+01 -0.14625821881E+02 -0.12223381874E+02  0.19526705890E+02  0.00000000000E+00 0. -1.
         -5    1    3    3    0  503  0.80748920801E+02 -0.29732010424E+02 -0.63684646501E+02  0.10715505053E+03  0.47000000000E+01 0.  1.
         13    1    4    4    0    0  0.87797342595E+02  0.78942353643E+02 -0.26371298845E+01  0.11809836163E+03  0.00000000000E+00 0. -1.
        -14    1    4    4    0    0 -0.15517115636E+02  0.22313611137E+02 -0.13460001327E+02  0.30329024965E+02  0.00000000000E+00 0.  1.
</event>
<event>
12    1  0.8462562E-002  0.1800873E+03  0.7818608E-02  0.1167791E+00
         21   -1    0    0  503  502  0.00000000000E+00  0.00000000000E+00  0.81481428781E+02  0.81481428781E+02  0.00000000000E+00 0. -1.
         21   -1    0    0  501  503 -0.00000000000E+00 -0.00000000000E+00 -0.76114765621E+03  0.76114765621E+03  0.00000000000E+00 0. -1.
          6    2    1    2  501    0  0.28185195566E+02  0.37110726840E+02 -0.63095481035E+03  0.65607019185E+03  0.17364478867E+03 0.  0.
         24    2    3    3    0    0  0.19892186493E+02 -0.68826924896E+01 -0.13255825845E+03  0.15564496478E+03  0.78807313352E+02 0.  0.
         -6    2    1    2    0  502 -0.28185195566E+02 -0.37110726840E+02 -0.48711417082E+02  0.18655889315E+03  0.17395346263E+03 0.  0.
        -24    2    5    5    0    0 -0.43067705078E+02 -0.92039113017E+02 -0.40234943525E+02  0.12883058725E+03  0.68208826302E+02 0.  0.
          5    1    3    3  501    0  0.82930090729E+01  0.43993419330E+02 -0.49839655190E+03  0.50042522707E+03  0.47000000000E+01 0. -1.
        -11    1    4    4    0    0  0.28766280227E+02  0.90068348848E+01 -0.10023795710E+02  0.31766309719E+02  0.00000000000E+00 0.  1.
         12    1    4    4    0    0 -0.88740937343E+01 -0.15889527374E+02 -0.12253446274E+03  0.12387865506E+03  0.00000000000E+00 0. -1.
         -5    1    5    5    0  502  0.14882509512E+02  0.54928386177E+02 -0.84764735565E+01  0.57728305894E+02  0.47000000000E+01 0.  1.
         11    1    6    6    0    0 -0.53108866170E+02 -0.45043043282E+02 -0.61408324975E+01  0.69908062752E+02  0.00000000000E+00 0. -1.
        -12    1    6    6    0    0  0.10041161092E+02 -0.46996069735E+02 -0.34094111028E+02  0.58922524500E+02  0.00000000000E+00 0.  1.
</event>
<event>
12    1  0.8462562E-002  0.2216084E+03  0.7818608E-02  0.1134380E+00
         21   -1    0    0  501  502  0.00000000000E+00  0.00000000000E+00  0.25492033164E+03  0.25492033164E+03  0.00000000000E+00 0.  1.
         21   -1    0    0  502  503 -0.00000000000E+00 -0.00000000000E+00 -0.22892248582E+03  0.22892248582E+03  0.00000000000E+00 0. -1.
         -6    2    1    2    0  503 -0.57550482043E+02  0.12669832407E+03 -0.93237381108E+02  0.23219359525E+03  0.16079842391E+03 0.  0.
        -24    2    3    3    0    0 -0.84585555431E+02  0.71332185320E+02 -0.19264703390E+02  0.13580712544E+03  0.76350832828E+02 0.  0.
          6    2    1    2  501    0  0.57550482043E+02 -0.12669832407E+03  0.11923522692E+03  0.25164922222E+03  0.17246961587E+03 0.  0.
         24    2    5    5    0    0 -0.93440191938E+01 -0.17542665238E+02  0.83597541673E+01  0.82222858833E+02  0.79345177715E+02 0.  0.
          5    1    5    5  501    0  0.66894501236E+02 -0.10915565883E+03  0.11087547276E+03  0.16942636338E+03  0.47000000000E+01 0. -1.
        -11    1    6    6    0    0  0.22796058535E+02 -0.26743088253E+02  0.26661581288E+02  0.44110009871E+02  0.00000000000E+00 0.  1.
         12    1    6    6    0    0 -0.32140077729E+02  0.92004230144E+01 -0.18301827121E+02  0.38112848962E+02  0.00000000000E+00 0. -1.
         -5    1    3    3    0  503  0.27035073388E+02  0.55366138750E+02 -0.73972677718E+02  0.96386469807E+02  0.47000000000E+01 0.  1.
         11    1    4    4    0    0 -0.91604671773E+02  0.64851887349E+02 -0.34853277512E+02  0.11752418533E+03  0.00000000000E+00 0. -1.
        -12    1    4    4    0    0  0.70191163425E+01  0.64802979715E+01  0.15588574122E+02  0.18282940113E+02  0.00000000000E+00 0.  1.
</event>
<event>
12    1  0.8462562E-002  0.1876695E+03  0.7818608E-02  0.1160609E+00
         21   -1    0    0  503  502  0.00000000000E+00  0.00000000000E+00  0.24049285457E+03  0.24049285457E+03  0.00000000000E+00 0. -1.
         21   -1    0    0  501  503 -0.00000000000E+00 -0.00000000000E+00 -0.15369996606E+03  0.15369996606E+03  0.00000000000E+00 0. -1.
          6    2    1    2  501    0  0.44246003638E+02  0.58324632639E+02  0.30863830052E+00  0.18766974782E+03  0.17280152597E+03 0.  0.
         24    2    3    3    0    0  0.84477873118E+02  0.48489344311E+02 -0.38118353434E+02  0.13097706829E+03  0.78830552393E+02 0.  0.
         -6    2    1    2    0  502 -0.44246003638E+02 -0.58324632639E+02  0.86484250208E+02  0.20652307281E+03  0.17266378444E+03 0.  0.
        -24    2    5    5    0    0 -0.28079991181E+02 -0.89575572782E+02  0.12409666538E+02  0.12438236935E+03  0.80651750366E+02 0.  0.
          5    1    3    3  501    0 -0.40231869480E+02  0.98352883277E+01  0.38426991734E+02  0.56692679528E+02  0.47000000000E+01 0. -1.
        -13    1    4    4    0    0 -0.56680109513E+01 -0.14116454186E+02 -0.15431059288E+01  0.15289924880E+02  0.00000000000E+00 0.  1.
         14    1    4    4    0    0  0.90145884069E+02  0.62605798497E+02 -0.36575247505E+02  0.11568714341E+03  0.00000000000E+00 0. -1.
         -5    1    5    5    0  502 -0.16166012457E+02  0.31250940143E+02  0.74074583671E+02  0.82140703458E+02  0.47000000000E+01 0.  1.
         11    1    6    6    0    0 -0.40357902852E+02 -0.93205306533E+02  0.26876705203E+02  0.10506353683E+03  0.00000000000E+00 0. -1.
        -12    1    6    6    0    0  0.12277911671E+02  0.36297337517E+01 -0.14467038666E+02  0.19318832518E+02  0.00000000000E+00 0.  1.
</event>
<event>
12    1  0.8462562E-002  0.1754446E+03  0.7818608E-02  0.1172328E+00
         21   -1    0    0  501  502  0.00000000000E+00  0.00000000000E+00  0.35114433975E+03  0.35114433975E+03  0.00000000000E+00 0. -1.
         21   -1    0    0  502  503 -0.00000000000E+00 -0.00000000000E+00 -0.16561439945E+03  0.16561439945E+03  0.00000000000E+00 0. -1.
         -6    2    1    2    0  503 -0.32122846602E+02  0.10069363167E+02 -0.84576613002E+02  0.19476657587E+03  0.17218462841E+03 0.  0.
        -24    2    3    3    0    0 -0.75018678806E+02 -0.23007659466E+02 -0.82422517045E+02  0.14035268080E+03  0.82147727473E+02 0.  0.
          6    2    1    2  501    0  0.32122846602E+02 -0.10069363167E+02  0.27010655330E+03  0.32199216333E+03  0.17201201634E+03 0.  0.
         24    2    5    5    0    0 -0.36308828350E+02 -0.43351542725E+02  0.13728215199E+03  0.16884188029E+03  0.80395920370E+02 0.  0.
          5    1    5    5  501    0  0.68431674952E+02  0.33282179557E+02  0.13282440131E+03  0.15315028304E+03  0.47000000000E+01 0. -1.
        -11    1    6    6    0    0 -0.33036096320E+02 -0.19435189422E+02  0.10442998841E+02  0.39726143441E+02  0.00000000000E+00 0.  1.
         12    1    6    6    0    0 -0.32727320299E+01 -0.23916353303E+02  0.12683915315E+03  0.12911573685E+03  0.00000000000E+00 0. -1.
         -5    1    3    3    0  503  0.42895832204E+02  0.33077022634E+02 -0.21540959575E+01  0.54413895066E+02  0.47000000000E+01 0.  1.
         13    1    4    4    0    0 -0.41990271644E+02  0.28539924415E+02 -0.49195702774E+02  0.70696020891E+02  0.00000000000E+00 0. -1.
        -14    1    4    4    0    0 -0.33028407162E+02 -0.51547583882E+02 -0.33226814271E+02  0.69656659914E+02  0.00000000000E+00 0.  1.
</event>
<event>
12    1  0.8462562E-002  0.1978407E+03  0.7818608E-02  0.1151578E+00
         21   -1    0    0  501  502  0.00000000000E+00  0.00000000000E+00  0.40824933173E+03  0.40824933173E+03  0.00000000000E+00 0. -1.
         21   -1    0    0  502  503 -0.00000000000E+00 -0.00000000000E+00 -0.96463755531E+02  0.96463755531E+02  0.00000000000E+00 0.  1.
         -6    2    1    2    0  503 -0.39500726872E+02 -0.88409313949E+02  0.17576829069E+03  0.26464206632E+03  0.17252367095E+03 0.  0.
        -24    2    3    3    0    0 -0.60459051380E+02 -0.10450048322E+03  0.18613199459E+03  0.23587275188E+03  0.80094867405E+02 0.  0.
          6    2    1    2  501    0  0.39500726872E+02  0.88409313949E+02  0.13601728551E+03  0.24007102094E+03  0.17250182295E+03 0.  0.
         24    2    5    5    0    0 -0.16531691021E+02  0.68983906702E+02  0.18317565321E+02  0.10819118005E+03  0.79609811260E+02 0.  0.
          5    1    5    5  501    0  0.56032417893E+02  0.19425407247E+02  0.11769972019E+03  0.13187984090E+03  0.47000000000E+01 0. -1.
        -13    1    6    6    0    0  0.27319613273E+02  0.53038673133E+02  0.14348196047E+02  0.61362308031E+02  0.00000000000E+00 0.  1.
         14    1    6    6    0    0 -0.43851304294E+02  0.15945233569E+02  0.39693692738E+01  0.46828872016E+02  0.00000000000E+00 0. -1.
         -5    1    3    3    0  503  0.20958324509E+02  0.16091169275E+02 -0.10363703895E+02  0.28769314439E+02  0.47000000000E+01 0.  1.
         13    1    4    4    0    0 -0.30949295050E+02 -0.10495308112E+03  0.11439049973E+03  0.15829780330E+03  0.00000000000E+00 0. -1.
        -14    1    4    4    0    0 -0.29509756330E+02  0.45259789853E+00  0.71741494856E+02  0.77574948583E+02  0.00000000000E+00 0.  1.
</event>
<event>
12    1  0.8462562E-002  0.1914463E+03  0.7818608E-02  0.1157506E+00
         21   -1    0    0  503  502  0.00000000000E+00  0.00000000000E+00  0.64375094305E+03  0.64375094305E+03  0.00000000000E+00 0. -1.
         21   -1    0    0  501  503 -0.00000000000E+00 -0.00000000000E+00 -0.21242990402E+03  0.21242990402E+03  0.00000000000E+00 0.  1.
          6    2    1    2  501    0  0.76673769993E+02 -0.14470279214E+02 -0.15135973082E+03  0.24285503434E+03  0.17314890587E+03 0.  0.
         24    2    3    3    0    0  0.79940022984E+02 -0.65437298935E+02 -0.13693490623E+03  0.18957773080E+03  0.80722364349E+02 0.  0.
         -6    2    1    2    0  502 -0.76673769993E+02  0.14470279214E+02  0.58268076985E+03  0.61332581272E+03  0.17482396005E+03 0.  0.
        -24    2    5    5    0    0  0.23476368239E+00  0.60642286854E+02  0.27022606580E+03  0.28821535622E+03  0.79802398799E+02 0.  0.
          5    1    3    3  501    0 -0.32662529913E+01  0.50967019721E+02 -0.14424824595E+02  0.53277303539E+02  0.47000000000E+01 0. -1.
        -13    1    4    4    0    0  0.47555835211E+02 -0.54904428261E+01 -0.10273563196E+03  0.11334157445E+03  0.00000000000E+00 0.  1.
         14    1    4    4    0    0  0.32384187773E+02 -0.59946856109E+02 -0.34199274273E+02  0.76236156355E+02  0.00000000000E+00 0. -1.
         -5    1    5    5    0  502 -0.76908533675E+02 -0.46172007640E+02  0.31245470406E+03  0.32511045650E+03  0.47000000000E+01 0.  1.
         13    1    6    6    0    0 -0.18118716246E+02  0.49596178498E+02  0.25841379058E+03  0.26375321034E+03  0.00000000000E+00 0. -1.
        -14    1    6    6    0    0  0.18353479928E+02  0.11046108356E+02  0.11812275215E+02  0.24462145880E+02  0.00000000000E+00 0.  1.
</event>
<event>
12    1  0.8462562E-002  0.2240819E+03  0.7818608E-02  0.1131343E+00
         21   -1    0    0  501  502  0.00000000000E+00  0.00000000000E+00  0.24599731277E+03  0.24599731277E+03  0.00000000000E+00 0. -1.
         21   -1    0    0  502  503 -0.00000000000E+00 -0.00000000000E+00 -0.20280196313E+03  0.20280196313E+03  0.00000000000E+00 0.  1.
         -6    2    1    2    0  503 -0.88807794206E+02  0.11602870806E+03  0.57161892110E+01  0.22160464739E+03  0.16651264071E+03 0.  0.
        -24    2    3    3    0    0 -0.23954137346E+02  0.53706361378E+02  0.59172696307E+02  0.11686802602E+03  0.81844691757E+02 0.  0.
          6    2    1    2  501    0  0.88807794206E+02 -0.11602870806E+03  0.37479160438E+02  0.22719462851E+03  0.16989180778E+03 0.  0.
         24    2    5    5    0    0  0.40988088422E+02 -0.87185097815E+01 -0.25105018436E+02  0.93999011612E+02  0.80308881378E+02 0.  0.
          5    1    5    5  501    0  0.47819705783E+02 -0.10731019828E+03  0.62584178874E+02  0.13319561690E+03  0.47000000000E+01 0. -1.
        -11    1    6    6    0    0  0.42375636238E+02  0.92434432417E+01  0.18245941674E+02  0.47053694617E+02  0.00000000000E+00 0.  1.
         12    1    6    6    0    0 -0.13875478163E+01 -0.17961953023E+02 -0.43350960110E+02  0.46945316995E+02  0.00000000000E+00 0. -1.
         -5    1    3    3    0  503 -0.64853656860E+02  0.62322346686E+02 -0.53456507096E+02  0.10473662137E+03  0.47000000000E+01 0.  1.
         11    1    4    4    0    0  0.26454479843E+02  0.40804038373E+02  0.25766926634E+02  0.55034021836E+02  0.00000000000E+00 0. -1.
        -12    1    4    4    0    0 -0.50408617188E+02  0.12902323005E+02  0.33405769673E+02  0.61834004182E+02  0.00000000000E+00 0.  1.
</event>
<event>
12    1  0.8462562E-002  0.1831491E+03  0.7818608E-02  0.1164868E+00
         21   -1    0    0  503  502  0.00000000000E+00  0.00000000000E+00  0.26616174911E+03  0.26616174911E+03  0.00000000000E+00 0.  1.
         21   -1    0    0  501  503 -0.00000000000E+00 -0.00000000000E+00 -0.13843114555E+03  0.13843114555E+03  0.00000000000E+00 0.  1.
          6    2    1    2  501    0 -0.38638183962E+02  0.48613763079E+02  0.28070315750E+01  0.18317064014E+03  0.17230030982E+03 0.  0.
         24    2    3    3    0    0 -0.17807374168E+02  0.15841950705E+02  0.67232386546E+02  0.10780068136E+03  0.80825262911E+02 0.  0.
         -6    2    1    2    0  502  0.38638183962E+02 -0.48613763079E+02  0.12492357199E+03  0.22142225453E+03  0.17194681952E+03 0.  0.
        -24    2    5    5    0    0 -0.16607061731E+02  0.25828768228E+02  0.75407496531E+02  0.11621931081E+03  0.82932007716E+02 0.  0.
          5    1    3    3  501    0 -0.20830809794E+02  0.32771812373E+02 -0.64425354971E+02  0.75369958777E+02  0.47000000000E+01 0. -1.
        -13    1    4    4    0    0 -0.21767105389E+01  0.16817447610E+02 -0.15876011077E+02  0.23229557477E+02  0.00000000000E+00 0.  1.
         14    1    4    4    0    0 -0.15630663629E+02 -0.97549690430E+00  0.83108397623E+02  0.84571123885E+02  0.00000000000E+00 0. -1.
         -5    1    5    5    0  502  0.55245245692E+02 -0.74442531307E+02  0.49516075454E+02  0.10520294372E+03  0.47000000000E+01 0.  1.
         11    1    6    6    0    0 -0.17038151173E+02  0.32336714418E+02  0.91675122406E+02  0.98692906345E+02  0.00000000000E+00 0. -1.
        -12    1    6    6    0    0  0.43108944200E+00 -0.65079461892E+01 -0.16267625875E+02  0.17526404461E+02  0.00000000000E+00 0.  1.
</event>
<event>
12    1  0.8462562E-002  0.2015945E+03  0.7818608E-02  0.1148425E+00
         21   -1    0    0  503  502  0.00000000000E+00  0.00000000000E+00  0.13859558035E+03  0.13859558035E+03  0.00000000000E+00 0. -1.
         21   -1    0    0  501  503 -0.00000000000E+00 -0.00000000000E+00 -0.34369279633E+03  0.34369279633E+03  0.00000000000E+00 0. -1.
          6    2    1    2  501    0 -0.66857277050E+02  0.81639570931E+02 -0.10018491873E+02  0.20184329962E+03  0.17177145394E+03 0.  0.
         24    2    3    3    0    0 -0.10970966746E+03  0.77096673718E+02  0.36618419006E+01  0.15638775198E+03  0.80396589803E+02 0.  0.
         -6    2    1    2    0  502  0.66857277050E+02 -0.81639570931E+02 -0.19507872410E+03  0.28044507706E+03  0.17163571194E+03 0.  0.
        -24    2    5    5    0    0  0.29130744774E+02 -0.10505335557E+03 -0.79757947530E+02  0.15678235811E+03  0.79590010767E+02 0.  0.
          5    1    3    3  501    0  0.42852390411E+02  0.45428972134E+01 -0.13680333774E+02  0.45455547639E+02  0.47000000000E+01 0. -1.
        -13    1    4    4    0    0 -0.24121966754E+02  0.48133775649E+02 -0.27949485066E+02  0.60662206964E+02  0.00000000000E+00 0.  1.
         14    1    4    4    0    0 -0.85587700707E+02  0.28962898069E+02  0.31611326966E+02  0.95725545021E+02  0.00000000000E+00 0. -1.
         -5    1    5    5    0  502  0.37726532276E+02  0.23413784636E+02 -0.11532077657E+03  0.12366271895E+03  0.47000000000E+01 0.  1.
         11    1    6    6    0    0  0.44550881013E+02 -0.39845296602E+02 -0.64743242517E+02  0.88114221962E+02  0.00000000000E+00 0. -1.
        -12    1    6    6    0    0 -0.15420136239E+02 -0.65208058965E+02 -0.15014705014E+02  0.68668136150E+02  0.00000000000E+00 0.  1.
</event>
<event>
12    1  0.8462562E-002  0.2014017E+03  0.7818608E-02  0.1148805E+00
         21   -1    0    0  503  502  0.00000000000E+00  0.00000000000E+00  0.29305414873E+03  0.29305414873E+03  0.00000000000E+00 0. -1.
         21   -1    0    0  501  503 -0.00000000000E+00 -0.00000000000E+00 -0.21225399179E+03  0.21225399179E+03  0.00000000000E+00 0. -1.
          6    2    1    2  501    0  0.10084821736E+03 -0.25607688964E+02 -0.10934657457E+03  0.22917092602E+03  0.17244281163E+03 0.  0.
         24    2    3    3    0    0  0.70652291731E+02 -0.25398616916E+02  0.52878625358E+01  0.11053289752E+03  0.80948896696E+02 0.  0.
         -6    2    1    2    0  502 -0.10084821736E+03  0.25607688964E+02  0.19014673150E+03  0.27613721450E+03  0.17108437991E+03 0.  0.
        -24    2    5    5    0    0 -0.13270339107E+03  0.13164169617E+02  0.11257234092E+03  0.19122862047E+03  0.78181634563E+02 0.  0.
          5    1    3    3  501    0  0.30195925629E+02 -0.20907204801E+00 -0.11463443711E+03  0.11863802850E+03  0.47000000000E+01 0. -1.
        -13    1    4    4    0    0  0.47940354226E+00 -0.25083687423E+02  0.27213773526E+02  0.37013655210E+02  0.00000000000E+00 0.  1.
         14    1    4    4    0    0  0.70172888188E+02 -0.31492949279E+00 -0.21925910991E+02  0.73519242311E+02  0.00000000000E+00 0. -1.
         -5    1    5    5    0  502  0.31855173710E+02  0.12443519347E+02  0.77574390582E+02  0.84908594029E+02  0.47000000000E+01 0.  1.
         11    1    6    6    0    0  0.28161664040E+01  0.14695597748E+02 -0.12849548265E+00  0.14963552301E+02  0.00000000000E+00 0. -1.
        -12    1    6    6    0    0 -0.13551955747E+03 -0.15314281314E+01  0.11270083640E+03  0.17626506817E+03  0.00000000000E+00 0.  1.
</event>
<event>
12    1  0.8462562E-002  0.2625771E+03  0.7818608E-02  0.1105738E+00
         21   -1    0    0  501  502  0.00000000000E+00  0.00000000000E+00  0.13024045080E+03  0.13024045080E+03  0.00000000000E+00 0. -1.
         21   -1    0    0  502  503 -0.00000000000E+00 -0.00000000000E+00 -0.60471260740E+03  0.60471260740E+03  0.00000000000E+00 0.  1.
         -6    2    1    2    0  503  0.34915179479E+02 -0.19376415955E+03 -0.10563328491E+03  0.28219611791E+03  0.17237354437E+03 0.  0.
        -24    2    3    3    0    0  0.12884038510E+02 -0.19783804974E+03 -0.12918105286E+03  0.24935475483E+03  0.78639411006E+02 0.  0.
          6    2    1    2  501    0 -0.34915179479E+02  0.19376415955E+03 -0.36883887170E+03  0.45275694029E+03  0.17373288237E+03 0.  0.
         24    2    5    5    0    0 -0.62760867242E+01  0.21454622283E+03 -0.32205616550E+03  0.39391135093E+03  0.73324672895E+02 0.  0.
          5    1    5    5  501    0 -0.28639092755E+02 -0.20782063282E+02 -0.46782706192E+02  0.58845589356E+02  0.47000000000E+01 0. -1.
        -13    1    6    6    0    0  0.20574033537E+02  0.76131212523E+02 -0.16483369701E+03  0.18272766634E+03  0.00000000000E+00 0.  1.
         14    1    6    6    0    0 -0.26850120262E+02  0.13841501031E+03 -0.15722246850E+03  0.21118368459E+03  0.00000000000E+00 0. -1.
         -5    1    3    3    0  503  0.22031140969E+02  0.40738901925E+01  0.23547767950E+02  0.32841363082E+02  0.47000000000E+01 0.  1.
         11    1    4    4    0    0  0.42642383824E+02 -0.10895513267E+03 -0.52449504155E+02  0.12822068601E+03  0.00000000000E+00 0. -1.
        -12    1    4    4    0    0 -0.29758345314E+02 -0.88882917070E+02 -0.76731548705E+02  0.12113406882E+03  0.00000000000E+00 0.  1.
</event>
<event>
12    1  0.8462562E-002  0.2116643E+03  0.7818608E-02  0.1140347E+00
         21   -1    0    0  503  502  0.00000000000E+00  0.00000000000E+00  0.17602549149E+03  0.17602549149E+03  0.00000000000E+00 0.  1.
         21   -1    0    0  501  503 -0.00000000000E+00 -0.00000000000E+00 -0.25462733772E+03  0.25462733772E+03  0.00000000000E+00 0.  1.
          6    2    1    2  501    0  0.11349582393E+03 -0.47266595069E+02 -0.50426358729E+02  0.21758811253E+03  0.17229723155E+03 0.  0.
         24    2    3    3    0    0  0.99312701745E+02 -0.68086939048E+02 -0.89983621054E+02  0.17045516565E+03  0.80368323631E+02 0.  0.
         -6    2    1    2    0  502 -0.11349582393E+03  0.47266595069E+02 -0.28175487499E+02  0.21306471668E+03  0.17171861383E+03 0.  0.
        -24    2    5    5    0    0 -0.25064703173E+02 -0.10519842168E+02 -0.53941446879E+02  0.10422855490E+03  0.84941188716E+02 0.  0.
          5    1    3    3  501    0  0.14183122189E+02  0.20820343979E+02  0.39557262325E+02  0.47132946875E+02  0.47000000000E+01 0. -1.
        -13    1    4    4    0    0  0.62763901367E+02 -0.24325712350E+02 -0.41898005365E+01  0.67443324538E+02  0.00000000000E+00 0.  1.
         14    1    4    4    0    0  0.36548800378E+02 -0.43761226697E+02 -0.85793820518E+02  0.10301184112E+03  0.00000000000E+00 0. -1.
         -5    1    5    5    0  502 -0.88431120761E+02  0.57786437237E+02  0.25765959380E+02  0.10883616178E+03  0.47000000000E+01 0.  1.
         13    1    6    6    0    0  0.27147438072E+02 -0.32467975833E+01  0.19351377998E+01  0.27409302193E+02  0.00000000000E+00 0. -1.
        -14    1    6    6    0    0 -0.52212141245E+02 -0.72730445847E+01 -0.55876584679E+02  0.76819252706E+02  0.00000000000E+00 0.  1.
</event>
<event>
12    1  0.8462562E-002  0.3255361E+03  0.7818608E-02  0.1073149E+00
         21   -1    0    0  503  502  0.00000000000E+00  0.00000000000E+00  0.31358639224E+03  0.31358639224E+03  0.00000000000E+00 0.  1.
         21   -1    0    0  501  503 -0.00000000000E+00 -0.00000000000E+00 -0.33863466503E+03  0.33863466503E+03  0.00000000000E+00 0. -1.
          6    2    1    2  501    0 -0.36525039040E+02 -0.27410805434E+03 -0.29097943043E+02  0.32683394434E+03  0.17176854470E+03 0.  0.
         24    2    3    3    0    0 -0.75521487151E+02 -0.11148165190E+03  0.88600775693E+00  0.15686572071E+03  0.80463753282E+02 0.  0.
         -6    2    1    2    0  502  0.36525039040E+02  0.27410805434E+03  0.40496702566E+01  0.32538711293E+03  0.17143823815E+03 0.  0.
        -24    2    5    5    0    0 -0.34725782699E+01  0.84637555362E+02 -0.45461106237E+02  0.12545640902E+03  0.80604117807E+02 0.  0.
          5    1    3    3  501    0  0.38996448111E+02 -0.16262640245E+03 -0.29983950800E+02  0.16996822363E+03  0.47000000000E+01 0. -1.
        -13    1    4    4    0    0  0.16415574620E+01 -0.17508310527E+02  0.27264154230E+02  0.32443331430E+02  0.00000000000E+00 0.  1.
         14    1    4    4    0    0 -0.77163044613E+02 -0.93973341371E+02 -0.26378146473E+02  0.12442238928E+03  0.00000000000E+00 0. -1.
         -5    1    5    5    0  502  0.39997617310E+02  0.18947049898E+03  0.49510776494E+02  0.19993070391E+03  0.47000000000E+01 0.  1.
         13    1    6    6    0    0 -0.26684465722E+02  0.83503716239E+02 -0.18019700639E+02  0.89496597409E+02  0.00000000000E+00 0. -1.
        -14    1    6    6    0    0  0.23211887452E+02  0.11338391231E+01 -0.27441405598E+02  0.35959811616E+02  0.00000000000E+00 0.  1.
</event>
<event>
12    1  0.8462562E-002  0.2254150E+03  0.7818608E-02  0.1130434E+00
         21   -1    0    0  503  502  0.00000000000E+00  0.00000000000E+00  0.21208552956E+03  0.21208552956E+03  0.00000000000E+00 0. -1.
         21   -1    0    0  501  503 -0.00000000000E+00 -0.00000000000E+00 -0.36855317230E+03  0.36855317230E+03  0.00000000000E+00 0. -1.
          6    2    1    2  501    0  0.13441018297E+03 -0.50805240585E+02 -0.25232007766E+03  0.33834501639E+03  0.17367975923E+03 0.  0.
         24    2    3    3    0    0  0.15200599255E+03 -0.78059370597E+02 -0.23631300820E+03  0.30186603079E+03  0.77975480699E+02 0.  0.
         -6    2    1    2    0  502 -0.13441018297E+03  0.50805240585E+02  0.95852434920E+02  0.24229368547E+03  0.16991548187E+03 0.  0.
        -24    2    5    5    0    0 -0.28254787871E+02 -0.28149617815E+02  0.25809459927E+02  0.92524042617E+02  0.79396701567E+02 0.  0.
          5    1    3    3  501    0 -0.17595809585E+02  0.27254130012E+02 -0.16007069467E+02  0.36478985602E+02  0.47000000000E+01 0. -1.
        -11    1    4    4    0    0  0.29733639209E+02 -0.16256690333E+02 -0.67872148105E+01  0.34560607143E+02  0.00000000000E+00 0.  1.
         12    1    4    4    0    0  0.12227235334E+03 -0.61802680264E+02 -0.22952579339E+03  0.26730542364E+03  0.00000000000E+00 0. -1.
         -5    1    5    5    0  502 -0.10615539510E+03  0.78954858400E+02  0.70042974993E+02  0.14976964285E+03  0.47000000000E+01 0.  1.
         13    1    6    6    0    0 -0.38363261181E+02 -0.50022944834E+02  0.26582814997E+02  0.68415501690E+02  0.00000000000E+00 0. -1.
        -14    1    6    6    0    0  0.10108473310E+02  0.21873327019E+02 -0.77335506964E+00  0.24108540927E+02  0.00000000000E+00 0.  1.
</event>
<event>
12    1  0.8462562E-002  0.2209867E+03  0.7818608E-02  0.1133295E+00
         21   -1    0    0  503  502  0.00000000000E+00  0.00000000000E+00  0.27531415605E+03  0.27531415605E+03  0.00000000000E+00 0.  1.
         21   -1    0    0  501  503 -0.00000000000E+00 -0.00000000000E+00 -0.21049580525E+03  0.21049580525E+03  0.00000000000E+00 0.  1.
          6    2    1    2  501    0 -0.10770591989E+03 -0.84232699432E+02 -0.64898085582E+02  0.22956496947E+03  0.17260533266E+03 0.  0.
         24    2    3    3    0    0 -0.75496141599E+02 -0.17849081087E+02 -0.98769046679E+02  0.14824100862E+03  0.78751602925E+02 0.  0.
         -6    2    1    2    0  502  0.10770591989E+03  0.84232699432E+02  0.12971643638E+03  0.25624499182E+03  0.17360711142E+03 0.  0.
        -24    2    5    5    0    0  0.70303343108E+02  0.11615182926E+03  0.55160956838E+02  0.16681125586E+03  0.79683476519E+02 0.  0.
          5    1    3    3  501    0 -0.32209778288E+02 -0.66383618345E+02  0.33870961097E+02  0.81323960845E+02  0.47000000000E+01 0. -1.
        -11    1    4    4    0    0 -0.83455755895E+02 -0.35752292280E+02 -0.84196164074E+02  0.12382279128E+03  0.00000000000E+00 0.  1.
         12    1    4    4    0    0  0.79596142958E+01  0.17903211193E+02 -0.14572882605E+02  0.24418217342E+02  0.00000000000E+00 0. -1.
         -5    1    5    5    0  502  0.37402576780E+02 -0.31919129826E+02  0.74555479544E+02  0.89433735965E+02  0.47000000000E+01 0.  1.
         11    1    6    6    0    0  0.61876383496E+02  0.10430892039E+03  0.12714904673E+02  0.12194550630E+03  0.00000000000E+00 0. -1.
        -12    1    6    6    0    0  0.84269596115E+01  0.11842908871E+02  0.42446052165E+02  0.44865749556E+02  0.00000000000E+00 0.  1.
</event>
<event>
12    1  0.8462562E-002  0.2962715E+03  0.7818608E-02  0.1088125E+00
         21   -1    0    0  501  502  0.00000000000E+00  0.00000000000E+00  0.22816451095E+03  0.22816451095E+03  0.00000000000E+00 0. -1.
         21   -1    0    0  502  503 -0.00000000000E+00 -0.00000000000E+00 -0.61033708072E+03  0.61033708072E+03  0.00000000000E+00 0. -1.
         -6    2    1    2    0  503 -0.23776635267E+03  0.21036909204E+01 -0.45004314067E+03  0.53455548951E+03  0.16332017305E+03 0.  0.
        -24    2    3    3    0    0 -0.66741410806E+02  0.12163319280E+02 -0.25039912637E+03  0.27143850164E+03  0.79854714529E+02 0.  0.
          6    2    1    2  501    0  0.23776635267E+03 -0.21036909204E+01  0.67870570909E+02  0.30394610216E+03  0.17674714890E+03 0.  0.
         24    2    5    5    0    0  0.99281424527E+02  0.13825110132E+02 -0.32139810541E+02  0.13231869053E+03  0.80170652454E+02 0.  0.
          5    1    5    5  501    0  0.13848492814E+03 -0.15928801052E+02  0.10001038145E+03  0.17162741163E+03  0.47000000000E+01 0. -1.
        -13    1    6    6    0    0  0.49759018438E+02  0.19441617322E+02  0.22849688138E+02  0.58103740396E+02  0.00000000000E+00 0.  1.
         14    1    6    6    0    0  0.49522406089E+02 -0.56165071906E+01 -0.54989498680E+02  0.74214950130E+02  0.00000000000E+00 0. -1.
         -5    1    3    3    0  503 -0.17102494186E+03 -0.10059628360E+02 -0.19964401430E+03  0.26311698787E+03  0.47000000000E+01 0.  1.
         11    1    4    4    0    0 -0.49134591640E+02 -0.18857024217E+02 -0.70167788343E+02  0.87711538459E+02  0.00000000000E+00 0. -1.
        -12    1    4    4    0    0 -0.17606819166E+02  0.31020343498E+02 -0.18023133803E+03  0.18372696318E+03  0.00000000000E+00 0.  1.
</event>
<event>
12    1  0.8462562E-002  0.1836445E+03  0.7818608E-02  0.1164601E+00
         21   -1    0    0  503  502  0.00000000000E+00  0.00000000000E+00  0.13742936303E+04  0.13742936303E+04  0.00000000000E+00 0. -1.
         21   -1    0    0  501  503 -0.00000000000E+00 -0.00000000000E+00 -0.85379959020E+02  0.85379959020E+02  0.00000000000E+00 0. -1.
          6    2    1    2  501    0  0.20673233686E+02 -0.58246439707E+02  0.26979497641E+02  0.18444688480E+03  0.17167623508E+03 0.  0.
         24    2    3    3    0    0  0.73440408574E+02 -0.11774498361E+02 -0.13032658784E+01  0.10851256588E+03  0.79000924225E+02 0.  0.
         -6    2    1    2    0  502 -0.20673233686E+02  0.58246439707E+02  0.12619341736E+04  0.12752267045E+04  0.17293137074E+03 0.  0.
        -24    2    5    5    0    0 -0.23284574226E+02  0.67809194802E+02  0.42743674288E+03  0.44065716437E+03  0.79600936285E+02 0.  0.
          5    1    3    3  501    0 -0.52767174888E+02 -0.46471941346E+02  0.28282763519E+02  0.75934318924E+02  0.47000000000E+01 0. -1.
        -13    1    4    4    0    0 -0.21928816724E+01  0.11585200750E+02  0.22882485177E+02  0.25741673107E+02  0.00000000000E+00 0.  1.
         14    1    4    4    0    0  0.75633290246E+02 -0.23359699111E+02 -0.24185751056E+02  0.82770892771E+02  0.00000000000E+00 0. -1.
         -5    1    5    5    0  502  0.26113405397E+01 -0.95627550948E+01  0.83449743073E+03  0.83456954011E+03  0.47000000000E+01 0.  1.
         13    1    6    6    0    0  0.14850587483E+02  0.28349971716E+02  0.30265058186E+03  0.30433802843E+03  0.00000000000E+00 0. -1.
        -14    1    6    6    0    0 -0.38135161708E+02  0.39459223086E+02  0.12478616101E+03  0.13631913595E+03  0.00000000000E+00 0.  1.
</event>
<event>
12    1  0.8462562E-002  0.2886743E+03  0.7818608E-02  0.1091080E+00
         21   -1    0    0  501  502  0.00000000000E+00  0.00000000000E+00  0.29669247829E+03  0.29669247829E+03  0.00000000000E+00 0. -1.
         21   -1    0    0  502  503 -0.00000000000E+00 -0.00000000000E+00 -0.30964054901E+03  0.30964054901E+03  0.00000000000E+00 0.  1.
         -6    2    1    2    0  503 -0.97248260556E+02 -0.21044850588E+03  0.86367305909E+02  0.30105213791E+03  0.17154381481E+03 0.  0.
        -24    2    3    3    0    0 -0.49315096439E+02 -0.11325495776E+03 -0.21617726491E+02  0.14799322363E+03  0.78587555928E+02 0.  0.
          6    2    1    2  501    0  0.97248260556E+02  0.21044850588E+03 -0.99315376631E+02  0.30528088939E+03  0.17200895205E+03 0.  0.
         24    2    5    5    0    0  0.25268691027E+02  0.13797403978E+03  0.20152528868E+01  0.16132397520E+03  0.79661918950E+02 0.  0.
          5    1    5    5  501    0  0.71979569529E+02  0.72474466100E+02 -0.10133062952E+03  0.14395691420E+03  0.47000000000E+01 0. -1.
        -13    1    6    6    0    0 -0.16063183341E+02  0.44025258435E+02 -0.27740601045E+02  0.54459068902E+02  0.00000000000E+00 0.  1.
         14    1    6    6    0    0  0.41331874368E+02  0.93948781341E+02  0.29755853932E+02  0.10686490630E+03  0.00000000000E+00 0. -1.
         -5    1    3    3    0  503 -0.47933164117E+02 -0.97193548115E+02  0.10798503240E+03  0.15305891428E+03  0.47000000000E+01 0.  1.
         11    1    4    4    0    0 -0.18535167812E+02  0.32575783323E+01  0.12686605173E+02  0.22696127715E+02  0.00000000000E+00 0. -1.
        -12    1    4    4    0    0 -0.30779928627E+02 -0.11651253609E+03 -0.34304331664E+02  0.12529709591E+03  0.00000000000E+00 0.  1.
</event>
<event>
12    1  0.8462562E-002  0.1773549E+03  0.7818608E-02  0.1170513E+00
         21   -1    0    0  503  502  0.00000000000E+00  0.00000000000E+00  0.13015600980E+04  0.13015600980E+04  0.00000000000E+00 0. -1.
         21   -1    0    0  501  503 -0.00000000000E+00 -0.00000000000E+00 -0.93980839631E+02  0.93980839631E+02  0.00000000000E+00 0. -1.
          6    2    1    2  501    0 -0.14032775705E+02  0.38164856431E+02  0.23134566948E+01  0.17736993881E+03  0.17263043779E+03 0.  0.
         24    2    3    3    0    0 -0.55269678962E+01  0.92076801650E+02 -0.58851011095E+00  0.12251232298E+03  0.80624054480E+02 0.  0.
         -6    2    1    2    0  502  0.14032775705E+02 -0.38164856431E+02  0.12052658017E+04  0.12181709988E+04  0.17210884527E+03 0.  0.
        -24    2    5    5    0    0  0.54794878011E+02  0.26259851081E+02  0.68619802258E+03  0.69351345221E+03  0.80007023233E+02 0.  0.
          5    1    3    3  501    0 -0.85058078089E+01 -0.53911945218E+02  0.29019668057E+01  0.54857615835E+02  0.47000000000E+01 0. -1.
        -11    1    4    4    0    0 -0.99894969479E+01  0.46616187637E+02  0.39364729190E+02  0.61825891852E+02  0.00000000000E+00 0.  1.
         12    1    4    4    0    0  0.44625290517E+01  0.45460614012E+02 -0.39953239301E+02  0.60686431124E+02  0.00000000000E+00 0. -1.
         -5    1    5    5    0  502 -0.40762102306E+02 -0.64424707512E+02  0.51906777908E+03  0.52465754659E+03  0.47000000000E+01 0.  1.
         13    1    6    6    0    0  0.58066688327E+02 -0.80200297497E+01  0.54646143143E+03  0.54959635844E+03  0.00000000000E+00 0. -1.
        -14    1    6    6    0    0 -0.32718103158E+01  0.34279880830E+02  0.13973659115E+03  0.14391709377E+03  0.00000000000E+00 0.  1.
</event>
<event>
12    1  0.8462562E-002  0.2351294E+03  0.7818608E-02  0.1123682E+00
         21   -1    0    0  503  502  0.00000000000E+00  0.00000000000E+00  0.12862047725E+04  0.12862047725E+04  0.00000000000E+00 0. -1.
         21   -1    0    0  501  503 -0.00000000000E+00 -0.00000000000E+00 -0.11253685352E+03  0.11253685352E+03  0.00000000000E+00 0. -1.
          6    2    1    2  501    0  0.51828474617E+02 -0.14578321804E+03  0.11375008507E+04  0.11608469389E+04  0.17239052404E+03 0.  0.
         24    2    3    3    0    0 -0.10977537850E+02 -0.14727167009E+03  0.78073579517E+03  0.79856223658E+03  0.79648055103E+02 0.  0.
         -6    2    1    2    0  502 -0.51828474617E+02  0.14578321804E+03  0.36167068232E+02  0.23789468707E+03  0.17705052350E+03 0.  0.
        -24    2    5    5    0    0  0.28650857215E+02  0.94942042870E+02 -0.18193202180E+02  0.12817287090E+03  0.79135511031E+02 0.  0.
          5    1    3    3  501    0  0.62806012468E+02  0.14884520574E+01  0.35676505556E+03  0.36228470236E+03  0.47000000000E+01 0. -1.
        -13    1    4    4    0    0 -0.10846852644E+02 -0.34896618824E+02  0.39789107603E+03  0.39956568496E+03  0.00000000000E+00 0.  1.
         14    1    4    4    0    0 -0.13068520581E+00 -0.11237505127E+03  0.38284471914E+03  0.39899655161E+03  0.00000000000E+00 0. -1.
         -5    1    5    5    0  502 -0.80479331833E+02  0.50841175167E+02  0.54360270412E+02  0.10972181617E+03  0.47000000000E+01 0.  1.
         11    1    6    6    0    0  0.11549497876E+02  0.91646690169E+02  0.12169621970E+02  0.93169772024E+02  0.00000000000E+00 0. -1.
        -12    1    6    6    0    0  0.17101359340E+02  0.32953527011E+01 -0.30362824150E+02  0.35003098878E+02  0.00000000000E+00 0.  1.
</event>
<event>
12    1  0.8462562E-002  0.1899329E+03  0.7818608E-02  0.1159130E+00
         21   -1    0    0  501  502  0.00000000000E+00  0.00000000000E+00  0.15471711541E+04  0.15471711541E+04  0.00000000000E+00 0. -1.
         21   -1    0    0  502  503 -0.00000000000E+00 -0.00000000000E+00 -0.55115204014E+02  0.55115204014E+02  0.00000000000E+00 0. -1.
         -6    2    1    2    0  503  0.43452506293E+02  0.19987179196E+02  0.13218000920E+03  0.22921058836E+03  0.18104787032E+03 0.  0.
        -24    2    3    3    0    0  0.33365527036E+02  0.50292693499E+02  0.15827764921E+03  0.18769735960E+03  0.80844734833E+02 0.  0.
          6    2    1    2  501    0 -0.43452506293E+02 -0.19987179196E+02  0.13598759409E+04  0.13730757697E+04  0.18381209767E+03 0.  0.
         24    2    5    5    0    0 -0.89174809244E+02 -0.30551123605E+02  0.11966269952E+04  0.12031509800E+04  0.82283639008E+02 0.  0.
          5    1    5    5  501    0  0.45722302951E+02  0.10563944409E+02  0.16324894563E+03  0.16992478971E+03  0.47000000000E+01 0. -1.
        -13    1    6    6    0    0 -0.19207501570E+02  0.93026587573E+00  0.44563468802E+02  0.48535515479E+02  0.00000000000E+00 0.  1.
         14    1    6    6    0    0 -0.69967307674E+02 -0.31481389481E+02  0.11520635264E+04  0.11546154645E+04  0.00000000000E+00 0. -1.
         -5    1    3    3    0  503  0.10086979257E+02 -0.30305514304E+02 -0.26097640007E+02  0.41513228755E+02  0.47000000000E+01 0.  1.
         11    1    4    4    0    0  0.23046442982E+02  0.24834286514E+02  0.78445338226E+01  0.34776673672E+02  0.00000000000E+00 0. -1.
        -12    1    4    4    0    0  0.10319084055E+02  0.25458406985E+02  0.15043311538E+03  0.15292068593E+03  0.00000000000E+00 0.  1.
</event>
<event>
12    1  0.8462562E-002  0.1777627E+03  0.7818608E-02  0.1170088E+00
         21   -1    0    0  503  502  0.00000000000E+00  0.00000000000E+00  0.23625391380E+03  0.23625391380E+03  0.00000000000E+00 0. -1.
         21   -1    0    0  501  503 -0.00000000000E+00 -0.00000000000E+00 -0.19891519715E+03  0.19891519715E+03  0.00000000000E+00 0. -1.
          6    2    1    2  501    0  0.23590825193E+02  0.37490514284E+02 -0.10617700356E+03  0.20670391560E+03  0.17172910919E+03 0.  0.
         24    2    3    3    0    0 -0.52711782307E+02  0.18610281735E+02 -0.57360960682E+02  0.11405594133E+03  0.81201005923E+02 0.  0.
         -6    2    1    2    0  502 -0.23590825193E+02 -0.37490514284E+02  0.14351572021E+03  0.22846519536E+03  0.17215550484E+03 0.  0.
        -24    2    5    5    0    0 -0.61513371766E+02  0.77937797548E+01  0.13477390120E+03  0.16857115371E+03  0.80047432878E+02 0.  0.
          5    1    3    3  501    0  0.76302607501E+02  0.18880232549E+02 -0.48816042881E+02  0.92647974263E+02  0.47000000000E+01 0. -1.
        -11    1    4    4    0    0 -0.45089253976E+01  0.25546909240E+02 -0.59914610164E+02  0.65289627744E+02  0.00000000000E+00 0.  1.
         12    1    4    4    0    0 -0.48202856910E+02 -0.69366275048E+01  0.25536494820E+01  0.48766313589E+02  0.00000000000E+00 0. -1.
         -5    1    5    5    0  502  0.37922546573E+02 -0.45284294038E+02  0.87418190109E+01  0.59894041647E+02  0.47000000000E+01 0.  1.
         13    1    6    6    0    0 -0.47872274758E+02  0.16449320583E+02  0.22937577816E+02  0.55573980550E+02  0.00000000000E+00 0. -1.
        -14    1    6    6    0    0 -0.13641097009E+02 -0.86555408280E+01  0.11183632338E+03  0.11299717316E+03  0.00000000000E+00 0.  1.
</event>
<event>
12    1  0.8462562E-002  0.2032835E+03  0.7818608E-02  0.1147821E+00
         21   -1    0    0  501  502  0.00000000000E+00  0.00000000000E+00  0.10497082141E+03  0.10497082141E+03  0.00000000000E+00 0. -1.
         21   -1    0    0  502  503 -0.00000000000E+00 -0.00000000000E+00 -0.66233746882E+03  0.66233746882E+03  0.00000000000E+00 0.  1.
         -6    2    1    2    0  503 -0.10305467012E+03  0.31261537360E+02 -0.52804760746E+03  0.56582547433E+03  0.17241416098E+03 0.  0.
        -24    2    3    3    0    0 -0.79772866827E+02  0.76241194725E+02 -0.26972956926E+03  0.30254708403E+03  0.81266644241E+02 0.  0.
          6    2    1    2  501    0  0.10305467012E+03 -0.31261537360E+02 -0.29319039956E+02  0.20148281591E+03  0.16774435981E+03 0.  0.
         24    2    5    5    0    0  0.57571661037E+02 -0.50949750276E+02 -0.75248108255E+02  0.13374878341E+03  0.79473807382E+02 0.  0.
          5    1    5    5  501    0  0.45483009085E+02  0.19688212916E+02  0.45929068300E+02  0.67734032496E+02  0.47000000000E+01 0. -1.
        -11    1    6    6    0    0  0.50998976054E+01 -0.16988138224E+02 -0.68642713479E+02  0.70897305376E+02  0.00000000000E+00 0.  1.
         12    1    6    6    0    0  0.52471763431E+02 -0.33961612052E+02 -0.66053947766E+01  0.62851478033E+02  0.00000000000E+00 0. -1.
         -5    1    3    3    0  503 -0.23281803296E+02 -0.44979657365E+02 -0.25831803820E+03  0.26327839030E+03  0.47000000000E+01 0.  1.
         11    1    4    4    0    0 -0.61725516713E+01  0.51345280119E+02 -0.61848115478E+02  0.80620267754E+02  0.00000000000E+00 0. -1.
        -12    1    4    4    0    0 -0.73600315155E+02  0.24895914606E+02 -0.20788145378E+03  0.22192681627E+03  0.00000000000E+00 0.  1.
</event>
<event>
12    1  0.8462562E-002  0.2373954E+03  0.7818608E-02  0.1122733E+00
         21   -1    0    0  501  502  0.00000000000E+00  0.00000000000E+00  0.20779581468E+03  0.20779581468E+03  0.00000000000E+00 0. -1.
         21   -1    0    0  502  503 -0.00000000000E+00 -0.00000000000E+00 -0.73573497236E+03  0.73573497236E+03  0.00000000000E+00 0. -1.
         -6    2    1    2    0  503 -0.78395353003E+02  0.12740338717E+03 -0.64057768083E+03  0.68076848311E+03  0.17529548765E+03 0.  0.
        -24    2    3    3    0    0 -0.11577583573E+03  0.11968834747E+03 -0.58456013140E+03  0.61282086969E+03  0.78163459745E+02 0.  0.
          6    2    1    2  501    0  0.78395353003E+02 -0.12740338717E+03  0.11263852315E+03  0.26276230393E+03  0.18433430782E+03 0.  0.
         24    2    5    5    0    0  0.23910983052E+01 -0.11404244570E+03  0.19156943222E+02  0.14145254639E+03  0.81427499262E+02 0.  0.
          5    1    5    5  501    0  0.76004254698E+02 -0.13360941471E+02  0.93481579927E+02  0.12130975754E+03  0.47000000000E+01 0. -1.
        -13    1    6    6    0    0  0.24555775321E+01 -0.59134523547E+02 -0.31238394327E+02  0.66923531110E+02  0.00000000000E+00 0.  1.
         14    1    6    6    0    0 -0.64479226847E-01 -0.54907922150E+02  0.50395337550E+02  0.74529015283E+02  0.00000000000E+00 0. -1.
         -5    1    3    3    0  503  0.37380482731E+02  0.77150396997E+01 -0.56017549428E+02  0.67947613429E+02  0.47000000000E+01 0.  1.
         13    1    4    4    0    0 -0.50955098713E+02  0.13311249551E+02 -0.10668144825E+03  0.11897286602E+03  0.00000000000E+00 0. -1.
        -14    1    4    4    0    0 -0.64820737020E+02  0.10637709792E+03 -0.47787868316E+03  0.49384800366E+03  0.00000000000E+00 0.  1.
</event>
<event>
12    1  0.8462562E-002  0.2918988E+03  0.7818608E-02  0.1089693E+00
         21   -1    0    0  503  502  0.00000000000E+00  0.00000000000E+00  0.58979735048E+02  0.58979735048E+02  0.00000000000E+00 0. -1.
         21   -1    0    0  501  503 -0.00000000000E+00 -0.00000000000E+00 -0.14336620967E+04  0.14336620967E+04  0.00000000000E+00 0. -1.
          6    2    1    2  501    0  0.23184673709E+03  0.18390480991E+02 -0.66541447611E+03  0.72662325146E+03  0.17639105776E+03 0.  0.
         24    2    3    3    0    0  0.60137472346E+02  0.21124138426E+02 -0.13592068892E+03  0.16995700931E+03  0.79675633239E+02 0.  0.
         -6    2    1    2    0  502 -0.23184673709E+03 -0.18390480991E+02 -0.70926788557E+03  0.76601858031E+03  0.17214067677E+03 0.  0.
        -24    2    5    5    0    0 -0.38774594749E+02  0.25808852876E+02 -0.20463378769E+03  0.22388566672E+03  0.77975884817E+02 0.  0.
          5    1    3    3  501    0  0.17170926474E+03 -0.27336574354E+01 -0.52949378719E+03  0.55666624215E+03  0.47000000000E+01 0. -1.
        -13    1    4    4    0    0  0.77527842987E+01  0.16074086060E+02 -0.10973153370E+03  0.11117324946E+03  0.00000000000E+00 0.  1.
         14    1    4    4    0    0  0.52384688047E+02  0.50500523658E+01 -0.26189155218E+02  0.58783759847E+02  0.00000000000E+00 0. -1.
         -5    1    5    5    0  502 -0.19307214234E+03 -0.44199333866E+02 -0.50463409788E+03  0.54213291360E+03  0.47000000000E+01 0.  1.
         11    1    6    6    0    0 -0.46161771797E+02  0.37683561053E+02 -0.20069761322E+03  0.20935733066E+03  0.00000000000E+00 0. -1.
        -12    1    6    6    0    0  0.73871770484E+01 -0.11874708178E+02 -0.39361744642E+01  0.14528336053E+02  0.00000000000E+00 0.  1.
</event>
<event>
12    1  0.8462562E-002  0.1966450E+03  0.7818608E-02  0.1153265E+00
         21   -1    0    0  501  502  0.00000000000E+00  0.00000000000E+00  0.11203269497E+03  0.11203269497E+03  0.00000000000E+00 0. -1.
         21   -1    0    0  502  503 -0.00000000000E+00 -0.00000000000E+00 -0.37447216924E+03  0.37447216924E+03  0.00000000000E+00 0. -1.
         -6    2    1    2    0  503 -0.80389754842E+02  0.45430453531E+02 -0.20614839517E+03  0.28489718169E+03  0.17361683247E+03 0.  0.
        -24    2    3    3    0    0 -0.73452900761E+02  0.25270709273E+02 -0.22785595578E+03  0.25411011589E+03  0.81361397716E+02 0.  0.
          6    2    1    2  501    0  0.80389754842E+02 -0.45430453531E+02 -0.56291079104E+02  0.20160768252E+03  0.17014856236E+03 0.  0.
         24    2    5    5    0    0  0.82549818463E+02 -0.69134123957E+02  0.64572779237E+01  0.13433230681E+03  0.80059181811E+02 0.  0.
          5    1    5    5  501    0 -0.21600636213E+01  0.23703670426E+02 -0.62748357028E+02  0.67275375705E+02  0.47000000000E+01 0. -1.
        -13    1    6    6    0    0 -0.18453814767E+00 -0.44407171574E+02  0.16555970177E+02  0.47393365464E+02  0.00000000000E+00 0.  1.
         14    1    6    6    0    0  0.82734356611E+02 -0.24726952384E+02 -0.10098692253E+02  0.86938941351E+02  0.00000000000E+00 0. -1.
         -5    1    3    3    0  503 -0.69368540805E+01  0.20159744258E+02  0.21707560609E+02  0.30787065802E+02  0.47000000000E+01 0.  1.
         13    1    4    4    0    0 -0.70378069950E+02 -0.84804176541E+01 -0.19248665159E+03  0.20512459934E+03  0.00000000000E+00 0. -1.
        -14    1    4    4    0    0 -0.30748308116E+01  0.33751126927E+02 -0.35369304189E+02  0.48985516555E+02  0.00000000000E+00 0.  1.
</event>
<event>
12    1  0.8462562E-002  0.1768923E+03  0.7818608E-02  0.1171066E+00
         21   -1    0    0  501  502  0.00000000000E+00  0.00000000000E+00  0.40651421943E+03  0.40651421943E+03  0.00000000000E+00 0. -1.
         21   -1    0    0  502  503 -0.00000000000E+00 -0.00000000000E+00 -0.12458698522E+03  0.12458698522E+03  0.00000000000E+00 0. -1.
         -6    2    1    2    0  503  0.37527585871E+02  0.53374851560E+01 -0.24081369538E+02  0.17764379155E+03  0.17187377889E+03 0.  0.
        -24    2    3    3    0    0  0.88061058525E+02  0.27526494196E+02 -0.13543485555E+02  0.12126009728E+03  0.77512110545E+02 0.  0.
          6    2    1    2  501    0 -0.37527585871E+02 -0.53374851560E+01  0.30600860375E+03  0.35345741310E+03  0.17278330028E+03 0.  0.
         24    2    5    5    0    0 -0.10731883465E+02 -0.68893933669E+02  0.15146891693E+03  0.18415875210E+03  0.78166909614E+02 0.  0.
          5    1    5    5  501    0 -0.26795702406E+02  0.63556448513E+02  0.15453968682E+03  0.16929866100E+03  0.47000000000E+01 0. -1.
        -11    1    6    6    0    0  0.21279573271E+02 -0.12555543499E+02  0.67769752052E+01  0.25620095708E+02  0.00000000000E+00 0.  1.
         12    1    6    6    0    0 -0.32011456736E+02 -0.56338390170E+02  0.14469194173E+03  0.15853865639E+03  0.00000000000E+00 0. -1.
         -5    1    3    3    0  503 -0.50533472654E+02 -0.22189009040E+02 -0.10537883983E+02  0.56383694269E+02  0.47000000000E+01 0.  1.
         11    1    4    4    0    0  0.58648751084E+02  0.24424877701E+02  0.28683129122E+02  0.69706330779E+02  0.00000000000E+00 0. -1.
        -12    1    4    4    0    0  0.29412307441E+02  0.31016164946E+01 -0.42226614676E+02  0.51553766505E+02  0.00000000000E+00 0.  1.
</event>
<event>
12    1  0.8462562E-002  0.2902278E+03  0.7818608E-02  0.1090298E+00
         21   -1    0    0  501  502  0.00000000000E+00  0.00000000000E+00  0.17475806651E+03  0.17475806651E+03  0.00000000000E+00 0. -1.
         21   -1    0    0  502  503 -0.00000000000E+00 -0.00000000000E+00 -0.57930700325E+03  0.57930700325E+03  0.00000000000E+00 0. -1.
         -6    2    1    2    0  503  0.19278836353E+03 -0.13193051981E+03 -0.35733945584E+03  0.46002273214E+03  0.17133713030E+03 0.  0.
        -24    2    3    3    0    0  0.17093867329E+03 -0.16457103844E+03 -0.30239931264E+03  0.39232249762E+03  0.78536240889E+02 0.  0.
          6    2    1    2  501    0 -0.19278836353E+03  0.13193051981E+03 -0.47209480909E+02  0.29404233762E+03  0.17221830929E+03 0.  0.
         24    2    5    5    0    0 -0.57528184367E+02  0.72125731898E+02 -0.76609612739E+02  0.14318350799E+03  0.78235995546E+02 0.  0.
          5    1    5    5  501    0 -0.13526017916E+03  0.59804787915E+02  0.29400131829E+02  0.15085882962E+03  0.47000000000E+01 0. -1.
        -13    1    6    6    0    0  0.12573197939E+02  0.27289465639E+02  0.41877659573E-01  0.30046663625E+02  0.00000000000E+00 0.  1.
         14    1    6    6    0    0 -0.70101382307E+02  0.44836266259E+02 -0.76651490398E+02  0.11313684437E+03  0.00000000000E+00 0. -1.
         -5    1    3    3    0  503  0.21849690235E+02  0.32640518629E+02 -0.54940143200E+02  0.67700234524E+02  0.47000000000E+01 0.  1.
         11    1    4    4    0    0  0.61519838542E+02 -0.56567042277E+02 -0.51814094287E+02  0.98332198048E+02  0.00000000000E+00 0. -1.
        -12    1    4    4    0    0  0.10941883475E+03 -0.10800399617E+03 -0.25058521835E+03  0.29399029957E+03  0.00000000000E+00 0.  1.
</event>
<event>
12    1  0.8462562E-002  0.1946016E+03  0.7818608E-02  0.1155260E+00
         21   -1    0    0  501  502  0.00000000000E+00  0.00000000000E+00  0.12688899761E+03  0.12688899761E+03  0.00000000000E+00 0.  1.
         21   -1    0    0  502  503 -0.00000000000E+00 -0.00000000000E+00 -0.29234332986E+03  0.29234332986E+03  0.00000000000E+00 0. -1.
         -6    2    1    2    0  503  0.83002382959E+02 -0.20623996090E+02 -0.81988088383E+02  0.20748625268E+03  0.17033424089E+03 0.  0.
        -24    2    3    3    0    0  0.48133197843E+02  0.19596180263E+02  0.15342174366E+02  0.96451155957E+02  0.79791153367E+02 0.  0.
          6    2    1    2  501    0 -0.83002382959E+02  0.20623996090E+02 -0.83466243864E+02  0.21174607480E+03  0.17480000439E+03 0.  0.
         24    2    5    5    0    0 -0.38552273716E+02  0.41547544499E+02  0.19093834920E+02  0.97929262113E+02  0.77544113790E+02 0.  0.
          5    1    5    5  501    0 -0.44450109242E+02 -0.20923548408E+02 -0.10256007878E+03  0.11381681269E+03  0.47000000000E+01 0. -1.
        -13    1    6    6    0    0  0.16482697839E+02  0.32161494703E+01 -0.15156475085E+02  0.22621708213E+02  0.00000000000E+00 0.  1.
         14    1    6    6    0    0 -0.55034971556E+02  0.38331395028E+02  0.34250310005E+02  0.75307553900E+02  0.00000000000E+00 0. -1.
         -5    1    3    3    0  503  0.34869185116E+02 -0.40220176353E+02 -0.97330262749E+02  0.11103509672E+03  0.47000000000E+01 0.  1.
         13    1    4    4    0    0  0.24616494382E+02  0.49172758982E+02 -0.16611934918E+01  0.55015375900E+02  0.00000000000E+00 0. -1.
        -14    1    4    4    0    0  0.23516703461E+02 -0.29576578719E+02  0.17003367858E+02  0.41435780057E+02  0.00000000000E+00 0.  1.
</event>
<event>
12    1  0.8462562E-002  0.2335291E+03  0.7818608E-02  0.1125306E+00
         21   -1    0    0  503  502  0.00000000000E+00  0.00000000000E+00  0.44573064736E+03  0.44573064736E+03  0.00000000000E+00 0.  1.
         21   -1    0    0  501  503 -0.00000000000E+00 -0.00000000000E+00 -0.12099870456E+03  0.12099870456E+03  0.00000000000E+00 0. -1.
          6    2    1    2  501    0  0.14042689141E+03 -0.69549854162E+02  0.12377230740E+03  0.25863746217E+03  0.16436805868E+03 0.  0.
         24    2    3    3    0    0  0.13268071976E+03 -0.10021640482E+03  0.12911082527E+03  0.22621786505E+03  0.82809516815E+02 0.  0.
         -6    2    1    2    0  502 -0.14042689141E+03  0.69549854162E+02  0.20095963541E+03  0.30809188976E+03  0.17314428499E+03 0.  0.
        -24    2    5    5    0    0 -0.13782222975E+02  0.13324953558E+02  0.11334680349E+03  0.14408515267E+03  0.86865006204E+02 0.  0.
          5    1    3    3  501    0  0.77461716490E+01  0.30666550654E+02 -0.53385178758E+01  0.32419597119E+02  0.47000000000E+01 0. -1.
        -13    1    4    4    0    0  0.21762235402E+02 -0.66144865109E+02  0.45055496676E+02  0.82938144727E+02  0.00000000000E+00 0.  1.
         14    1    4    4    0    0  0.11091848436E+03 -0.34071539706E+02  0.84055328595E+02  0.14327972033E+03  0.00000000000E+00 0. -1.
         -5    1    5    5    0  502 -0.12664466844E+03  0.56224900604E+02  0.87612831920E+02  0.16400673708E+03  0.47000000000E+01 0.  1.
         13    1    6    6    0    0  0.16970374212E+01  0.37389650513E+02  0.12815811050E+02  0.39561482711E+02  0.00000000000E+00 0. -1.
        -14    1    6    6    0    0 -0.15479260396E+02 -0.24064696955E+02  0.10053099244E+03  0.10452366996E+03  0.00000000000E+00 0.  1.
</event>
<event>
12    1  0.8462562E-002  0.1801960E+03  0.7818608E-02  0.1167790E+00
         21   -1    0    0  501  502  0.00000000000E+00  0.00000000000E+00  0.20554600235E+03  0.20554600235E+03  0.00000000000E+00 0.  1.
         21   -1    0    0  502  503 -0.00000000000E+00 -0.00000000000E+00 -0.20815381068E+03  0.20815381068E+03  0.00000000000E+00 0.  1.
         -6    2    1    2    0  503  0.33196196784E+02  0.39325448636E+02 -0.10351387504E+03  0.20781171442E+03  0.17269078705E+03 0.  0.
        -24    2    3    3    0    0 -0.18318433536E+02  0.16724702760E+02  0.60265373948E+01  0.84581268471E+02  0.80637405301E+02 0.  0.
          6    2    1    2  501    0 -0.33196196784E+02 -0.39325448636E+02  0.10090606671E+03  0.20588809860E+03  0.17192846319E+03 0.  0.
         24    2    5    5    0    0 -0.58454824839E+01 -0.81389976484E+02  0.80649076424E+02  0.15157491667E+03  0.99056468236E+02 0.  0.
          5    1    5    5  501    0 -0.27350714300E+02  0.42064527848E+02  0.20256990287E+02  0.54313181930E+02  0.47000000000E+01 0. -1.
        -11    1    6    6    0    0  0.94268965581E+01 -0.50984235308E+02  0.99847341993E+02  0.11250666794E+03  0.00000000000E+00 0.  1.
         12    1    6    6    0    0 -0.15272379042E+02 -0.30405741177E+02 -0.19198265569E+02  0.39068248732E+02  0.00000000000E+00 0. -1.
         -5    1    3    3    0  503  0.51514630320E+02  0.22600745876E+02 -0.10954041244E+03  0.12323044595E+03  0.47000000000E+01 0.  1.
         13    1    4    4    0    0  0.19494235721E+02 -0.14571877787E+02  0.22157924222E+02  0.32914107225E+02  0.00000000000E+00 0. -1.
        -14    1    4    4    0    0 -0.37812669257E+02  0.31296580547E+02 -0.16131386827E+02  0.51667161246E+02  0.00000000000E+00 0.  1.
</event>
<event>
12    1  0.8462562E-002  0.1782752E+03  0.7818608E-02  0.1170186E+00
         21   -1    0    0  503  502  0.00000000000E+00  0.00000000000E+00  0.41937960418E+03  0.41937960418E+03  0.00000000000E+00 0. -1.
         21   -1    0    0  501  503 -0.00000000000E+00 -0.00000000000E+00 -0.78126841737E+02  0.78126841737E+02  0.00000000000E+00 0. -1.
          6    2    1    2  501    0  0.13297429815E+02  0.37493239376E+02  0.11892610255E+03  0.21430231268E+03  0.17378002968E+03 0.  0.
         24    2    3    3    0    0 -0.25578754544E+02  0.33897583623E+01 -0.65688630745E+01  0.78488169366E+02  0.73834135889E+02 0.  0.
         -6    2    1    2    0  502 -0.13297429815E+02 -0.37493239376E+02  0.22232665989E+03  0.28320413324E+03  0.17085921908E+03 0.  0.
        -24    2    5    5    0    0 -0.22649043807E+02  0.31611482096E+02  0.18295974507E+03  0.20298718243E+03  0.78849622251E+02 0.  0.
          5    1    3    3  501    0  0.38876184359E+02  0.34103481013E+02  0.12549496563E+03  0.13581414332E+03  0.47000000000E+01 0. -1.
        -11    1    4    4    0    0 -0.11119957961E+02  0.34067901391E+02  0.14392146151E+02  0.38618767990E+02  0.00000000000E+00 0.  1.
         12    1    4    4    0    0 -0.14458796583E+02 -0.30678143028E+02 -0.20961009226E+02  0.39869401376E+02  0.00000000000E+00 0. -1.
         -5    1    5    5    0  502  0.93516139919E+01 -0.69104721472E+02  0.39366914827E+02  0.80216950809E+02  0.47000000000E+01 0.  1.
         13    1    6    6    0    0 -0.49279361959E+02  0.34048175975E+02  0.10950554360E+03  0.12481665707E+03  0.00000000000E+00 0. -1.
        -14    1    6    6    0    0  0.26630318152E+02 -0.24366938789E+01  0.73454201465E+02  0.78170525358E+02  0.00000000000E+00 0.  1.
</event>
<event>
12    1  0.8462562E-002  0.3152284E+03  0.7818608E-02  0.1078070E+00
         21   -1    0    0  501  502  0.00000000000E+00  0.00000000000E+00  0.15698641894E+03  0.15698641894E+03  0.00000000000E+00 0.  1.
         21   -1    0    0  502  503 -0.00000000000E+00 -0.00000000000E+00 -0.63456832568E+03  0.63456832568E+03  0.00000000000E+00 0. -1.
         -6    2    1    2    0  503 -0.10936362834E+03 -0.23788346711E+03 -0.27475881904E+03  0.41816427115E+03  0.17555626418E+03 0.  0.
        -24    2    3    3    0    0 -0.10798741771E+03 -0.93337244242E+02 -0.18876484606E+03  0.24990091242E+03  0.80281849590E+02 0.  0.
          6    2    1    2  501    0  0.10936362834E+03  0.23788346711E+03 -0.20282308771E+03  0.37339047348E+03  0.17243634666E+03 0.  0.
         24    2    5    5    0    0  0.70644559639E+02  0.13424862850E+03 -0.19789123560E+03  0.26254932940E+03  0.82206211316E+02 0.  0.
          5    1    5    5  501    0  0.38719068703E+02  0.10363483861E+03 -0.49318521033E+01  0.11084114408E+03  0.47000000000E+01 0. -1.
        -13    1    6    6    0    0  0.37355816081E+01 -0.10491580436E+02 -0.24906404638E+02  0.27282903474E+02  0.00000000000E+00 0.  1.
         14    1    6    6    0    0  0.66908978030E+02  0.14474020893E+03 -0.17298483096E+03  0.23526642592E+03  0.00000000000E+00 0. -1.
         -5    1    3    3    0  503 -0.13762106327E+01 -0.14454622287E+03 -0.85993972979E+02  0.16826335872E+03  0.47000000000E+01 0.  1.
         11    1    4    4    0    0  0.52507777033E+01  0.23918083563E+01 -0.38005323590E+02  0.38440812100E+02  0.00000000000E+00 0. -1.
        -12    1    4    4    0    0 -0.11323819541E+03 -0.95729052598E+02 -0.15075952247E+03  0.21146010032E+03  0.00000000000E+00 0.  1.
</event>
<event>
12    1  0.8462562E-002  0.3168128E+03  0.7818608E-02  0.1077145E+00
         21   -1    0    0  503  502  0.00000000000E+00  0.00000000000E+00  0.16320411870E+04  0.16320411870E+04  0.00000000000E+00 0. -1.
         21   -1    0    0  501  503 -0.00000000000E+00 -0.00000000000E+00 -0.92636582473E+02  0.92636582473E+02  0.00000000000E+00 0. -1.
          6    2    1    2  501    0  0.19542525529E+03 -0.18075054369E+03  0.12697729359E+04  0.13086590553E+04  0.17147426888E+03 0.  0.
         24    2    3    3    0    0  0.16501491705E+03 -0.20067171943E+03  0.10012300191E+04  0.10376257915E+04  0.81894262860E+02 0.  0.
         -6    2    1    2    0  502 -0.19542525529E+03  0.18075054369E+03  0.26963166863E+03  0.41601871415E+03  0.17178051213E+03 0.  0.
        -24    2    5    5    0    0 -0.16613248997E+03  0.13446167477E+03  0.12287780467E+03  0.25930396669E+03  0.80371923284E+02 0.  0.
          5    1    3    3  501    0  0.30410338241E+02  0.19921175746E+02  0.26854291678E+03  0.27103326377E+03  0.47000000000E+01 0. -1.
        -11    1    4    4    0    0  0.77576463004E+02 -0.94909710033E+02  0.31920456245E+03  0.34193203033E+03  0.00000000000E+00 0.  1.
         12    1    4    4    0    0  0.87438454047E+02 -0.10576200940E+03  0.68202545663E+03  0.69569376120E+03  0.00000000000E+00 0. -1.
         -5    1    5    5    0  502 -0.29292765317E+02  0.46288868913E+02  0.14675386396E+03  0.15671474747E+03  0.47000000000E+01 0.  1.
         13    1    6    6    0    0 -0.64474906802E+02  0.95866416551E+02  0.38867486641E+02  0.12189366246E+03  0.00000000000E+00 0. -1.
        -14    1    6    6    0    0 -0.10165758317E+03  0.38595258222E+02  0.84010318031E+02  0.13741030423E+03  0.00000000000E+00 0.  1.
</event>
<event>
12    1  0.8462562E-002  0.1826455E+03  0.7818608E-02  0.1165527E+00
         21   -1    0    0  501  502  0.00000000000E+00  0.00000000000E+00  0.29681061850E+02  0.29681061850E+02  0.00000000000E+00 0.  1.
         21   -1    0    0  502  503 -0.00000000000E+00 -0.00000000000E+00 -0.15256368119E+04  0.15256368119E+04  0.00000000000E+00 0.  1.
         -6    2    1    2    0  503 -0.25249503331E+02 -0.52799742848E+02 -0.11486981688E+04  0.11629568035E+04  0.17185951724E+03 0.  0.
        -24    2    3    3    0    0 -0.21793856597E+02 -0.46924460866E+01 -0.26529394484E+03  0.27822443362E+03  0.80814398841E+02 0.  0.
          6    2    1    2  501    0  0.25249503331E+02  0.52799742848E+02 -0.34725758132E+03  0.39236107027E+03  0.17301454104E+03 0.  0.
         24    2    5    5    0    0 -0.45585499737E+02  0.29361072287E+02 -0.15072643756E+03  0.18209088834E+03  0.86594008373E+02 0.  0.
          5    1    5    5  501    0  0.70835003068E+02  0.23438670561E+02 -0.19653114377E+03  0.21027018193E+03  0.47000000000E+01 0. -1.
        -13    1    6    6    0    0 -0.21239579727E+01 -0.28871544380E+02 -0.34714626875E+02  0.45201577311E+02  0.00000000000E+00 0.  1.
         14    1    6    6    0    0 -0.43461541764E+02  0.58232616667E+02 -0.11601181068E+03  0.13688931103E+03  0.00000000000E+00 0. -1.
         -5    1    3    3    0  503 -0.34556467337E+01 -0.48107296762E+02 -0.88340422393E+03  0.88473236991E+03  0.47000000000E+01 0.  1.
         13    1    4    4    0    0 -0.45836059651E+02 -0.11098311015E+02 -0.94358226959E+02  0.10548740146E+03  0.00000000000E+00 0. -1.
        -14    1    4    4    0    0  0.24042203054E+02  0.64058649289E+01 -0.17093571788E+03  0.17273703216E+03  0.00000000000E+00 0.  1.
</event>
<event>
12    1  0.8462562E-002  0.2202427E+03  0.7818608E-02  0.1133774E+00
         21   -1    0    0  501  502  0.00000000000E+00  0.00000000000E+00  0.13177756475E+03  0.13177756475E+03  0.00000000000E+00 0.  1.
         21   -1    0    0  502  503 -0.00000000000E+00 -0.00000000000E+00 -0.57686312717E+03  0.57686312717E+03  0.00000000000E+00 0.  1.
         -6    2    1    2    0  503 -0.12827156470E+03 -0.46884370543E+02 -0.43589863903E+03  0.48820645388E+03  0.17229677765E+03 0.  0.
        -24    2    3    3    0    0 -0.87449764664E+02 -0.58906945061E+02 -0.15295667138E+03  0.20204354797E+03  0.79425200299E+02 0.  0.
          6    2    1    2  501    0  0.12827156470E+03  0.46884370543E+02 -0.91869233820E+01  0.22043423804E+03  0.17278632824E+03 0.  0.
         24    2    5    5    0    0  0.11584798851E+03  0.92774042935E+02 -0.24720802485E+02  0.17019880555E+03  0.79553352232E+02 0.  0.
          5    1    5    5  501    0  0.12423576193E+02 -0.45889672391E+02  0.15533879103E+02  0.50235432492E+02  0.47000000000E+01 0. -1.
        -13    1    6    6    0    0  0.88999142110E+02  0.20689043349E+02 -0.10514046396E+02  0.91975154159E+02  0.00000000000E+00 0.  1.
         14    1    6    6    0    0  0.26848846396E+02  0.72084999586E+02 -0.14206756090E+02  0.78223651389E+02  0.00000000000E+00 0. -1.
         -5    1    3    3    0  503 -0.40821800034E+02  0.12022574517E+02 -0.28294196765E+03  0.28616290591E+03  0.47000000000E+01 0.  1.
         11    1    4    4    0    0 -0.13725006401E+02 -0.26847298307E+02 -0.10446351510E+01  0.30170258363E+02  0.00000000000E+00 0. -1.
        -12    1    4    4    0    0 -0.73724758264E+02 -0.32059646754E+02 -0.15191203623E+03  0.17187328961E+03  0.00000000000E+00 0.  1.
</event>
<event>
12    1  0.8462562E-002  0.1867971E+03  0.7818608E-02  0.1164011E+00
         21   -1    0    0  501  502  0.00000000000E+00  0.00000000000E+00  0.22027036139E+03  0.22027036139E+03  0.00000000000E+00 0. -1.
         21   -1    0    0  502  503 -0.00000000000E+00 -0.00000000000E+00 -0.19450025401E+03  0.19450025401E+03  0.00000000000E+00 0. -1.
         -6    2    1    2    0  503  0.13614334172E+01 -0.42838366901E+01 -0.86874308356E+02  0.20601042699E+03  0.18674299403E+03 0.  0.
        -24    2    3    3    0    0 -0.27229497538E+02 -0.29459313922E+02  0.21033645335E+02  0.91478935876E+02  0.79477573944E+02 0.  0.
          6    2    1    2  501    0 -0.13614334172E+01  0.42838366901E+01  0.11264441574E+03  0.20876018841E+03  0.17570386197E+03 0.  0.
         24    2    5    5    0    0  0.49315911976E+02  0.57819519127E+01  0.98562539332E+01  0.94052150800E+02  0.79266456882E+02 0.  0.
          5    1    5    5  501    0 -0.50677345393E+02 -0.14981152226E+01  0.10278816181E+03  0.11470803761E+03  0.47000000000E+01 0. -1.
        -11    1    6    6    0    0  0.36679457638E+02 -0.14646518338E+02 -0.28563002871E+02  0.48741647951E+02  0.00000000000E+00 0.  1.
         12    1    6    6    0    0  0.12636454338E+02  0.20428470251E+02  0.38419256804E+02  0.45310502849E+02  0.00000000000E+00 0. -1.
         -5    1    3    3    0  503  0.28590930955E+02  0.25175477232E+02 -0.10790795369E+03  0.11453149111E+03  0.47000000000E+01 0.  1.
         11    1    4    4    0    0  0.27459805628E+02 -0.12410659252E+01  0.64950700542E+01  0.28244771282E+02  0.00000000000E+00 0. -1.
        -12    1    4    4    0    0 -0.54689303166E+02 -0.28218247997E+02  0.14538575281E+02  0.63234164595E+02  0.00000000000E+00 0.  1.
</event>
<event>
12    1  0.8462562E-002  0.1759239E+03  0.7818608E-02  0.1172018E+00
         21   -1    0    0  503  502  0.00000000000E+00  0.00000000000E+00  0.18605475098E+03  0.18605475098E+03  0.00000000000E+00 0.  1.
         21   -1    0    0  501  503 -0.00000000000E+00 -0.00000000000E+00 -0.16555593017E+03  0.16555593017E+03  0.00000000000E+00 0.  1.
          6    2    1    2  501    0 -0.20080122419E+02 -0.38097508553E+02  0.11479434424E+02  0.17629808066E+03  0.17057140544E+03 0.  0.
         24    2    3    3    0    0 -0.25706704613E+01  0.16016251834E+02 -0.52329674749E+02  0.90690999268E+02  0.72272635343E+02 0.  0.
         -6    2    1    2    0  502  0.20080122419E+02  0.38097508553E+02  0.90193863840E+01  0.17531260049E+03  0.16970128782E+03 0.  0.
        -24    2    5    5    0    0 -0.35390158574E+02  0.23663924618E+02  0.51288045843E+02  0.10394026698E+03  0.79753813711E+02 0.  0.
          5    1    3    3  501    0 -0.17509451957E+02 -0.54113760387E+02  0.63809109173E+02  0.85607081392E+02  0.47000000000E+01 0. -1.
        -13    1    4    4    0    0  0.30571576591E+02  0.40912079196E+01 -0.43179677032E+01  0.31144889189E+02  0.00000000000E+00 0.  1.
         14    1    4    4    0    0 -0.33142247053E+02  0.11925043914E+02 -0.48011707046E+02  0.59546110079E+02  0.00000000000E+00 0. -1.
         -5    1    5    5    0  502  0.55470280993E+02  0.14433583935E+02 -0.42268659459E+02  0.71372333513E+02  0.47000000000E+01 0.  1.
         13    1    6    6    0    0  0.13468259558E+02 -0.26197720991E+01  0.46238664295E+02  0.48231434740E+02  0.00000000000E+00 0. -1.
        -14    1    6    6    0    0 -0.48858418133E+02  0.26283696717E+02  0.50493815484E+01  0.55708832240E+02  0.00000000000E+00 0.  1.
</event>
<event>
12    1  0.8462562E-002  0.1764275E+03  0.7818608E-02  0.1171371E+00
         21   -1    0    0  501  502  0.00000000000E+00  0.00000000000E+00  0.92978899475E+03  0.92978899475E+03  0.00000000000E+00 0. -1.
         21   -1    0    0  502  503 -0.00000000000E+00 -0.00000000000E+00 -0.34052814426E+02  0.34052814426E+02  0.00000000000E+00 0. -1.
         -6    2    1    2    0  503  0.13286505457E+02  0.35481561022E+02  0.38224299187E+03  0.42088517872E+03  0.17204405375E+03 0.  0.
        -24    2    3    3    0    0  0.55093544139E+02  0.64452491937E+02  0.19964326493E+03  0.23127533298E+03  0.80258482981E+02 0.  0.
          6    2    1    2  501    0 -0.13286505457E+02 -0.35481561022E+02  0.51349318845E+03  0.54295663046E+03  0.17231127523E+03 0.  0.
         24    2    5    5    0    0  0.13964922654E+02  0.16562898295E+02  0.97567546523E+02  0.12287628613E+03  0.71482913294E+02 0.  0.
          5    1    5    5  501    0 -0.27251428111E+02 -0.52044459316E+02  0.41592564193E+03  0.42008034433E+03  0.47000000000E+01 0. -1.
        -13    1    6    6    0    0  0.99569287501E+01  0.44913346148E+02  0.62466661909E+02  0.77578559811E+02  0.00000000000E+00 0.  1.
         14    1    6    6    0    0  0.40079939042E+01 -0.28350447853E+02  0.35100884614E+02  0.45297726315E+02  0.00000000000E+00 0. -1.
         -5    1    3    3    0  503 -0.41807038682E+02 -0.28970930915E+02  0.18259972694E+03  0.18960984574E+03  0.47000000000E+01 0.  1.
         13    1    4    4    0    0  0.34298765178E+02  0.19760417682E+02  0.18775776179E+02  0.43811062197E+02  0.00000000000E+00 0. -1.
        -14    1    4    4    0    0  0.20794778960E+02  0.44692074255E+02  0.18086748875E+03  0.18746427078E+03  0.00000000000E+00 0.  1.
</event>
<event>
12    1  0.8462562E-002  0.2640464E+03  0.7818608E-02  0.1104757E+00
         21   -1    0    0  503  502  0.00000000000E+00  0.00000000000E+00  0.28238367941E+03  0.28238367941E+03  0.00000000000E+00 0. -1.
         21   -1    0    0  501  503 -0.00000000000E+00 -0.00000000000E+00 -0.93604741281E+03  0.93604741281E+03  0.00000000000E+00 0.  1.
          6    2    1    2  501    0  0.17707478466E+03 -0.92617169466E+02 -0.84963515651E+03  0.88971928737E+03  0.17258937307E+03 0.  0.
         24    2    3    3    0    0  0.11210275886E+03  0.15227746223E+02 -0.40803437343E+03  0.43049686676E+03  0.77695492707E+02 0.  0.
         -6    2    1    2    0  502 -0.17707478466E+03  0.92617169466E+02  0.19597142312E+03  0.32871180485E+03  0.17237526659E+03 0.  0.
        -24    2    5    5    0    0 -0.55280908079E+02  0.30053892596E+02  0.15715707130E+03  0.18631603282E+03  0.77820972558E+02 0.  0.
          5    1    3    3  501    0  0.64972025798E+02 -0.10784491569E+03 -0.44160078308E+03  0.45922242061E+03  0.47000000000E+01 0. -1.
        -11    1    4    4    0    0  0.43315332798E+02 -0.30521505934E+02 -0.12809135340E+03  0.13861881256E+03  0.00000000000E+00 0.  1.
         12    1    4    4    0    0  0.68787426060E+02  0.45749252157E+02 -0.27994302003E+03  0.29187805419E+03  0.00000000000E+00 0. -1.
         -5    1    5    5    0  502 -0.12179387658E+03  0.62563276870E+02  0.38814351816E+02  0.14239577203E+03  0.47000000000E+01 0.  1.
         11    1    6    6    0    0  0.16786713057E+02  0.15677898671E+02  0.18914530629E+02  0.29754826682E+02  0.00000000000E+00 0. -1.
        -12    1    6    6    0    0 -0.72067621136E+02  0.14375993926E+02  0.13824254067E+03  0.15656120614E+03  0.00000000000E+00 0.  1.
</event>
<event>
12    1  0.8462562E-002  0.2039146E+03  0.7818608E-02  0.1146553E+00
         21   -1    0    0  503  502  0.00000000000E+00  0.00000000000E+00  0.10402249513E+03  0.10402249513E+03  0.00000000000E+00 0.  1.
         21   -1    0    0  501  503 -0.00000000000E+00 -0.00000000000E+00 -0.92778274531E+03  0.92778274531E+03  0.00000000000E+00 0.  1.
          6    2    1    2  501    0  0.16513562598E+02  0.10731011569E+03 -0.80151156305E+03  0.82704409636E+03  0.17260646843E+03 0.  0.
         24    2    3    3    0    0  0.51533205960E+02  0.95139986320E+02 -0.75764708293E+03  0.76941884073E+03  0.79176776176E+02 0.  0.
         -6    2    1    2    0  502 -0.16513562598E+02 -0.10731011569E+03 -0.22248687131E+02  0.20476114408E+03  0.17217422388E+03 0.  0.
        -24    2    5    5    0    0 -0.33435568645E+02 -0.12653228706E+02  0.35049448654E+02  0.92727903896E+02  0.78051001677E+02 0.  0.
          5    1    3    3  501    0 -0.35019643362E+02  0.12170129371E+02 -0.43864480117E+02  0.57625255627E+02  0.47000000000E+01 0. -1.
        -11    1    4    4    0    0  0.26537050567E+02  0.10378889133E+03 -0.63237702328E+03  0.64138681667E+03  0.00000000000E+00 0.  1.
         12    1    4    4    0    0  0.24996155394E+02 -0.86489050085E+01 -0.12527005965E+03  0.12803202407E+03  0.00000000000E+00 0. -1.
         -5    1    5    5    0  502  0.16922006047E+02 -0.94656886985E+02 -0.57298135785E+02  0.11203324019E+03  0.47000000000E+01 0.  1.
         11    1    6    6    0    0  0.89430682358E+01  0.11514308859E+02 -0.16320238785E+02  0.21883966094E+02  0.00000000000E+00 0. -1.
        -12    1    6    6    0    0 -0.42378636881E+02 -0.24167537565E+02  0.51369687439E+02  0.70843937803E+02  0.00000000000E+00 0.  1.
</event>
<event>
12    1  0.8462562E-002  0.2198900E+03  0.7818608E-02  0.1134022E+00
         21   -1    0    0  503  502  0.00000000000E+00  0.00000000000E+00  0.13498292678E+04  0.13498292678E+04  0.00000000000E+00 0.  1.
         21   -1    0    0  501  503 -0.00000000000E+00 -0.00000000000E+00 -0.37935459225E+02  0.37935459225E+02  0.00000000000E+00 0.  1.
          6    2    1    2  501    0 -0.78723268215E+02 -0.11150283922E+03  0.82127878800E+03  0.85012663502E+03  0.17200642965E+03 0.  0.
         24    2    3    3    0    0 -0.11750638085E+03 -0.10772249294E+03  0.59288763760E+03  0.61838749627E+03  0.73996349309E+02 0.  0.
         -6    2    1    2    0  502  0.78723268215E+02  0.11150283922E+03  0.49061502059E+03  0.53763809202E+03  0.17239890791E+03 0.  0.
        -24    2    5    5    0    0  0.33999331853E+02  0.66139625902E+02  0.44735029076E+03  0.46048902557E+03  0.79984094320E+02 0.  0.
          5    1    3    3  501    0  0.38783112635E+02 -0.37803462869E+01  0.22839115040E+03  0.23173913874E+03  0.47000000000E+01 0. -1.
        -11    1    4    4    0    0 -0.70571090141E+02 -0.38467415767E+02  0.40223549476E+03  0.41018704768E+03  0.00000000000E+00 0.  1.
         12    1    4    4    0    0 -0.46935290708E+02 -0.69255077169E+02  0.19065214284E+03  0.20820044860E+03  0.00000000000E+00 0. -1.
         -5    1    5    5    0  502  0.44723936362E+02  0.45363213321E+02  0.43264729822E+02  0.77149066443E+02  0.47000000000E+01 0.  1.
         13    1    6    6    0    0  0.28900268376E+02  0.65413300135E+01  0.30001041502E+03  0.30147017038E+03  0.00000000000E+00 0. -1.
        -14    1    6    6    0    0  0.50990634766E+01  0.59598295888E+02  0.14733987575E+03  0.15901885519E+03  0.00000000000E+00 0.  1.
</event>
<event>
12    1  0.8462562E-002  0.1775911E+03  0.7818608E-02  0.1170473E+00
         21   -1    0    0  501  502  0.00000000000E+00  0.00000000000E+00  0.17102471141E+03  0.17102471141E+03  0.00000000000E+00 0.  1.
         21   -1    0    0  502  503 -0.00000000000E+00 -0.00000000000E+00 -0.74427774143E+03  0.74427774143E+03  0.00000000000E+00 0.  1.
         -6    2    1    2    0  503 -0.36937951399E+02 -0.19517044907E+02 -0.68376862359E+03  0.70613196225E+03  0.17128190277E+03 0.  0.
        -24    2    3    3    0    0 -0.57865662581E+02  0.83596608793E+01 -0.64994501644E+03  0.65733435758E+03  0.79003888724E+02 0.  0.
          6    2    1    2  501    0  0.36937951399E+02  0.19517044907E+02  0.11051559356E+03  0.20917049059E+03  0.17260727220E+03 0.  0.
         24    2    5    5    0    0  0.19345295109E+02 -0.33345895329E+02  0.48521696501E+01  0.89626184330E+02  0.80765835531E+02 0.  0.
          5    1    5    5  501    0  0.17592656290E+02  0.52862940236E+02  0.10566342391E+03  0.11954430626E+03  0.47000000000E+01 0. -1.
        -13    1    6    6    0    0  0.34301782653E+02  0.14163935603E+02  0.12656779734E+02  0.39209991560E+02  0.00000000000E+00 0.  1.
         14    1    6    6    0    0 -0.14956487544E+02 -0.47509830931E+02 -0.78046100836E+01  0.50416192769E+02  0.00000000000E+00 0. -1.
         -5    1    3    3    0  503  0.20927711181E+02 -0.27876705786E+02 -0.33823607150E+02  0.48797604669E+02  0.47000000000E+01 0.  1.
         11    1    4    4    0    0 -0.46240564600E+02  0.53538131499E+01 -0.14589038830E+03  0.15313673148E+03  0.00000000000E+00 0. -1.
        -12    1    4    4    0    0 -0.11625097981E+02  0.30058477294E+01 -0.50405462814E+03  0.50419762611E+03  0.00000000000E+00 0.  1.
</event>
<event>
12    1  0.8462562E-002  0.1838224E+03  0.7818608E-02  0.1164289E+00
         21   -1    0    0  501  502  0.00000000000E+00  0.00000000000E+00  0.50721410631E+02  0.50721410631E+02  0.00000000000E+00 0. -1.
         21   -1    0    0  502  503 -0.00000000000E+00 -0.00000000000E+00 -0.95071044002E+03  0.95071044002E+03  0.00000000000E+00 0.  1.
         -6    2    1    2    0  503 -0.42169642994E+02 -0.47070736256E+02 -0.72539870776E+03  0.74832743337E+03  0.17261729145E+03 0.  0.
        -24    2    3    3    0    0  0.19945164240E+02 -0.74901909225E+02 -0.36600615551E+03  0.38251611577E+03  0.79686682527E+02 0.  0.
          6    2    1    2  501    0  0.42169642994E+02  0.47070736256E+02 -0.17459032162E+03  0.25310441728E+03  0.17200619942E+03 0.  0.
         24    2    5    5    0    0 -0.32544703623E+02  0.62486241903E+02 -0.94144793852E+02  0.14213845699E+03  0.79852430051E+02 0.  0.
          5    1    5    5  501    0  0.74714346617E+02 -0.15415505647E+02 -0.80445527772E+02  0.11096596029E+03  0.47000000000E+01 0. -1.
        -13    1    6    6    0    0 -0.49883362570E+02  0.18554689466E+02 -0.73125082911E+02  0.90442822342E+02  0.00000000000E+00 0.  1.
         14    1    6    6    0    0  0.17338658947E+02  0.43931552437E+02 -0.21019710941E+02  0.51695634648E+02  0.00000000000E+00 0. -1.
         -5    1    3    3    0  503 -0.62114807234E+02  0.27831172970E+02 -0.35939255225E+03  0.36581131760E+03  0.47000000000E+01 0.  1.
         11    1    4    4    0    0  0.41621018234E+02 -0.10992892008E+02 -0.12311031685E+03  0.13041971840E+03  0.00000000000E+00 0. -1.
        -12    1    4    4    0    0 -0.21675853994E+02 -0.63909017217E+02 -0.24289583866E+03  0.25209639737E+03  0.00000000000E+00 0.  1.
</event>
<event>
12    1  0.8462562E-002  0.2154373E+03  0.7818608E-02  0.1137685E+00
         21   -1    0    0  501  502  0.00000000000E+00  0.00000000000E+00  0.60780225249E+03  0.60780225249E+03  0.00000000000E+00 0. -1.
         21   -1    0    0  502  503 -0.00000000000E+00 -0.00000000000E+00 -0.19719225663E+03  0.19719225663E+03  0.00000000000E+00 0. -1.
         -6    2    1    2    0  503 -0.51088222906E+02  0.11595161186E+03 -0.11027116536E+03  0.24201848069E+03  0.17423671332E+03 0.  0.
        -24    2    3    3    0    0  0.24268847075E+01  0.95336027185E+02 -0.12791074708E+03  0.18183448017E+03  0.87222537866E+02 0.  0.
          6    2    1    2  501    0  0.51088222906E+02 -0.11595161186E+03  0.52088116123E+03  0.56297602843E+03  0.17195941863E+03 0.  0.
         24    2    5    5    0    0  0.92558226545E+02 -0.10536399772E+03  0.46538553603E+03  0.49273563271E+03  0.80846207585E+02 0.  0.
          5    1    5    5  501    0 -0.41470003640E+02 -0.10587614146E+02  0.55495625193E+02  0.70240395719E+02  0.47000000000E+01 0. -1.
        -11    1    6    6    0    0  0.10519585845E+02  0.13070037407E+02  0.68002408418E+02  0.70041524218E+02  0.00000000000E+00 0.  1.
         12    1    6    6    0    0  0.82038640701E+02 -0.11843403512E+03  0.39738312761E+03  0.42269410849E+03  0.00000000000E+00 0. -1.
         -5    1    3    3    0  503 -0.53515107613E+02  0.20615584677E+02  0.17639581719E+02  0.60184000512E+02  0.47000000000E+01 0.  1.
         11    1    4    4    0    0  0.34570271835E+02  0.61613933445E+02 -0.37164811928E+02  0.79828589709E+02  0.00000000000E+00 0. -1.
        -12    1    4    4    0    0 -0.32143387128E+02  0.33722093740E+02 -0.90745935156E+02  0.10200589046E+03  0.00000000000E+00 0.  1.
</event>
<event>
12    1  0.8462562E-002  0.1952113E+03  0.7818608E-02  0.1154219E+00
         21   -1    0    0  503  502  0.00000000000E+00  0.00000000000E+00  0.27092483505E+04  0.27092483505E+04  0.00000000000E+00 0.  1.
         21   -1    0    0  501  503 -0.00000000000E+00 -0.00000000000E+00 -0.51269108469E+02  0.51269108469E+02  0.00000000000E+00 0.  1.
          6    2    1    2  501    0  0.26118940707E+02  0.87660532077E+02  0.14967538609E+03  0.24462881414E+03  0.17051090158E+03 0.  0.
         24    2    3    3    0    0  0.26640546317E+02  0.88584993671E+02  0.31657581981E+02  0.12651268997E+03  0.80288469998E+02 0.  0.
         -6    2    1    2    0  502 -0.26118940707E+02 -0.87660532077E+02  0.25083038559E+04  0.25158886448E+04  0.17245541893E+03 0.  0.
        -24    2    5    5    0    0 -0.77953691901E+01  0.22866792178E+02  0.10256884150E+04  0.10290387270E+04  0.79374547996E+02 0.  0.
          5    1    3    3  501    0 -0.52160560955E+00 -0.92446159462E+00  0.11801780411E+03  0.11811612417E+03  0.47000000000E+01 0. -1.
        -11    1    4    4    0    0  0.32310983244E+01  0.33843667407E+02  0.53253327070E+02  0.63180302816E+02  0.00000000000E+00 0.  1.
         12    1    4    4    0    0  0.23409447993E+02  0.54741326265E+02 -0.21595745089E+02  0.63332387153E+02  0.00000000000E+00 0. -1.
         -5    1    5    5    0  502 -0.18323571517E+02 -0.11052732425E+03  0.14826154409E+04  0.14868499179E+04  0.47000000000E+01 0.  1.
         13    1    6    6    0    0  0.32823221777E+02 -0.36610551190E+01  0.51217867059E+03  0.51324239675E+03  0.00000000000E+00 0. -1.
        -14    1    6    6    0    0 -0.40618590967E+02  0.26527847297E+02  0.51350974445E+03  0.51579633021E+03  0.00000000000E+00 0.  1.
</event>
<event>
12    1  0.8462562E-002  0.2023513E+03  0.7818608E-02  0.1149776E+00
         21   -1    0    0  501  502  0.00000000000E+00  0.00000000000E+00  0.11219535711E+03  0.11219535711E+03  0.00000000000E+00 0. -1.
         21   -1    0    0  502  503 -0.00000000000E+00 -0.00000000000E+00 -0.36156846787E+03  0.36156846787E+03  0.00000000000E+00 0. -1.
         -6    2    1    2    0  503 -0.41630997710E+02  0.80225212882E+02 -0.76244705657E+02  0.20745670044E+03  0.17045762718E+03 0.  0.
        -24    2    3    3    0    0 -0.69410581837E+02  0.10859698993E+03 -0.50547717790E+02  0.15992683390E+03  0.80064882031E+02 0.  0.
          6    2    1    2  501    0  0.41630997710E+02 -0.80225212882E+02 -0.17312840511E+03  0.26630712454E+03  0.18104368306E+03 0.  0.
         24    2    5    5    0    0  0.30947623781E+02 -0.90664896513E+02 -0.20393582740E+03  0.23174835227E+03  0.54218061637E+02 0.  0.
          5    1    5    5  501    0  0.10683373929E+02  0.10439683631E+02  0.30807422289E+02  0.34558772271E+02  0.47000000000E+01 0. -1.
        -13    1    6    6    0    0  0.89431037721E+01  0.13866791284E+01 -0.51731056671E+02  0.52516704089E+02  0.00000000000E+00 0.  1.
         14    1    6    6    0    0  0.22004520009E+02 -0.92051575641E+02 -0.15220477073E+03  0.17923164818E+03  0.00000000000E+00 0. -1.
         -5    1    3    3    0  503  0.27779584127E+02 -0.28371777053E+02 -0.25696987867E+02  0.47529866535E+02  0.47000000000E+01 0.  1.
         11    1    4    4    0    0  0.15210771055E+02  0.36935194579E+02 -0.58576504385E+01  0.40371874161E+02  0.00000000000E+00 0. -1.
        -12    1    4    4    0    0 -0.84621352892E+02  0.71661795356E+02 -0.44690067351E+02  0.11955495974E+03  0.00000000000E+00 0.  1.
</event>
<event>
12    1  0.8462562E-002  0.3007400E+03  0.7818608E-02  0.1085228E+00
         21   -1    0    0  501  502  0.00000000000E+00  0.00000000000E+00  0.23244993207E+03  0.23244993207E+03  0.00000000000E+00 0. -1.
         21   -1    0    0  502  503 -0.00000000000E+00 -0.00000000000E+00 -0.39653664123E+03  0.39653664123E+03  0.00000000000E+00 0. -1.
         -6    2    1    2    0  503  0.35789696389E+02 -0.24182844428E+03 -0.13434166409E+03  0.32677918741E+03  0.17022060917E+03 0.  0.
        -24    2    3    3    0    0  0.60427505209E+02 -0.66590342090E+02 -0.74227900524E+02  0.13982687089E+03  0.77175226345E+02 0.  0.
          6    2    1    2  501    0 -0.35789696389E+02  0.24182844428E+03 -0.29745045063E+02  0.30220738589E+03  0.17516460130E+03 0.  0.
         24    2    5    5    0    0  0.43565091174E+02  0.12319822407E+03 -0.41643151731E+02  0.15891060853E+03  0.80266492614E+02 0.  0.
          5    1    5    5  501    0 -0.79354787563E+02  0.11863022022E+03  0.11898106667E+02  0.14329677735E+03  0.47000000000E+01 0. -1.
        -11    1    6    6    0    0  0.51066934202E+02  0.37315293366E+02 -0.17990546804E+00  0.63247887346E+02  0.00000000000E+00 0.  1.
         12    1    6    6    0    0 -0.75018430278E+01  0.85882930699E+02 -0.41463246262E+02  0.95662721187E+02  0.00000000000E+00 0. -1.
         -5    1    3    3    0  503 -0.24637808820E+02 -0.17523810219E+03 -0.60113763566E+02  0.18695231652E+03  0.47000000000E+01 0.  1.
         13    1    4    4    0    0  0.56459749156E+02 -0.69414648751E+02 -0.87829327970E+02  0.12537977344E+03  0.00000000000E+00 0. -1.
        -14    1    4    4    0    0  0.39677560526E+01  0.28243066610E+01  0.13601427446E+02  0.14447097451E+02  0.00000000000E+00 0.  1.
</event>
<event>
12    1  0.8462562E-002  0.2313192E+03  0.7818608E-02  0.1125730E+00
         21   -1    0    0  503  502  0.00000000000E+00  0.00000000000E+00  0.35312442492E+03  0.35312442492E+03  0.00000000000E+00 0. -1.
         21   -1    0    0  501  503 -0.00000000000E+00 -0.00000000000E+00 -0.16002147566E+03  0.16002147566E+03  0.00000000000E+00 0. -1.
          6    2    1    2  501    0 -0.15115763974E+03 -0.22321557689E+02  0.37260402893E+02  0.23430092271E+03  0.17367124336E+03 0.  0.
         24    2    3    3    0    0 -0.14264764965E+03 -0.69623523231E+02  0.62266086734E+01  0.17689811565E+03  0.77835632759E+02 0.  0.
         -6    2    1    2    0  502  0.15115763974E+03  0.22321557689E+02  0.15584254637E+03  0.27884497787E+03  0.17355327261E+03 0.  0.
        -24    2    5    5    0    0  0.10069354579E+03 -0.51123723831E+02  0.11695303721E+03  0.18150373235E+03  0.80701714010E+02 0.  0.
          5    1    3    3  501    0 -0.85099900936E+01  0.47301965543E+02  0.31033794220E+02  0.57402807068E+02  0.47000000000E+01 0. -1.
        -13    1    4    4    0    0 -0.65880539805E+02 -0.73995020743E+02 -0.49590969086E+01  0.99197284549E+02  0.00000000000E+00 0.  1.
         14    1    4    4    0    0 -0.76767109841E+02  0.43714975118E+01  0.11185705582E+02  0.77700831097E+02  0.00000000000E+00 0. -1.
         -5    1    5    5    0  502  0.50464093949E+02  0.73445281520E+02  0.38889509163E+02  0.97341245516E+02  0.47000000000E+01 0.  1.
         13    1    6    6    0    0  0.94445766454E+02 -0.47126416777E+02  0.12941567514E+03  0.16700095488E+03  0.00000000000E+00 0. -1.
        -14    1    6    6    0    0  0.62477793371E+01 -0.39973070547E+01 -0.12462637930E+02  0.14502777475E+02  0.00000000000E+00 0.  1.
</event>
<event>
12    1  0.8462562E-002  0.1777553E+03  0.7818608E-02  0.1170321E+00
         21   -1    0    0  503  502  0.00000000000E+00  0.00000000000E+00  0.11776802459E+03  0.11776802459E+03  0.00000000000E+00 0. -1.
         21   -1    0    0  501  503 -0.00000000000E+00 -0.00000000000E+00 -0.64257939738E+03  0.64257939738E+03  0.00000000000E+00 0. -1.
          6    2    1    2  501    0 -0.39434210448E+02 -0.19671294672E+02 -0.55291769883E+03  0.58038381751E+03  0.17083728270E+03 0.  0.
         24    2    3    3    0    0 -0.26659551795E+02  0.44471543805E+02 -0.20395094376E+03  0.22531004802E+03  0.80499567517E+02 0.  0.
         -6    2    1    2    0  502  0.39434210448E+02  0.19671294672E+02  0.28106326046E+02  0.17996360446E+03  0.17220602945E+03 0.  0.
        -24    2    5    5    0    0 -0.37986932670E+02 -0.16506839768E+02  0.37331678309E+01  0.90974663267E+02  0.80913348724E+02 0.  0.
          5    1    3    3  501    0 -0.12774658653E+02 -0.64142838478E+02 -0.34896675508E+03  0.35507376949E+03  0.47000000000E+01 0. -1.
        -11    1    4    4    0    0  0.26976904998E+02  0.20365971834E+02 -0.48570634592E+02  0.59174595535E+02  0.00000000000E+00 0.  1.
         12    1    4    4    0    0 -0.53636456793E+02  0.24105571971E+02 -0.15538030917E+03  0.16613545249E+03  0.00000000000E+00 0. -1.
         -5    1    5    5    0  502  0.77421143119E+02  0.36178134441E+02  0.24373158215E+02  0.88988941194E+02  0.47000000000E+01 0.  1.
         11    1    6    6    0    0  0.81704282261E+01 -0.21087417324E+02  0.30077793270E+02  0.37631219948E+02  0.00000000000E+00 0. -1.
        -12    1    6    6    0    0 -0.46157360896E+02  0.45805775551E+01 -0.26344625439E+02  0.53343443319E+02  0.00000000000E+00 0.  1.
</event>
<event>
12    1  0.8462562E-002  0.2854077E+03  0.7818608E-02  0.1092836E+00
         21   -1    0    0  501  502  0.00000000000E+00  0.00000000000E+00  0.37435961023E+02  0.37435961023E+02  0.00000000000E+00 0. -1.
         21   -1    0    0  502  503 -0.00000000000E+00 -0.00000000000E+00 -0.26144289501E+04  0.26144289501E+04  0.00000000000E+00 0. -1.
         -6    2    1    2    0  503  0.18012215598E+03 -0.13793904423E+03 -0.18347140334E+04  0.18567803145E+04  0.17316576107E+03 0.  0.
        -24    2    3    3    0    0  0.12120994759E+03 -0.13769320556E+03 -0.96026159077E+03  0.98033301248E+03  0.72795758032E+02 0.  0.
          6    2    1    2  501    0 -0.18012215598E+03  0.13793904423E+03 -0.74227895566E+03  0.79508459664E+03  0.17236675089E+03 0.  0.
         24    2    5    5    0    0 -0.39565566072E+02  0.44214752844E+01 -0.17218544184E+03  0.19291202945E+03  0.77344949824E+02 0.  0.
          5    1    5    5  501    0 -0.14055658991E+03  0.13351756894E+03 -0.57009351382E+03  0.60217256719E+03  0.47000000000E+01 0. -1.
        -13    1    6    6    0    0  0.16563894271E+02  0.20065309738E+02 -0.33012125021E+02  0.42033078007E+02  0.00000000000E+00 0.  1.
         14    1    6    6    0    0 -0.56129460343E+02 -0.15643834453E+02 -0.13917331682E+03  0.15087895144E+03  0.00000000000E+00 0. -1.
         -5    1    3    3    0  503  0.58912208394E+02 -0.24583867182E+00 -0.87445244262E+03  0.87644730198E+03  0.47000000000E+01 0.  1.
         11    1    4    4    0    0  0.81534937887E+02 -0.91641875247E+02 -0.79170641569E+03  0.80115243746E+03  0.00000000000E+00 0. -1.
        -12    1    4    4    0    0  0.39675009700E+02 -0.46051330308E+02 -0.16855517508E+03  0.17918057502E+03  0.00000000000E+00 0.  1.
</event>
<event>
12    1  0.8462562E-002  0.2746419E+03  0.7818608E-02  0.1099664E+00
         21   -1    0    0  501  502  0.00000000000E+00  0.00000000000E+00  0.19304594315E+03  0.19304594315E+03  0.00000000000E+00 0.  1.
         21   -1    0    0  502  503 -0.00000000000E+00 -0.00000000000E+00 -0.38962206283E+03  0.38962206283E+03  0.00000000000E+00 0.  1.
         -6    2    1    2    0  503 -0.17842668639E+03  0.11455979715E+03 -0.52815867367E+02  0.27267581220E+03  0.16310289138E+03 0.  0.
        -24    2    3    3    0    0 -0.49216598686E+02  0.10327660528E+03 -0.31347546762E+02  0.14112530490E+03  0.76454903108E+02 0.  0.
          6    2    1    2  501    0  0.17842668639E+03 -0.11455979715E+03 -0.14376025231E+03  0.30999219378E+03  0.17455119742E+03 0.  0.
         24    2    5    5    0    0  0.41577735608E+02 -0.40063197067E+01 -0.92675057106E+01  0.88497057054E+02  0.77466662180E+02 0.  0.
          5    1    5    5  501    0  0.13684895078E+03 -0.11055347744E+03 -0.13449274660E+03  0.22149513672E+03  0.47000000000E+01 0. -1.
        -11    1    6    6    0    0  0.86244237988E+01 -0.34780739128E+02  0.13114892763E+02  0.38158628281E+02  0.00000000000E+00 0.  1.
         12    1    6    6    0    0  0.32953311809E+02  0.30774419421E+02 -0.22382398473E+02  0.50338428773E+02  0.00000000000E+00 0. -1.
         -5    1    3    3    0  503 -0.12921008770E+03  0.11283191868E+02 -0.21468320605E+02  0.13155050730E+03  0.47000000000E+01 0.  1.
         13    1    4    4    0    0 -0.17743775332E+02  0.29722562578E+01  0.17594993236E+02  0.25164650946E+02  0.00000000000E+00 0. -1.
        -14    1    4    4    0    0 -0.31472823354E+02  0.10030434902E+03 -0.48942539998E+02  0.11596065395E+03  0.00000000000E+00 0.  1.
</event>
<event>
12    1  0.8462562E-002  0.1895937E+03  0.7818608E-02  0.1159262E+00
         21   -1    0    0  503  502  0.00000000000E+00  0.00000000000E+00  0.46671703439E+03  0.46671703439E+03  0.00000000000E+00 0. -1.
         21   -1    0    0  501  503 -0.00000000000E+00 -0.00000000000E+00 -0.13464915778E+03  0.13464915778E+03  0.00000000000E+00 0. -1.
          6    2    1    2  501    0 -0.64431325181E+02  0.37687723103E+02 -0.31517817282E+02  0.19219555621E+03  0.17428137847E+03 0.  0.
         24    2    3    3    0    0 -0.99565469045E+02  0.66112908696E+02 -0.16175508626E+02  0.14423853716E+03  0.79113268164E+02 0.  0.
         -6    2    1    2    0  502  0.64431325181E+02 -0.37687723103E+02  0.36358569389E+03  0.40917063596E+03  0.17220421712E+03 0.  0.
        -24    2    5    5    0    0  0.52041453627E+02 -0.36632728151E+02  0.91438527791E+02  0.13669900084E+03  0.79217061279E+02 0.  0.
          5    1    3    3  501    0  0.35134143864E+02 -0.28425185593E+02 -0.15342308656E+02  0.47957019048E+02  0.47000000000E+01 0. -1.
        -11    1    4    4    0    0 -0.38413362555E+02  0.97798053607E+01  0.29465506855E+02  0.49390759357E+02  0.00000000000E+00 0.  1.
         12    1    4    4    0    0 -0.61152106490E+02  0.56333103335E+02 -0.45641015481E+02  0.94847777800E+02  0.00000000000E+00 0. -1.
         -5    1    5    5    0  502  0.12389871554E+02 -0.10549949517E+01  0.27214716610E+03  0.27247163513E+03  0.47000000000E+01 0.  1.
         11    1    6    6    0    0  0.74715316416E+01 -0.19372583244E+02  0.86144399874E+02  0.88611389766E+02  0.00000000000E+00 0. -1.
        -12    1    6    6    0    0  0.44569921986E+02 -0.17260144907E+02  0.52941279167E+01  0.48087611070E+02  0.00000000000E+00 0.  1.
</event>
<event>
12    1  0.8462562E-002  0.1838292E+03  0.7818608E-02  0.1164158E+00
         21   -1    0    0  501  502  0.00000000000E+00  0.00000000000E+00  0.34418251191E+03  0.34418251191E+03  0.00000000000E+00 0.  1.
         21   -1    0    0  502  503 -0.00000000000E+00 -0.00000000000E+00 -0.26743875725E+03  0.26743875725E+03  0.00000000000E+00 0.  1.
         -6    2    1    2    0  503 -0.91398174916E+01  0.64868507206E+02 -0.20492939014E+03  0.27526886625E+03  0.17171323272E+03 0.  0.
        -24    2    3    3    0    0  0.10233117795E-01  0.10376706892E+03 -0.19644902261E+03  0.23414918528E+03  0.73932521820E+02 0.  0.
          6    2    1    2  501    0  0.91398174916E+01 -0.64868507206E+02  0.28167314480E+03  0.33635240291E+03  0.17176064436E+03 0.  0.
         24    2    5    5    0    0  0.54183809881E+02 -0.67881990762E+02  0.26156941822E+03  0.28671076559E+03  0.78997801448E+02 0.  0.
          5    1    5    5  501    0 -0.45043992389E+02  0.30134835557E+01  0.20103726576E+02  0.49641637319E+02  0.47000000000E+01 0. -1.
        -13    1    6    6    0    0 -0.18837101983E+02 -0.22931504621E+02  0.46325597729E+02  0.55015918790E+02  0.00000000000E+00 0.  1.
         14    1    6    6    0    0  0.73020911864E+02 -0.44950486140E+02  0.21524382049E+03  0.23169484680E+03  0.00000000000E+00 0. -1.
         -5    1    3    3    0  503 -0.91500506094E+01 -0.38898561718E+02 -0.84803675279E+01  0.41119680973E+02  0.47000000000E+01 0.  1.
         11    1    4    4    0    0  0.31688157020E+02  0.57412400823E+02 -0.70671487711E+02  0.96409450984E+02  0.00000000000E+00 0. -1.
        -12    1    4    4    0    0 -0.31677923902E+02  0.46354668101E+02 -0.12577753490E+03  0.13773973429E+03  0.00000000000E+00 0.  1.
</event>
<event>
12    1  0.8462562E-002  0.1921018E+03  0.7818608E-02  0.1156822E+00
         21   -1    0    0  503  502  0.00000000000E+00  0.00000000000E+00  0.15018653016E+03  0.15018653016E+03  0.00000000000E+00 0. -1.
         21   -1    0    0  501  503 -0.00000000000E+00 -0.00000000000E+00 -0.33722814413E+03  0.33722814413E+03  0.00000000000E+00 0. -1.
          6    2    1    2  501    0  0.64255055448E+02 -0.60392586809E+02 -0.22124487411E+03  0.29229167869E+03  0.16943775973E+03 0.  0.
         24    2    3    3    0    0 -0.15094135850E-01  0.22049733892E+02 -0.86456088592E+02  0.12165318634E+03  0.82696139575E+02 0.  0.
         -6    2    1    2    0  502 -0.64255055448E+02  0.60392586809E+02  0.34203260130E+02  0.19512299559E+03  0.17066676218E+03 0.  0.
        -24    2    5    5    0    0 -0.51455795246E+02  0.44458277860E+02 -0.45535124864E+02  0.11267286943E+03  0.77443466955E+02 0.  0.
          5    1    3    3  501    0  0.64270149584E+02 -0.82442320702E+02 -0.13478878552E+03  0.17063849235E+03  0.47000000000E+01 0. -1.
        -11    1    4    4    0    0 -0.63691365605E+01 -0.29406835630E+02 -0.49701567081E+02  0.58099687199E+02  0.00000000000E+00 0.  1.
         12    1    4    4    0    0  0.63540424246E+01  0.51456569523E+02 -0.36754521511E+02  0.63553499146E+02  0.00000000000E+00 0. -1.
         -5    1    5    5    0  502 -0.12799260202E+02  0.15934308949E+02  0.79738384994E+02  0.82450126167E+02  0.47000000000E+01 0.  1.
         13    1    6    6    0    0 -0.53509334960E+02 -0.14753763799E+01 -0.39002539022E+02  0.66231591506E+02  0.00000000000E+00 0. -1.
        -14    1    6    6    0    0  0.20535397142E+01  0.45933654240E+02 -0.65325858428E+01  0.46441277922E+02  0.00000000000E+00 0.  1.
</event>
<event>
12    1  0.8462562E-002  0.1769516E+03  0.7818608E-02  0.1170792E+00
         21   -1    0    0  501  502  0.00000000000E+00  0.00000000000E+00  0.10153042113E+04  0.10153042113E+04  0.00000000000E+00 0.  1.
         21   -1    0    0  502  503 -0.00000000000E+00 -0.00000000000E+00 -0.43598040179E+02  0.43598040179E+02  0.00000000000E+00 0.  1.
         -6    2    1    2    0  503  0.33560279762E+02 -0.23964491488E+02  0.19938092168E+03  0.26656510550E+03  0.17205700889E+03 0.  0.
        -24    2    3    3    0    0 -0.56825527963E+01  0.32435416442E+02  0.76699129538E+02  0.12587444609E+03  0.94219276475E+02 0.  0.
          6    2    1    2  501    0 -0.33560279762E+02  0.23964491488E+02  0.77232524942E+03  0.79233714596E+03  0.17207926299E+03 0.  0.
         24    2    5    5    0    0 -0.43120138335E+02  0.71940397266E+02  0.39618756498E+03  0.41300256267E+03  0.81066411255E+02 0.  0.
          5    1    5    5  501    0  0.95598585735E+01 -0.47975905778E+02  0.37613768443E+03  0.37933458329E+03  0.47000000000E+01 0. -1.
        -13    1    6    6    0    0 -0.47466915288E+02  0.42826196133E+02  0.36322819229E+03  0.36881148409E+03  0.00000000000E+00 0.  1.
         14    1    6    6    0    0  0.43467769526E+01  0.29114201133E+02  0.32959372691E+02  0.44191078576E+02  0.00000000000E+00 0. -1.
         -5    1    3    3    0  503  0.39242832558E+02 -0.56399907930E+02  0.12268179214E+03  0.14069065941E+03  0.47000000000E+01 0.  1.
         11    1    4    4    0    0  0.13044938776E+02  0.61515475323E+02  0.35985564507E+02  0.72451949489E+02  0.00000000000E+00 0. -1.
        -12    1    4    4    0    0 -0.18727491573E+02 -0.29080058881E+02  0.40713565031E+02  0.53422496596E+02  0.00000000000E+00 0.  1.
</event>
<event>
12    1  0.8462562E-002  0.1847192E+03  0.7818608E-02  0.1163344E+00
         21   -1    0    0  501  502  0.00000000000E+00  0.00000000000E+00  0.60027274178E+03  0.60027274178E+03  0.00000000000E+00 0.  1.
         21   -1    0    0  502  503 -0.00000000000E+00 -0.00000000000E+00 -0.15263594025E+03  0.15263594025E+03  0.00000000000E+00 0.  1.
         -6    2    1    2    0  503 -0.33646342600E+02 -0.58729645086E+02 -0.74505689842E+02  0.19905495160E+03  0.17172806513E+03 0.  0.
        -24    2    3    3    0    0 -0.66399722042E+02 -0.36106619889E+02  0.57012808937E+01  0.10938983414E+03  0.78873443707E+02 0.  0.
          6    2    1    2  501    0  0.33646342600E+02  0.58729645086E+02  0.52214249137E+03  0.55385373043E+03  0.17187182967E+03 0.  0.
         24    2    5    5    0    0 -0.45673653471E+02  0.52538375990E+02  0.30031228844E+03  0.31814050950E+03  0.78610111451E+02 0.  0.
          5    1    5    5  501    0  0.79319996071E+02  0.61912690960E+01  0.22183020293E+03  0.23571322093E+03  0.47000000000E+01 0. -1.
        -11    1    6    6    0    0 -0.53240743131E+01  0.52177396749E+02  0.23938165679E+03  0.24506000103E+03  0.00000000000E+00 0.  1.
         12    1    6    6    0    0 -0.40349579158E+02  0.36097924125E+00  0.60930631651E+02  0.73080508466E+02  0.00000000000E+00 0. -1.
         -5    1    3    3    0  503  0.32753379442E+02 -0.22623025197E+02 -0.80206970736E+02  0.89665117457E+02  0.47000000000E+01 0.  1.
         13    1    4    4    0    0 -0.77853781146E+02 -0.86767149634E+01 -0.30745902797E+01  0.78396107855E+02  0.00000000000E+00 0. -1.
        -14    1    4    4    0    0  0.11454059105E+02 -0.27429904925E+02  0.87758711733E+01  0.30993726285E+02  0.00000000000E+00 0.  1.
</event>
<event>
12    1  0.8462562E-002  0.1903098E+03  0.7818608E-02  0.1158262E+00
         21   -1    0    0  503  502  0.00000000000E+00  0.00000000000E+00  0.43474448700E+03  0.43474448700E+03  0.00000000000E+00 0. -1.
         21   -1    0    0  501  503 -0.00000000000E+00 -0.00000000000E+00 -0.61451920492E+03  0.61451920492E+03  0.00000000000E+00 0. -1.
          6    2    1    2  501    0  0.59112956506E+02  0.56236579530E+02 -0.57774627806E+03  0.60828331964E+03  0.17193295390E+03 0.  0.
         24    2    3    3    0    0  0.28826747118E+02 -0.26951791508E+02 -0.17693841092E+03  0.19778777043E+03  0.79091216074E+02 0.  0.
         -6    2    1    2    0  502 -0.59112956506E+02 -0.56236579530E+02  0.39797156015E+03  0.44098037228E+03  0.17153842585E+03 0.  0.
        -24    2    5    5    0    0 -0.44851705500E+02  0.30656188611E+02  0.19134191715E+03  0.21632144012E+03  0.85039748404E+02 0.  0.
          5    1    3    3  501    0  0.30286209388E+02  0.83188371038E+02 -0.40080786715E+03  0.41049554921E+03  0.47000000000E+01 0. -1.
        -13    1    4    4    0    0  0.96871852325E+01 -0.37725157931E+02 -0.17051152486E+03  0.17490342824E+03  0.00000000000E+00 0.  1.
         14    1    4    4    0    0  0.19139561886E+02  0.10773366423E+02 -0.64268860526E+01  0.22884342193E+02  0.00000000000E+00 0. -1.
         -5    1    5    5    0  502 -0.14261251006E+02 -0.86892768141E+02  0.20662964299E+03  0.22465893216E+03  0.47000000000E+01 0.  1.
         11    1    6    6    0    0  0.11819853676E+02  0.92142180406E+01  0.12722058113E+03  0.12810030062E+03  0.00000000000E+00 0. -1.
        -12    1    6    6    0    0 -0.56671559176E+02  0.21441970570E+02  0.64121336019E+02  0.88221139498E+02  0.00000000000E+00 0.  1.
</event>
<event>
12    1  0.8462562E-002  0.1863037E+03  0.7818608E-02  0.1162487E+00
         21   -1    0    0  503  502  0.00000000000E+00  0.00000000000E+00  0.25770024667E+04  0.25770024667E+04  0.00000000000E+00 0. -1.
         21   -1    0    0  501  503 -0.00000000000E+00 -0.00000000000E+00 -0.15851041576E+02  0.15851041576E+02  0.00000000000E+00 0. -1.
          6    2    1    2  501    0 -0.95212211558E+01  0.67465962676E+02  0.76534313039E+03  0.78769232166E+03  0.17339774103E+03 0.  0.
         24    2    3    3    0    0 -0.47018220412E+02  0.83413097801E+02  0.69776693601E+03  0.70864190662E+03  0.78270025456E+02 0.  0.
         -6    2    1    2    0  502  0.95212211558E+01 -0.67465962676E+02  0.17958082947E+04  0.18051611866E+04  0.17040295906E+03 0.  0.
        -24    2    5    5    0    0  0.39839779712E+02  0.20062039722E+02  0.91210076409E+03  0.91659973353E+03  0.78978314525E+02 0.  0.
          5    1    3    3  501    0  0.37496999257E+02 -0.15947135125E+02  0.67576194379E+02  0.79050415044E+02  0.47000000000E+01 0. -1.
        -13    1    4    4    0    0 -0.12297648557E+02  0.36195777849E+02  0.52123888748E+03  0.52263882779E+03  0.00000000000E+00 0.  1.
         14    1    4    4    0    0 -0.34720571855E+02  0.47217319953E+02  0.17652804853E+03  0.18600307882E+03  0.00000000000E+00 0. -1.
         -5    1    5    5    0  502 -0.30318558556E+02 -0.87528002398E+02  0.88370753065E+03  0.88856145310E+03  0.47000000000E+01 0.  1.
         13    1    6    6    0    0  0.12932799054E+01 -0.26906351191E+02  0.40019916188E+03  0.40110471635E+03  0.00000000000E+00 0. -1.
        -14    1    6    6    0    0  0.38546499806E+02  0.46968390913E+02  0.51190160221E+03  0.51549501718E+03  0.00000000000E+00 0.  1.
</event>
<event>
12    1  0.8462562E-002  0.3036247E+03  0.7818608E-02  0.1083700E+00
         21   -1    0    0  501  502  0.00000000000E+00  0.00000000000E+00  0.36744600841E+03  0.36744600841E+03  0.00000000000E+00 0. -1.
         21   -1    0    0  502  503 -0.00000000000E+00 -0.00000000000E+00 -0.26570524181E+03  0.26570524181E+03  0.00000000000E+00 0.  1.
         -6    2    1    2    0  503  0.24691285717E+03 -0.33608060274E+02 -0.28268636721E+02  0.30286290686E+03  0.16979800877E+03 0.  0.
        -24    2    3    3    0    0  0.22356303205E+03  0.10909554320E+02  0.11498089701E+02  0.23859382509E+03  0.81825177232E+02 0.  0.
          6    2    1    2  501    0 -0.24691285717E+03  0.33608060274E+02  0.13000940332E+03  0.33028834336E+03  0.17347185379E+03 0.  0.
         24    2    5    5    0    0 -0.23724376917E+03 -0.17725739143E+02  0.10118413335E+03  0.27044156889E+03  0.79382652408E+02 0.  0.
          5    1    5    5  501    0 -0.96690879977E+01  0.51333799417E+02  0.28825269976E+02  0.59846774470E+02  0.47000000000E+01 0. -1.
        -13    1    6    6    0    0 -0.11108259065E+03  0.13426803431E+02  0.11355370281E+02  0.11246584117E+03  0.00000000000E+00 0.  1.
         14    1    6    6    0    0 -0.12616117852E+03 -0.31152542574E+02  0.89828763064E+02  0.15797572772E+03  0.00000000000E+00 0. -1.
         -5    1    3    3    0  503  0.23349825120E+02 -0.44517614594E+02 -0.39766726423E+02  0.64269081778E+02  0.47000000000E+01 0.  1.
         11    1    4    4    0    0  0.98919040307E+02  0.36746524170E+02  0.30609105579E+02  0.10987356788E+03  0.00000000000E+00 0. -1.
        -12    1    4    4    0    0  0.12464399174E+03 -0.25836969850E+02 -0.19111015878E+02  0.12872025721E+03  0.00000000000E+00 0.  1.
</event>
<event>
12    1  0.8462562E-002  0.1851021E+03  0.7818608E-02  0.1163215E+00
         21   -1    0    0  501  502  0.00000000000E+00  0.00000000000E+00  0.13902312983E+03  0.13902312983E+03  0.00000000000E+00 0. -1.
         21   -1    0    0  502  503 -0.00000000000E+00 -0.00000000000E+00 -0.24829704644E+03  0.24829704644E+03  0.00000000000E+00 0. -1.
         -6    2    1    2    0  503 -0.22701962647E+02  0.66223393170E+02 -0.32393278214E+02  0.18791519042E+03  0.17135307819E+03 0.  0.
        -24    2    3    3    0    0  0.43572705456E+02  0.38599469182E+00 -0.61774142360E+01  0.90774796172E+02  0.79392528116E+02 0.  0.
          6    2    1    2  501    0  0.22701962647E+02 -0.66223393170E+02 -0.76880638392E+02  0.19940498585E+03  0.17014934297E+03 0.  0.
         24    2    5    5    0    0  0.45445509114E+02 -0.27457831734E+02 -0.10831113103E+03  0.14435951804E+03  0.79304114144E+02 0.  0.
          5    1    5    5  501    0 -0.22743546467E+02 -0.38765561436E+02  0.31430492641E+02  0.55045467815E+02  0.47000000000E+01 0. -1.
        -13    1    6    6    0    0  0.34632144082E+02  0.14333465921E+02 -0.12902615687E+02  0.39639767161E+02  0.00000000000E+00 0.  1.
         14    1    6    6    0    0  0.10813365032E+02 -0.41791297655E+02 -0.95408515347E+02  0.10471975088E+03  0.00000000000E+00 0. -1.
         -5    1    3    3    0  503 -0.66274668103E+02  0.65837398478E+02 -0.26215863978E+02  0.97140394248E+02  0.47000000000E+01 0.  1.
         11    1    4    4    0    0 -0.12715449289E+02  0.15965245795E+02 -0.22255949613E+02  0.30197665756E+02  0.00000000000E+00 0. -1.
        -12    1    4    4    0    0  0.56288154745E+02 -0.15579251103E+02  0.16078535377E+02  0.60577130416E+02  0.00000000000E+00 0.  1.
</event>
<event>
12    1  0.8462562E-002  0.2338641E+03  0.7818608E-02  0.1124600E+00
         21   -1    0    0  501  502  0.00000000000E+00  0.00000000000E+00  0.13796063523E+04  0.13796063523E+04  0.00000000000E+00 0. -1.
         21   -1    0    0  502  503 -0.00000000000E+00 -0.00000000000E+00 -0.55189859689E+02  0.55189859689E+02  0.00000000000E+00 0. -1.
         -6    2    1    2    0  503  0.11497050980E+03  0.10199541763E+03  0.27757200563E+03  0.36295815863E+03  0.17627002940E+03 0.  0.
        -24    2    3    3    0    0  0.87927293916E+02  0.12201357513E+03  0.28081591269E+03  0.32883082225E+03  0.81569671528E+02 0.  0.
          6    2    1    2  501    0 -0.11497050980E+03 -0.10199541763E+03  0.10468444870E+04  0.10718380533E+04  0.17126631125E+03 0.  0.
         24    2    5    5    0    0 -0.48416073285E+02  0.89404589055E+01  0.31006537750E+03  0.32377267662E+03  0.79146445527E+02 0.  0.
          5    1    5    5  501    0 -0.66554436511E+02 -0.11093587653E+03  0.73677910945E+03  0.74806537672E+03  0.47000000000E+01 0. -1.
        -13    1    6    6    0    0 -0.12793057006E+02  0.36946023247E+02  0.77163296206E+02  0.86503440525E+02  0.00000000000E+00 0.  1.
         14    1    6    6    0    0 -0.35623016279E+02 -0.28005564341E+02  0.23290208130E+03  0.23726923609E+03  0.00000000000E+00 0. -1.
         -5    1    3    3    0  503  0.27043215880E+02 -0.20018157507E+02 -0.32439070561E+01  0.34127336375E+02  0.47000000000E+01 0.  1.
         11    1    4    4    0    0  0.35908960475E+02  0.11121575503E+03  0.17515178252E+03  0.21056244805E+03  0.00000000000E+00 0. -1.
        -12    1    4    4    0    0  0.52018333441E+02  0.10797820108E+02  0.10566413017E+03  0.11826837420E+03  0.00000000000E+00 0.  1.
</event>
<event>
12    1  0.8462562E-002  0.2032102E+03  0.7818608E-02  0.1147369E+00
         21   -1    0    0  501  502  0.00000000000E+00  0.00000000000E+00  0.14657798664E+03  0.14657798664E+03  0.00000000000E+00 0.  1.
         21   -1    0    0  502  503 -0.00000000000E+00 -0.00000000000E+00 -0.28718791837E+03  0.28718791837E+03  0.00000000000E+00 0.  1.
         -6    2    1    2    0  503  0.27006176139E+02  0.10179327163E+03 -0.34912828830E+02  0.20471074459E+03  0.17203598355E+03 0.  0.
        -24    2    3    3    0    0  0.22925397606E+02 -0.73137156617E+01  0.17042895643E+02  0.83704650796E+02  0.78338649343E+02 0.  0.
          6    2    1    2  501    0 -0.27006176139E+02 -0.10179327163E+03 -0.10569710291E+03  0.22905516042E+03  0.17379063626E+03 0.  0.
         24    2    5    5    0    0 -0.35074414028E+02 -0.12967149913E+03 -0.11954941628E+03  0.19655487401E+03  0.79352651883E+02 0.  0.
          5    1    5    5  501    0  0.80682378894E+01  0.27878227494E+02  0.13852313367E+02  0.32500286406E+02  0.47000000000E+01 0. -1.
        -11    1    6    6    0    0 -0.56372253948E+02 -0.95979037979E+02 -0.64685247678E+02  0.12874000161E+03  0.00000000000E+00 0.  1.
         12    1    6    6    0    0  0.21297839920E+02 -0.33692461148E+02 -0.54864168597E+02  0.67814872405E+02  0.00000000000E+00 0. -1.
         -5    1    3    3    0  503  0.40807785326E+01  0.10910698729E+03 -0.51955724473E+02  0.12100609379E+03  0.47000000000E+01 0.  1.
         11    1    4    4    0    0  0.47997415076E+02 -0.36919870301E+01 -0.71601786950E+01  0.48668786518E+02  0.00000000000E+00 0. -1.
        -12    1    4    4    0    0 -0.25072017470E+02 -0.36217286317E+01  0.24203074338E+02  0.35035864278E+02  0.00000000000E+00 0.  1.
</event>
<event>
12    1  0.8462562E-002  0.2111023E+03  0.7818608E-02  0.1140747E+00
         21   -1    0    0  503  502  0.00000000000E+00  0.00000000000E+00  0.82639883822E+03  0.82639883822E+03  0.00000000000E+00 0.  1.
         21   -1    0    0  501  503 -0.00000000000E+00 -0.00000000000E+00 -0.53876498017E+02  0.53876498017E+02  0.00000000000E+00 0.  1.
          6    2    1    2  501    0  0.12095032868E+03  0.17806783982E+02  0.39376538290E+03  0.44666141728E+03  0.17178236623E+03 0.  0.
         24    2    3    3    0    0  0.57186276340E+02  0.63368132380E+02  0.15054379607E+03  0.19108262093E+03  0.81014462192E+02 0.  0.
         -6    2    1    2    0  502 -0.12095032868E+03 -0.17806783982E+02  0.37875695730E+03  0.43361391896E+03  0.17209919945E+03 0.  0.
        -24    2    5    5    0    0 -0.92743209493E+02 -0.38487484533E+01  0.12327072911E+03  0.17615368684E+03  0.84960773071E+02 0.  0.
          5    1    3    3  501    0  0.63764052339E+02 -0.45561348398E+02  0.24322158683E+03  0.25557879634E+03  0.47000000000E+01 0. -1.
        -11    1    4    4    0    0  0.40674699963E+02 -0.10475286320E+02  0.52355777387E+02  0.67121459061E+02  0.00000000000E+00 0.  1.
         12    1    4    4    0    0  0.16511576377E+02  0.73843418700E+02  0.98188018683E+02  0.12396116187E+03  0.00000000000E+00 0. -1.
         -5    1    5    5    0  502 -0.28207119186E+02 -0.13958035529E+02  0.25548622819E+03  0.25746023212E+03  0.47000000000E+01 0.  1.
         13    1    6    6    0    0 -0.23722722314E+02 -0.29834152386E+02  0.74374779035E+01  0.38835039335E+02  0.00000000000E+00 0. -1.
        -14    1    6    6    0    0 -0.69020487178E+02  0.25985403933E+02  0.11583325121E+03  0.13731864751E+03  0.00000000000E+00 0.  1.
</event>
<event>
12    1  0.8462562E-002  0.1819838E+03  0.7818608E-02  0.1166054E+00
         21   -1    0    0  503  502  0.00000000000E+00  0.00000000000E+00  0.23013874605E+03  0.23013874605E+03  0.00000000000E+00 0. -1.
         21   -1    0    0  501  503 -0.00000000000E+00 -0.00000000000E+00 -0.80331465032E+03  0.80331465032E+03  0.00000000000E+00 0. -1.
          6    2    1    2  501    0  0.55778405648E+02 -0.20271009385E+02 -0.75484104226E+03  0.77631468944E+03  0.17133987746E+03 0.  0.
         24    2    3    3    0    0 -0.32881972121E+02 -0.25687625312E+02 -0.40636951829E+03  0.41666973211E+03  0.82075587607E+02 0.  0.
         -6    2    1    2    0  502 -0.55778405648E+02  0.20271009385E+02  0.18166513799E+03  0.25713870694E+03  0.17203472872E+03 0.  0.
        -24    2    5    5    0    0 -0.81113317826E+02 -0.29825521536E+02  0.84474878932E+02  0.14480190691E+03  0.79766252320E+02 0.  0.
          5    1    3    3  501    0  0.88660377769E+02  0.54166159272E+01 -0.34847152397E+03  0.35964495733E+03  0.47000000000E+01 0. -1.
        -13    1    4    4    0    0 -0.53473867961E+02 -0.40489505697E+01 -0.16590091257E+03  0.17435297918E+03  0.00000000000E+00 0.  1.
         14    1    4    4    0    0  0.20591895840E+02 -0.21638674743E+02 -0.24046860572E+03  0.24231675294E+03  0.00000000000E+00 0. -1.
         -5    1    5    5    0  502  0.25334912178E+02  0.50096530921E+02  0.97190259057E+02  0.11233680003E+03  0.47000000000E+01 0.  1.
         13    1    6    6    0    0 -0.10078789891E+02  0.93964219660E+01 -0.12327479226E+02  0.18488956041E+02  0.00000000000E+00 0. -1.
        -14    1    6    6    0    0 -0.71034527936E+02 -0.39221943502E+02  0.96802358158E+02  0.12631295086E+03  0.00000000000E+00 0.  1.
</event>
<event>
12    1  0.8462562E-002  0.2434345E+03  0.7818608E-02  0.1117623E+00
         21   -1    0    0  501  502  0.00000000000E+00  0.00000000000E+00  0.17867336278E+03  0.17867336278E+03  0.00000000000E+00 0.  1.
         21   -1    0    0  502  503 -0.00000000000E+00 -0.00000000000E+00 -0.61450317644E+03  0.61450317644E+03  0.00000000000E+00 0. -1.
         -6    2    1    2    0  503 -0.15058489606E+03  0.84079741758E+02 -0.48721275109E+03  0.54437831505E+03  0.17095692786E+03 0.  0.
        -24    2    3    3    0    0 -0.10176131597E+03  0.45700758773E+02 -0.15845071885E+03  0.20976921155E+03  0.80327872050E+02 0.  0.
          6    2    1    2  501    0  0.15058489606E+03 -0.84079741758E+02  0.51382937428E+02  0.24879822417E+03  0.17179969790E+03 0.  0.
         24    2    5    5    0    0  0.85401153491E+02  0.22399758200E+02  0.25477638102E+02  0.12120520422E+03  0.79034709479E+02 0.  0.
          5    1    5    5  501    0  0.65183742572E+02 -0.10647949996E+03  0.25905299326E+02  0.12759301995E+03  0.47000000000E+01 0. -1.
        -11    1    6    6    0    0  0.83232190723E+02  0.81487702489E+01  0.46520606367E+02  0.95698311615E+02  0.00000000000E+00 0.  1.
         12    1    6    6    0    0  0.21689627680E+01  0.14250987952E+02 -0.21042968266E+02  0.25506892608E+02  0.00000000000E+00 0. -1.
         -5    1    3    3    0  503 -0.48823580088E+02  0.38378982985E+02 -0.32876203224E+03  0.33460910351E+03  0.47000000000E+01 0.  1.
         13    1    4    4    0    0 -0.58004058472E+02  0.21069683652E+02 -0.14530004358E+03  0.15786229769E+03  0.00000000000E+00 0. -1.
        -14    1    4    4    0    0 -0.43757257503E+02  0.24631075121E+02 -0.13150675267E+02  0.51906913853E+02  0.00000000000E+00 0.  1.
</event>
<event>
12    1  0.8462562E-002  0.1780130E+03  0.7818608E-02  0.1169902E+00
         21   -1    0    0  503  502  0.00000000000E+00  0.00000000000E+00  0.53644716631E+02  0.53644716631E+02  0.00000000000E+00 0. -1.
         21   -1    0    0  501  503 -0.00000000000E+00 -0.00000000000E+00 -0.58897907326E+03  0.58897907326E+03  0.00000000000E+00 0. -1.
          6    2    1    2  501    0  0.38143770021E+02 -0.26719363599E+02 -0.27604244466E+03  0.32810682831E+03  0.17113090880E+03 0.  0.
         24    2    3    3    0    0 -0.16809667737E+02  0.25678235634E+02 -0.21129557110E+03  0.22820869838E+03  0.80569565821E+02 0.  0.
         -6    2    1    2    0  502 -0.38143770021E+02  0.26719363599E+02 -0.25929191197E+03  0.31451696158E+03  0.17181313084E+03 0.  0.
        -24    2    5    5    0    0 -0.54072087259E+02  0.60956185035E+02 -0.25107164914E+03  0.27558710218E+03  0.79194891070E+02 0.  0.
          5    1    3    3  501    0  0.54953437759E+02 -0.52397599233E+02 -0.64746873561E+02  0.99898129927E+02  0.47000000000E+01 0. -1.
        -11    1    4    4    0    0 -0.31264204495E+02  0.27518807681E+02 -0.45155588617E+02  0.61430956710E+02  0.00000000000E+00 0.  1.
         12    1    4    4    0    0  0.14454536758E+02 -0.18405720465E+01 -0.16613998248E+03  0.16677774167E+03  0.00000000000E+00 0. -1.
         -5    1    5    5    0  502  0.15928317238E+02 -0.34236821437E+02 -0.82202628293E+01  0.38929859402E+02  0.47000000000E+01 0.  1.
         13    1    6    6    0    0 -0.11693212679E+02  0.50677102165E+02 -0.59103011419E+02  0.78727796015E+02  0.00000000000E+00 0. -1.
        -14    1    6    6    0    0 -0.42378874580E+02  0.10279082870E+02 -0.19196863772E+03  0.19685930616E+03  0.00000000000E+00 0.  1.
</event>
<event>
12    1  0.8462562E-002  0.1994693E+03  0.7818608E-02  0.1151464E+00
         21   -1    0    0  503  502  0.00000000000E+00  0.00000000000E+00  0.18173805048E+03  0.18173805048E+03  0.00000000000E+00 0.  1.
         21   -1    0    0  501  503 -0.00000000000E+00 -0.00000000000E+00 -0.22330212091E+03  0.22330212091E+03  0.00000000000E+00 0.  1.
          6    2    1    2  501    0  0.54179274137E+02 -0.66471803600E+02 -0.65086614239E+02  0.20418866785E+03  0.17350172997E+03 0.  0.
         24    2    3    3    0    0  0.45812861937E+02 -0.10817762281E+03 -0.74302359347E+02  0.16041205118E+03  0.80062283032E+02 0.  0.
         -6    2    1    2    0  502 -0.54179274137E+02  0.66471803600E+02  0.23522543806E+02  0.20085150355E+03  0.18009475836E+03 0.  0.
        -24    2    5    5    0    0 -0.77569215917E+02 -0.42178182581E+01 -0.23246502891E+02  0.11279728307E+03  0.78409526985E+02 0.  0.
          5    1    3    3  501    0  0.83664122002E+01  0.41705819207E+02  0.92157451074E+01  0.43776616666E+02  0.47000000000E+01 0. -1.
        -13    1    4    4    0    0 -0.37909461274E+01 -0.67577693928E+02 -0.68096483381E+02  0.96011702610E+02  0.00000000000E+00 0.  1.
         14    1    4    4    0    0  0.49603808065E+02 -0.40599928879E+02 -0.62058759653E+01  0.64400348570E+02  0.00000000000E+00 0. -1.
         -5    1    5    5    0  502  0.23389941780E+02  0.70689621858E+02  0.46769046697E+02  0.88054220477E+02  0.47000000000E+01 0.  1.
         13    1    6    6    0    0 -0.53617589319E+02 -0.34668104363E+02  0.61795803797E+01  0.64147568607E+02  0.00000000000E+00 0. -1.
        -14    1    6    6    0    0 -0.23951626598E+02  0.30450286105E+02 -0.29426083271E+02  0.48649714462E+02  0.00000000000E+00 0.  1.
</event>
<event>
12    1  0.8462562E-002  0.2133098E+03  0.7818608E-02  0.1139131E+00
         21   -1    0    0  503  502  0.00000000000E+00  0.00000000000E+00  0.27246111515E+03  0.27246111515E+03  0.00000000000E+00 0.  1.
         21   -1    0    0  501  503 -0.00000000000E+00 -0.00000000000E+00 -0.18250779690E+03  0.18250779690E+03  0.00000000000E+00 0.  1.
          6    2    1    2  501    0 -0.67234573191E+02 -0.10362130740E+03 -0.22616724085E+02  0.21450548759E+03  0.17390579294E+03 0.  0.
         24    2    3    3    0    0 -0.94332008328E+02 -0.12468512091E+03 -0.45512084740E+01  0.17543621469E+03  0.79449636604E+02 0.  0.
         -6    2    1    2    0  502  0.67234573191E+02  0.10362130740E+03  0.11257004234E+03  0.24046342446E+03  0.17289528880E+03 0.  0.
        -24    2    5    5    0    0 -0.19602617587E+02  0.91143122716E+02  0.71615041457E+02  0.14353146434E+03  0.82348258376E+02 0.  0.
          5    1    3    3  501    0  0.27097435137E+02  0.21063813505E+02 -0.18065515611E+02  0.39069272896E+02  0.47000000000E+01 0. -1.
        -13    1    4    4    0    0 -0.10552530446E+03 -0.89590292708E+02 -0.61664724364E+01  0.13856419383E+03  0.00000000000E+00 0.  1.
         14    1    4    4    0    0  0.11193296137E+02 -0.35094828199E+02  0.16152639624E+01  0.36872020862E+02  0.00000000000E+00 0. -1.
         -5    1    5    5    0  502  0.86837190778E+02  0.12478184686E+02  0.40955000881E+02  0.96931960118E+02  0.47000000000E+01 0.  1.
         13    1    6    6    0    0  0.23741057640E+02  0.39302003085E+01  0.26790923826E+01  0.24212844284E+02  0.00000000000E+00 0. -1.
        -14    1    6    6    0    0 -0.43343675226E+02  0.87212922408E+02  0.68935949074E+02  0.11931862005E+03  0.00000000000E+00 0.  1.
</event>
<event>
12    1  0.8462562E-002  0.2479701E+03  0.7818608E-02  0.1114669E+00
         21   -1    0    0  503  502  0.00000000000E+00  0.00000000000E+00  0.11995304420E+03  0.11995304420E+03  0.00000000000E+00 0. -1.
         21   -1    0    0  501  503 -0.00000000000E+00 -0.00000000000E+00 -0.51481505234E+03  0.51481505234E+03  0.00000000000E+00 0.  1.
          6    2    1    2  501    0  0.16495535268E+03  0.67555218366E+02 -0.22213264230E+03  0.33256848995E+03  0.17171171722E+03 0.  0.
         24    2    3    3    0    0  0.14235370408E+03 -0.44882340288E+01 -0.17840365245E+03  0.24518766766E+03  0.89467356354E+02 0.  0.
         -6    2    1    2    0  502 -0.16495535268E+03 -0.67555218366E+02 -0.17272936584E+03  0.30219960658E+03  0.17238095165E+03 0.  0.
        -24    2    5    5    0    0 -0.28289305220E+02 -0.29273969237E+02 -0.12176877816E+03  0.15132835664E+03  0.80096105548E+02 0.  0.
          5    1    3    3  501    0  0.22601648601E+02  0.72043452395E+02 -0.43728989840E+02  0.87380822295E+02  0.47000000000E+01 0. -1.
        -11    1    4    4    0    0  0.69764088143E+02  0.13026595898E+02 -0.14880533356E+03  0.16486281415E+03  0.00000000000E+00 0.  1.
         12    1    4    4    0    0  0.72589615936E+02 -0.17514829927E+02 -0.29598318896E+02  0.80324853505E+02  0.00000000000E+00 0. -1.
         -5    1    5    5    0  502 -0.13666604746E+03 -0.38281249129E+02 -0.50960587676E+02  0.15087124994E+03  0.47000000000E+01 0.  1.
         11    1    6    6    0    0  0.72851178921E+01 -0.47533359415E+02 -0.81160922945E+02  0.94337630950E+02  0.00000000000E+00 0. -1.
        -12    1    6    6    0    0 -0.35574423113E+02  0.18259390179E+02 -0.40607855217E+02  0.56990725691E+02  0.00000000000E+00 0.  1.
</event>
<event>
12    1  0.8462562E-002  0.2601845E+03  0.7818608E-02  0.1107879E+00
         21   -1    0    0  501  502  0.00000000000E+00  0.00000000000E+00  0.32603077304E+03  0.32603077304E+03  0.00000000000E+00 0.  1.
         21   -1    0    0  502  503 -0.00000000000E+00 -0.00000000000E+00 -0.20472380241E+03  0.20472380241E+03  0.00000000000E+00 0. -1.
         -6    2    1    2    0  503 -0.14170813763E+03  0.13181001556E+03  0.37189552301E+02  0.25731042269E+03  0.16544036495E+03 0.  0.
        -24    2    3    3    0    0 -0.14093395575E+03  0.57366260420E+02  0.55198612324E+02  0.18057133044E+03  0.80036559504E+02 0.  0.
          6    2    1    2  501    0  0.14170813763E+03 -0.13181001556E+03  0.84117418333E+02  0.27344415276E+03  0.17389907457E+03 0.  0.
         24    2    5    5    0    0  0.16020180995E+03 -0.68018774063E+02  0.47212832565E+02  0.19731678016E+03  0.80085495801E+02 0.  0.
          5    1    5    5  501    0 -0.18493672324E+02 -0.63791241492E+02  0.36904585768E+02  0.76127372592E+02  0.47000000000E+01 0. -1.
        -13    1    6    6    0    0  0.90061335925E+02 -0.23510556376E+01  0.46157792358E+02  0.10122802718E+03  0.00000000000E+00 0.  1.
         14    1    6    6    0    0  0.70140474028E+02 -0.65667718425E+02  0.10550402069E+01  0.96088752984E+02  0.00000000000E+00 0. -1.
         -5    1    3    3    0  503 -0.77418187953E+00  0.74443755135E+02 -0.18009060024E+02  0.76739092249E+02  0.47000000000E+01 0.  1.
         11    1    4    4    0    0 -0.85315512731E+02  0.28550642294E+02  0.72548409322E+02  0.11557312656E+03  0.00000000000E+00 0. -1.
        -12    1    4    4    0    0 -0.55618443019E+02  0.28815618126E+02 -0.17349796998E+02  0.64998203880E+02  0.00000000000E+00 0.  1.
</event>
<event>
12    1  0.8462562E-002  0.1842738E+03  0.7818608E-02  0.1164325E+00
         21   -1    0    0  501  502  0.00000000000E+00  0.00000000000E+00  0.18630662472E+03  0.18630662472E+03  0.00000000000E+00 0.  1.
         21   -1    0    0  502  503 -0.00000000000E+00 -0.00000000000E+00 -0.19124126580E+03  0.19124126580E+03  0.00000000000E+00 0. -1.
         -6    2    1    2    0  503  0.54283238360E+02 -0.35556494209E+02 -0.48691162247E+02  0.19059816015E+03  0.17246998325E+03 0.  0.
        -24    2    3    3    0    0 -0.15497419433E+02 -0.69155905096E+02 -0.25557748022E+02  0.10963208412E+03  0.79644749763E+02 0.  0.
          6    2    1    2  501    0 -0.54283238360E+02  0.35556494209E+02  0.43756521175E+02  0.18694973037E+03  0.16977819146E+03 0.  0.
         24    2    5    5    0    0 -0.19573086526E+02 -0.40319992152E+02  0.46643100708E+02  0.10332881096E+03  0.80575783253E+02 0.  0.
          5    1    5    5  501    0 -0.34710151834E+02  0.75876486360E+02 -0.28865795328E+01  0.83620919417E+02  0.47000000000E+01 0. -1.
        -11    1    6    6    0    0  0.53959374576E+01  0.16446876406E+02  0.36624938513E+02  0.40509282956E+02  0.00000000000E+00 0.  1.
         12    1    6    6    0    0 -0.24969023984E+02 -0.56766868557E+02  0.10018162196E+02  0.62819528001E+02  0.00000000000E+00 0. -1.
         -5    1    3    3    0  503  0.69780657794E+02  0.33599410887E+02 -0.23133414225E+02  0.80966076031E+02  0.47000000000E+01 0.  1.
         13    1    4    4    0    0  0.17423776222E+02  0.10531061986E+02 -0.59557343349E+01  0.21212308122E+02  0.00000000000E+00 0. -1.
        -14    1    4    4    0    0 -0.32921195656E+02 -0.79686967082E+02 -0.19602013687E+02  0.88419775993E+02  0.00000000000E+00 0.  1.
</event>
<event>
12    1  0.8462562E-002  0.2141096E+03  0.7818608E-02  0.1138949E+00
         21   -1    0    0  501  502  0.00000000000E+00  0.00000000000E+00  0.36030150191E+03  0.36030150191E+03  0.00000000000E+00 0.  1.
         21   -1    0    0  502  503 -0.00000000000E+00 -0.00000000000E+00 -0.13645684358E+03  0.13645684358E+03  0.00000000000E+00 0.  1.
         -6    2    1    2    0  503  0.47417335656E+02 -0.11594784769E+03  0.42024619236E+02  0.21819484810E+03  0.17363932738E+03 0.  0.
        -24    2    3    3    0    0  0.62608729254E+02 -0.66332933491E+02 -0.35184742856E+02  0.12505090710E+03  0.77973406962E+02 0.  0.
          6    2    1    2  501    0 -0.47417335656E+02  0.11594784769E+03  0.18182003910E+03  0.27856349739E+03  0.16984342306E+03 0.  0.
         24    2    5    5    0    0 -0.20173702681E+02  0.11686533493E+03  0.19988024109E+03  0.24552839157E+03  0.79168147026E+02 0.  0.
          5    1    5    5  501    0 -0.27243632975E+02 -0.91748723746E+00 -0.18060201990E+02  0.33035105819E+02  0.47000000000E+01 0. -1.
        -11    1    6    6    0    0 -0.15571135908E+02  0.85479456283E+02  0.69264945353E+02  0.11111629212E+03  0.00000000000E+00 0.  1.
         12    1    6    6    0    0 -0.46025667722E+01  0.31385878642E+02  0.13061529573E+03  0.13441209945E+03  0.00000000000E+00 0. -1.
         -5    1    3    3    0  503 -0.15191393598E+02 -0.49614914197E+02  0.77209362093E+02  0.93143941000E+02  0.47000000000E+01 0.  1.
         13    1    4    4    0    0 -0.97235045453E+01 -0.30594749007E+02 -0.30427394445E+02  0.44231341152E+02  0.00000000000E+00 0. -1.
        -14    1    4    4    0    0  0.72332233799E+02 -0.35738184484E+02 -0.47573484114E+01  0.80819565951E+02  0.00000000000E+00 0.  1.
</event>
<event>
12    1  0.8462562E-002  0.2154202E+03  0.7818608E-02  0.1138016E+00
         21   -1    0    0  503  502  0.00000000000E+00  0.00000000000E+00  0.14053416553E+04  0.14053416553E+04  0.00000000000E+00 0. -1.
         21   -1    0    0  501  503 -0.00000000000E+00 -0.00000000000E+00 -0.80006608570E+02  0.80006608570E+02  0.00000000000E+00 0.  1.
          6    2    1    2  501    0 -0.23685299243E+02 -0.12186034131E+03  0.92520908013E+02  0.23444827011E+03  0.17605378938E+03 0.  0.
         24    2    3    3    0    0  0.18812652292E+02 -0.13563476384E+03  0.10180586000E+03  0.18857768112E+03  0.80289498945E+02 0.  0.
         -6    2    1    2    0  502  0.23685299243E+02  0.12186034131E+03  0.12328141387E+04  0.12508999937E+04  0.17178229707E+03 0.  0.
        -24    2    5    5    0    0  0.94628978841E+01  0.61178247578E+02  0.10870700118E+04  0.10923186780E+04  0.87215590225E+02 0.  0.
          5    1    3    3  501    0 -0.42497951535E+02  0.13774422527E+02 -0.92849519831E+01  0.45870588987E+02  0.47000000000E+01 0. -1.
        -11    1    4    4    0    0  0.46354781260E+02 -0.10640436951E+03  0.60186930334E+02  0.13074066765E+03  0.00000000000E+00 0.  1.
         12    1    4    4    0    0 -0.27542128968E+02 -0.29230394331E+02  0.41618929662E+02  0.57837013469E+02  0.00000000000E+00 0. -1.
         -5    1    5    5    0  502  0.14222401359E+02  0.60682093732E+02  0.14574412687E+03  0.15858131579E+03  0.47000000000E+01 0.  1.
         11    1    6    6    0    0 -0.24466458672E+02  0.24278744039E+02  0.81116183053E+03  0.81189382330E+03  0.00000000000E+00 0. -1.
        -12    1    6    6    0    0  0.33929356556E+02  0.36899503539E+02  0.27590818130E+03  0.28042485465E+03  0.00000000000E+00 0.  1.
</event>
<event>
12    1  0.8462562E-002  0.2508833E+03  0.7818608E-02  0.1112895E+00
         21   -1    0    0  501  502  0.00000000000E+00  0.00000000000E+00  0.29696967404E+02  0.29696967404E+02  0.00000000000E+00 0. -1.
         21   -1    0    0  502  503 -0.00000000000E+00 -0.00000000000E+00 -0.25700649603E+04  0.25700649603E+04  0.00000000000E+00 0.  1.
         -6    2    1    2    0  503 -0.11590302911E+03 -0.14102147348E+03 -0.18172484701E+04  0.18343572662E+04  0.17074545370E+03 0.  0.
        -24    2    3    3    0    0 -0.42793329209E+02 -0.28255463208E+02 -0.11455103470E+04  0.11492912859E+04  0.77761588772E+02 0.  0.
          6    2    1    2  501    0  0.11590302911E+03  0.14102147348E+03 -0.72311952277E+03  0.76540466144E+03  0.17211009096E+03 0.  0.
         24    2    5    5    0    0  0.64822993914E+02  0.27714773333E+02 -0.48842874391E+03  0.49979323478E+03  0.79123387508E+02 0.  0.
          5    1    5    5  501    0  0.51080035191E+02  0.11330670015E+03 -0.23469077885E+03  0.26561142666E+03  0.47000000000E+01 0. -1.
        -13    1    6    6    0    0  0.41164197731E+02  0.33985630785E+02 -0.13004380814E+03  0.14057349078E+03  0.00000000000E+00 0.  1.
         14    1    6    6    0    0  0.23658796183E+02 -0.62708574514E+01 -0.35838493578E+03  0.35921974400E+03  0.00000000000E+00 0. -1.
         -5    1    3    3    0  503 -0.73109699897E+02 -0.11276601028E+03 -0.67173812314E+03  0.68506598030E+03  0.47000000000E+01 0.  1.
         13    1    4    4    0    0 -0.22529460431E+02 -0.27919413854E+02 -0.17854955485E+03  0.18211813143E+03  0.00000000000E+00 0. -1.
        -14    1    4    4    0    0 -0.20263868778E+02 -0.33604935409E+00 -0.96696079212E+03  0.96717315451E+03  0.00000000000E+00 0.  1.
</event>
<event>
12    1  0.8462562E-002  0.3538941E+03  0.7818608E-02  0.1061215E+00
         21   -1    0    0  501  502  0.00000000000E+00  0.00000000000E+00  0.11855383027E+04  0.11855383027E+04  0.00000000000E+00 0.  1.
         21   -1    0    0  502  503 -0.00000000000E+00 -0.00000000000E+00 -0.10835100483E+03  0.10835100483E+03  0.00000000000E+00 0.  1.
         -6    2    1    2    0  503  0.98335737888E+02  0.29048585516E+03  0.64942311661E+03  0.73871074374E+03  0.17289080117E+03 0.  0.
        -24    2    3    3    0    0 -0.40860484739E+01  0.19832221335E+03  0.38325287866E+03  0.43895576919E+03  0.80318131238E+02 0.  0.
          6    2    1    2  501    0 -0.98335737888E+02 -0.29048585516E+03  0.42776418126E+03  0.55517856378E+03  0.17660434174E+03 0.  0.
         24    2    5    5    0    0 -0.68281912745E+02 -0.16517923275E+03  0.35530309505E+03  0.40726750591E+03  0.87635229678E+02 0.  0.
          5    1    5    5  501    0 -0.30053825143E+02 -0.12530662241E+03  0.72461086209E+02  0.14791105787E+03  0.47000000000E+01 0. -1.
        -11    1    6    6    0    0 -0.57524904876E+02 -0.15544161570E+03  0.35605094262E+03  0.39273844262E+03  0.00000000000E+00 0.  1.
         12    1    6    6    0    0 -0.10757007868E+02 -0.97376170548E+01 -0.74784757043E+00  0.14529063293E+02  0.00000000000E+00 0. -1.
         -5    1    3    3    0  503  0.10242178636E+03  0.92163641813E+02  0.26617023795E+03  0.29975497454E+03  0.47000000000E+01 0.  1.
         11    1    4    4    0    0 -0.27601662647E+01  0.56738603150E+01 -0.32517046933E+01  0.70982245735E+01  0.00000000000E+00 0. -1.
        -12    1    4    4    0    0 -0.13258822091E+01  0.19264835304E+03  0.38650458335E+03  0.43185754462E+03  0.00000000000E+00 0.  1.
</event>
<event>
12    1  0.8462562E-002  0.2105848E+03  0.7818608E-02  0.1141123E+00
         21   -1    0    0  503  502  0.00000000000E+00  0.00000000000E+00  0.14796142772E+03  0.14796142772E+03  0.00000000000E+00 0.  1.
         21   -1    0    0  501  503 -0.00000000000E+00 -0.00000000000E+00 -0.32444291074E+03  0.32444291074E+03  0.00000000000E+00 0. -1.
          6    2    1    2  501    0 -0.10755350094E+03  0.57578334766E+02 -0.15365728944E+03  0.26068467454E+03  0.17164765288E+03 0.  0.
         24    2    3    3    0    0 -0.10164470556E+03 -0.51532776819E+01 -0.50388265451E+02  0.13961960782E+03  0.81218564089E+02 0.  0.
         -6    2    1    2    0  502  0.10755350094E+03 -0.57578334766E+02 -0.22824193577E+02  0.21171966392E+03  0.17152624312E+03 0.  0.
        -24    2    5    5    0    0  0.69792550718E+02 -0.32566415164E+02 -0.80347887381E+02  0.13835379425E+03  0.82185265365E+02 0.  0.
          5    1    3    3  501    0 -0.59087953785E+01  0.62731612448E+02 -0.10326902399E+03  0.12106506672E+03  0.47000000000E+01 0. -1.
        -11    1    4    4    0    0 -0.42280010646E+02  0.16037790418E+02  0.16101010636E+02  0.48000547552E+02  0.00000000000E+00 0.  1.
         12    1    4    4    0    0 -0.59364694916E+02 -0.21191068100E+02 -0.66489276087E+02  0.91619060268E+02  0.00000000000E+00 0. -1.
         -5    1    5    5    0  502  0.37760950223E+02 -0.25011919602E+02  0.57523693804E+02  0.73365869673E+02  0.47000000000E+01 0.  1.
         13    1    6    6    0    0  0.60832711952E+01 -0.34020436344E+02  0.15366081990E+01  0.34594182202E+02  0.00000000000E+00 0. -1.
        -14    1    6    6    0    0  0.63709279523E+02  0.14540211807E+01 -0.81884495580E+02  0.10375961204E+03  0.00000000000E+00 0.  1.
</event>
<event>
12    1  0.8462562E-002  0.2871102E+03  0.7818608E-02  0.1092002E+00
         21   -1    0    0  501  502  0.00000000000E+00  0.00000000000E+00  0.42458796710E+03  0.42458796710E+03  0.00000000000E+00 0. -1.
         21   -1    0    0  502  503 -0.00000000000E+00 -0.00000000000E+00 -0.27881627128E+03  0.27881627128E+03  0.00000000000E+00 0.  1.
         -6    2    1    2    0  503 -0.18684363161E+03  0.13183636438E+03  0.26757093904E+03  0.39246204341E+03  0.17361128549E+03 0.  0.
        -24    2    3    3    0    0 -0.82890798728E+02  0.49604262721E+02  0.21618325626E+03  0.25022599330E+03  0.80909703032E+02 0.  0.
          6    2    1    2  501    0  0.18684363161E+03 -0.13183636438E+03 -0.12179924322E+03  0.31094219497E+03  0.17192621475E+03 0.  0.
         24    2    5    5    0    0  0.58418624125E+02 -0.40559618197E+02 -0.36572192514E+01  0.11395474672E+03  0.88963423798E+02 0.  0.
          5    1    5    5  501    0  0.12842500749E+03 -0.91276746187E+02 -0.11814202397E+03  0.19698744825E+03  0.47000000000E+01 0. -1.
        -13    1    6    6    0    0 -0.23066869281E+02 -0.29004772384E+01  0.49713750384E+01  0.23774099277E+02  0.00000000000E+00 0.  1.
         14    1    6    6    0    0  0.81485493407E+02 -0.37659140959E+02 -0.86285942898E+01  0.90180647441E+02  0.00000000000E+00 0. -1.
         -5    1    3    3    0  503 -0.10395283288E+03  0.82232101663E+02  0.51387682788E+02  0.14223605011E+03  0.47000000000E+01 0.  1.
         11    1    4    4    0    0 -0.74182605603E+02  0.71100506556E+02  0.17330362798E+03  0.20147577640E+03  0.00000000000E+00 0. -1.
        -12    1    4    4    0    0 -0.87081931245E+01 -0.21496243835E+02  0.42879628279E+02  0.48750216901E+02  0.00000000000E+00 0.  1.
</event>
<event>
12    1  0.8462562E-002  0.1842438E+03  0.7818608E-02  0.1163794E+00
         21   -1    0    0  503  502  0.00000000000E+00  0.00000000000E+00  0.14690256191E+04  0.14690256191E+04  0.00000000000E+00 0. -1.
         21   -1    0    0  501  503 -0.00000000000E+00 -0.00000000000E+00 -0.24204256487E+02  0.24204256487E+02  0.00000000000E+00 0. -1.
          6    2    1    2  501    0  0.45913078882E+02 -0.47902018858E+02  0.56239835325E+03  0.59180882435E+03  0.17188124567E+03 0.  0.
         24    2    3    3    0    0  0.96055099049E+02 -0.51412680961E+02  0.39909071743E+03  0.42087602805E+03  0.77416951808E+02 0.  0.
         -6    2    1    2    0  502 -0.45913078882E+02  0.47902018858E+02  0.88242300939E+03  0.90142105127E+03  0.17171758775E+03 0.  0.
        -24    2    5    5    0    0  0.34924146991E+01  0.21940995396E+02  0.78261338088E+03  0.78697049654E+03  0.79657104157E+02 0.  0.
          5    1    3    3  501    0 -0.50142020167E+02  0.35106621033E+01  0.16330763582E+03  0.17093279630E+03  0.47000000000E+01 0. -1.
        -13    1    4    4    0    0  0.35444887248E+02  0.14078426210E+02  0.67934118034E+02  0.77907551044E+02  0.00000000000E+00 0.  1.
         14    1    4    4    0    0  0.60610211800E+02 -0.65491107171E+02  0.33115659940E+03  0.34296847701E+03  0.00000000000E+00 0. -1.
         -5    1    5    5    0  502 -0.49405493581E+02  0.25961023462E+02  0.99809628507E+02  0.11445055473E+03  0.47000000000E+01 0.  1.
         13    1    6    6    0    0  0.31999321631E+02  0.18848985549E+02  0.18616213180E+03  0.18983039840E+03  0.00000000000E+00 0. -1.
        -14    1    6    6    0    0 -0.28506906932E+02  0.30920098463E+01  0.59645124908E+03  0.59714009814E+03  0.00000000000E+00 0.  1.
</event>
<event>
12    1  0.8462562E-002  0.2124970E+03  0.7818608E-02  0.1139705E+00
         21   -1    0    0  503  502  0.00000000000E+00  0.00000000000E+00  0.25741161923E+02  0.25741161923E+02  0.00000000000E+00 0.  1.
         21   -1    0    0  501  503 -0.00000000000E+00 -0.00000000000E+00 -0.19410009160E+04  0.19410009160E+04  0.00000000000E+00 0. -1.
          6    2    1    2  501    0 -0.62257113278E+02 -0.10419298998E+03 -0.12672372843E+04  0.12849300820E+04  0.17442148232E+03 0.  0.
         24    2    3    3    0    0 -0.83680724399E+02 -0.84420268916E+02 -0.59452086853E+03  0.61156584349E+03  0.80177754777E+02 0.  0.
         -6    2    1    2    0  502  0.62257113278E+02  0.10419298998E+03 -0.64802246971E+03  0.68181199590E+03  0.17378823085E+03 0.  0.
        -24    2    5    5    0    0  0.11676245006E+02  0.99500466598E+02 -0.26500156015E+03  0.29540864295E+03  0.83688481250E+02 0.  0.
          5    1    3    3  501    0  0.21423611121E+02 -0.19772721064E+02 -0.67271641579E+03  0.67336423849E+03  0.47000000000E+01 0. -1.
        -13    1    4    4    0    0 -0.78409597229E+02 -0.55596286055E+02 -0.54953894745E+03  0.55788176770E+03  0.00000000000E+00 0.  1.
         14    1    4    4    0    0 -0.52711271695E+01 -0.28823982862E+02 -0.44981921083E+02  0.53684075795E+02  0.00000000000E+00 0. -1.
         -5    1    5    5    0  502  0.50580868272E+02  0.46925233822E+01 -0.38302090956E+03  0.38640335295E+03  0.47000000000E+01 0.  1.
         13    1    6    6    0    0  0.10991479918E+02  0.13252010790E+02 -0.15339390879E+03  0.15435711734E+03  0.00000000000E+00 0. -1.
        -14    1    6    6    0    0  0.68476508833E+00  0.86248455807E+02 -0.11160765136E+03  0.14105152560E+03  0.00000000000E+00 0.  1.
</event>
<event>
12    1  0.8462562E-002  0.1735797E+03  0.7818608E-02  0.1174359E+00
         21   -1    0    0  503  502  0.00000000000E+00  0.00000000000E+00  0.75342177820E+03  0.75342177820E+03  0.00000000000E+00 0.  1.
         21   -1    0    0  501  503 -0.00000000000E+00 -0.00000000000E+00 -0.65635186510E+02  0.65635186510E+02  0.00000000000E+00 0.  1.
          6    2    1    2  501    0 -0.52729324633E+01 -0.18898255024E+02  0.87495747654E+02  0.19438468096E+03  0.17246724464E+03 0.  0.
         24    2    3    3    0    0 -0.97983658116E+01  0.54152305699E+02  0.72742980516E+02  0.11957426653E+03  0.77317422460E+02 0.  0.
         -6    2    1    2    0  502  0.52729324633E+01  0.18898255024E+02  0.60029084404E+03  0.62467228376E+03  0.17170153406E+03 0.  0.
        -24    2    5    5    0    0  0.47098815855E+02 -0.21044288814E+02  0.24553131734E+03  0.26519874771E+03  0.85927803702E+02 0.  0.
          5    1    3    3  501    0  0.45254333483E+01 -0.73050560723E+02  0.14752767137E+02  0.74810414430E+02  0.47000000000E+01 0. -1.
        -13    1    4    4    0    0  0.29009078122E+02  0.40163501622E+01  0.11616195217E+02  0.31505454661E+02  0.00000000000E+00 0.  1.
         14    1    4    4    0    0 -0.38807443933E+02  0.50135955537E+02  0.61126785300E+02  0.88068811865E+02  0.00000000000E+00 0. -1.
         -5    1    5    5    0  502 -0.41825883392E+02  0.39942543837E+02  0.35475952670E+03  0.35947353604E+03  0.47000000000E+01 0.  1.
         11    1    6    6    0    0  0.10474978193E+02 -0.48423821502E+02  0.16834871133E+03  0.17548755017E+03  0.00000000000E+00 0. -1.
        -12    1    6    6    0    0  0.36623837662E+02  0.27379532688E+02  0.77182606009E+02  0.89711197549E+02  0.00000000000E+00 0.  1.
</event>
<event>
12    1  0.8462562E-002  0.2482227E+03  0.7818608E-02  0.1114867E+00
         21   -1    0    0  501  502  0.00000000000E+00  0.00000000000E+00  0.71039234704E+02  0.71039234704E+02  0.00000000000E+00 0. -1.
         21   -1    0    0  502  503 -0.00000000000E+00 -0.00000000000E+00 -0.13022666389E+04  0.13022666389E+04  0.00000000000E+00 0. -1.
         -6    2    1    2    0  503 -0.90145777747E+02  0.15402890232E+03 -0.10144891828E+04  0.10437759483E+04  0.16860831600E+03 0.  0.
        -24    2    3    3    0    0 -0.49904787953E+02  0.12033932441E+03 -0.40988695807E+03  0.43688199952E+03  0.76723674596E+02 0.  0.
          6    2    1    2  501    0  0.90145777747E+02 -0.15402890232E+03 -0.21673822139E+03  0.32952992531E+03  0.17252058157E+03 0.  0.
         24    2    5    5    0    0  0.54436464358E+02 -0.25890549915E+02 -0.38254023304E+02  0.10687932147E+03  0.79537222938E+02 0.  0.
          5    1    5    5  501    0  0.35709313389E+02 -0.12813835241E+03 -0.17848419809E+03  0.22265060384E+03  0.47000000000E+01 0. -1.
        -13    1    6    6    0    0  0.34307628793E+02  0.26425071604E+02 -0.21664617201E+02  0.48421621628E+02  0.00000000000E+00 0.  1.
         14    1    6    6    0    0  0.20128835565E+02 -0.52315621519E+02 -0.16589406103E+02  0.58457699843E+02  0.00000000000E+00 0. -1.
         -5    1    3    3    0  503 -0.40240989794E+02  0.33689577915E+02 -0.60460222473E+03  0.60689394878E+03  0.47000000000E+01 0.  1.
         13    1    4    4    0    0 -0.19190548833E+01  0.69527394358E+02 -0.28894625146E+03  0.29719972674E+03  0.00000000000E+00 0. -1.
        -14    1    4    4    0    0 -0.47985733070E+02  0.50811930050E+02 -0.12094070661E+03  0.13968227278E+03  0.00000000000E+00 0.  1.
</event>
<event>
12    1  0.8462562E-002  0.2027658E+03  0.7818608E-02  0.1147522E+00
         21   -1    0    0  501  502  0.00000000000E+00  0.00000000000E+00  0.15114230527E+04  0.15114230527E+04  0.00000000000E+00 0. -1.
         21   -1    0    0  502  503 -0.00000000000E+00 -0.00000000000E+00 -0.87414582395E+02  0.87414582395E+02  0.00000000000E+00 0. -1.
         -6    2    1    2    0  503  0.89027201497E+02 -0.57954640888E+02  0.48439443947E+02  0.20847145271E+03  0.17271185211E+03 0.  0.
        -24    2    3    3    0    0  0.93610450819E+02  0.49887110653E+01 -0.81004535993E+01  0.12360849411E+03  0.80160081872E+02 0.  0.
          6    2    1    2  501    0 -0.89027201497E+02  0.57954640888E+02  0.13755690264E+04  0.13903661824E+04  0.17217256410E+03 0.  0.
         24    2    5    5    0    0 -0.66005979897E+01 -0.32849244054E+02  0.62583347529E+03  0.63065243562E+03  0.70230442319E+02 0.  0.
          5    1    5    5  501    0 -0.82426603508E+02  0.90803884942E+02  0.74973555107E+03  0.75971374676E+03  0.47000000000E+01 0. -1.
        -11    1    6    6    0    0  0.53314427674E+00 -0.18470962447E+02  0.34806268452E+02  0.39407321909E+02  0.00000000000E+00 0.  1.
         12    1    6    6    0    0 -0.71337422665E+01 -0.14378281607E+02  0.59102720684E+03  0.59124511371E+03  0.00000000000E+00 0. -1.
         -5    1    3    3    0  503 -0.45832493219E+01 -0.62943351953E+02  0.56539897547E+02  0.84862958610E+02  0.47000000000E+01 0.  1.
         13    1    4    4    0    0 -0.73191064392E+01 -0.16028655598E+02  0.78448291400E+01  0.19288039392E+02  0.00000000000E+00 0. -1.
        -14    1    4    4    0    0  0.10092955726E+03  0.21017366664E+02 -0.15945282739E+02  0.10432045471E+03  0.00000000000E+00 0.  1.
</event>
<event>
12    1  0.8462562E-002  0.1952352E+03  0.7818608E-02  0.1155027E+00
         21   -1    0    0  503  502  0.00000000000E+00  0.00000000000E+00  0.40300753318E+03  0.40300753318E+03  0.00000000000E+00 0.  1.
         21   -1    0    0  501  503 -0.00000000000E+00 -0.00000000000E+00 -0.11598642775E+03  0.11598642775E+03  0.00000000000E+00 0.  1.
          6    2    1    2  501    0 -0.58344301514E+02 -0.56308079560E+02  0.26000209908E+03  0.32189798837E+03  0.17158836223E+03 0.  0.
         24    2    3    3    0    0  0.75156376040E+01  0.86038065724E+01  0.57308077279E+02  0.99057146035E+02  0.79984949603E+02 0.  0.
         -6    2    1    2    0  502  0.58344301514E+02  0.56308079560E+02  0.27019006348E+02  0.19709597255E+03  0.17760106517E+03 0.  0.
        -24    2    5    5    0    0  0.76537862740E+02 -0.18835634832E+02 -0.72499837517E+01  0.11239628445E+03  0.79796847812E+02 0.  0.
          5    1    3    3  501    0 -0.65859939118E+02 -0.64911886132E+02  0.20269402180E+03  0.22284084234E+03  0.47000000000E+01 0. -1.
        -11    1    4    4    0    0 -0.26454185297E+02 -0.15804885327E+02  0.46618736695E+02  0.55883136373E+02  0.00000000000E+00 0.  1.
         12    1    4    4    0    0  0.33969822901E+02  0.24408691899E+02  0.10689340585E+02  0.43174009662E+02  0.00000000000E+00 0. -1.
         -5    1    5    5    0  502 -0.18193561226E+02  0.75143714392E+02  0.34268990099E+02  0.84699688105E+02  0.47000000000E+01 0.  1.
         13    1    6    6    0    0  0.56391851851E+02  0.24783730320E+02  0.77002180344E+01  0.62077110125E+02  0.00000000000E+00 0. -1.
        -14    1    6    6    0    0  0.20146010889E+02 -0.43619365151E+02 -0.14950201786E+02  0.50319174321E+02  0.00000000000E+00 0.  1.
</event>
<event>
12    1  0.8462562E-002  0.1773648E+03  0.7818608E-02  0.1170950E+00
         21   -1    0    0  501  502  0.00000000000E+00  0.00000000000E+00  0.15648076167E+02  0.15648076167E+02  0.00000000000E+00 0. -1.
         21   -1    0    0  502  503 -0.00000000000E+00 -0.00000000000E+00 -0.20985921239E+04  0.20985921239E+04  0.00000000000E+00 0. -1.
         -6    2    1    2    0  503  0.31825462174E+02  0.12820030208E+02 -0.12816782541E+04  0.12935787872E+04  0.17166746406E+03 0.  0.
        -24    2    3    3    0    0 -0.38468234963E+02 -0.27517070339E+02 -0.69105856144E+03  0.69740599597E+03  0.81093733522E+02 0.  0.
          6    2    1    2  501    0 -0.31825462174E+02 -0.12820030208E+02 -0.80126579360E+03  0.82066141292E+03  0.17401456678E+03 0.  0.
         24    2    5    5    0    0 -0.44325565182E+02 -0.70727248296E+02 -0.46014604206E+03  0.47440388828E+03  0.79734370320E+02 0.  0.
          5    1    5    5  501    0  0.12500103008E+02  0.57907218088E+02 -0.34111975154E+03  0.34625752465E+03  0.47000000000E+01 0. -1.
        -11    1    6    6    0    0 -0.56223345448E+01  0.17683553946E+02 -0.61278571976E+02  0.64026417277E+02  0.00000000000E+00 0.  1.
         12    1    6    6    0    0 -0.38703230637E+02 -0.88410802242E+02 -0.39886747008E+03  0.41037747100E+03  0.00000000000E+00 0. -1.
         -5    1    3    3    0  503  0.70293697137E+02  0.40337100547E+02 -0.59061969270E+03  0.59617279118E+03  0.47000000000E+01 0.  1.
         11    1    4    4    0    0 -0.82867883009E+00  0.18220717644E+02 -0.39817680404E+03  0.39859434082E+03  0.00000000000E+00 0. -1.
        -12    1    4    4    0    0 -0.37639556133E+02 -0.45737787983E+02 -0.29288175741E+03  0.29881165515E+03  0.00000000000E+00 0.  1.
</event>
<event>
12    1  0.8462562E-002  0.1830889E+03  0.7818608E-02  0.1164848E+00
         21   -1    0    0  501  502  0.00000000000E+00  0.00000000000E+00  0.10519493509E+03  0.10519493509E+03  0.00000000000E+00 0. -1.
         21   -1    0    0  502  503 -0.00000000000E+00 -0.00000000000E+00 -0.33086460746E+03  0.33086460746E+03  0.00000000000E+00 0. -1.
         -6    2    1    2    0  503 -0.22448136766E+02 -0.57670568520E+02 -0.15472179320E+03  0.23970893881E+03  0.17231288035E+03 0.  0.
        -24    2    3    3    0    0 -0.72382300021E+02 -0.71327538644E+02 -0.12330291046E+03  0.17897040338E+03  0.80622468544E+02 0.  0.
          6    2    1    2  501    0  0.22448136766E+02  0.57670568520E+02 -0.70947879169E+02  0.19635060374E+03  0.17230828394E+03 0.  0.
         24    2    5    5    0    0  0.46593871122E+02 -0.24730650256E+02 -0.30957311054E+02  0.10151225242E+03  0.81017210490E+02 0.  0.
          5    1    5    5  501    0 -0.24145734355E+02  0.82401218776E+02 -0.39990568115E+02  0.94838351322E+02  0.47000000000E+01 0. -1.
        -11    1    6    6    0    0  0.48113519724E+02  0.16935425356E+02 -0.31247552212E+02  0.59817463432E+02  0.00000000000E+00 0.  1.
         12    1    6    6    0    0 -0.15196486027E+01 -0.41666075612E+02  0.29024115786E+00  0.41694788988E+02  0.00000000000E+00 0. -1.
         -5    1    3    3    0  503  0.49934163255E+02  0.13656970124E+02 -0.31418882739E+02  0.60738535425E+02  0.47000000000E+01 0.  1.
         13    1    4    4    0    0  0.16128567668E+02 -0.18426123481E+02 -0.12090931212E+02  0.27310132536E+02  0.00000000000E+00 0. -1.
        -14    1    4    4    0    0 -0.88510867690E+02 -0.52901415163E+02 -0.11121197925E+03  0.15166027085E+03  0.00000000000E+00 0.  1.
</event>
<event>
12    1  0.8462562E-002  0.1963154E+03  0.7818608E-02  0.1153264E+00
         21   -1    0    0  501  502  0.00000000000E+00  0.00000000000E+00  0.28359152095E+03  0.28359152095E+03  0.00000000000E+00 0.  1.
         21   -1    0    0  502  503 -0.00000000000E+00 -0.00000000000E+00 -0.21739846598E+03  0.21739846598E+03  0.00000000000E+00 0.  1.
         -6    2    1    2    0  503  0.70094372349E+02  0.64792075169E+02 -0.12131346349E+03  0.23077410370E+03  0.17154735928E+03 0.  0.
        -24    2    3    3    0    0 -0.54433876561E+01 -0.22220616957E+02 -0.53498495226E+02  0.96990241825E+02  0.77599173517E+02 0.  0.
          6    2    1    2  501    0 -0.70094372349E+02 -0.64792075169E+02  0.18750651847E+03  0.27021588322E+03  0.16954850350E+03 0.  0.
         24    2    5    5    0    0 -0.25470493629E+02 -0.95706689910E+02  0.67783451602E+02  0.13867612993E+03  0.69483495613E+02 0.  0.
          5    1    5    5  501    0 -0.44623878719E+02  0.30914614740E+02  0.11972306687E+03  0.13153975329E+03  0.47000000000E+01 0. -1.
        -11    1    6    6    0    0 -0.17263180306E+02 -0.22368181535E+02  0.57630939748E+02  0.64184719021E+02  0.00000000000E+00 0.  1.
         12    1    6    6    0    0 -0.82073133231E+01 -0.73338508374E+02  0.10152511854E+02  0.74491410911E+02  0.00000000000E+00 0. -1.
         -5    1    3    3    0  503  0.75537760005E+02  0.87012692127E+02 -0.67814968268E+02  0.13378386188E+03  0.47000000000E+01 0.  1.
         11    1    4    4    0    0 -0.48364597663E+01 -0.11621851873E+02 -0.73380013212E+02  0.74451898048E+02  0.00000000000E+00 0. -1.
        -12    1    4    4    0    0 -0.60692788979E+00 -0.10598765085E+02  0.19881517985E+02  0.22538343776E+02  0.00000000000E+00 0.  1.
</event>
<event>
12    1  0.8462562E-002  0.2367686E+03  0.7818608E-02  0.1122202E+00
         21   -1    0    0  503  502  0.00000000000E+00  0.00000000000E+00  0.10290159586E+04  0.10290159586E+04  0.00000000000E+00 0. -1.
         21   -1    0    0  501  503 -0.00000000000E+00 -0.00000000000E+00 -0.54198642118E+02  0.54198642118E+02  0.00000000000E+00 0. -1.
          6    2    1    2  501    0 -0.13291449069E+03  0.90502078396E+02  0.50371445552E+03  0.55658570263E+03  0.17378867523E+03 0.  0.
         24    2    3    3    0    0 -0.13143055463E+03  0.49887872265E+02  0.23907872840E+03  0.28880617788E+03  0.80545512098E+02 0.  0.
         -6    2    1    2    0  502  0.13291449069E+03 -0.90502078396E+02  0.47110286097E+03  0.52662889810E+03  0.17188136220E+03 0.  0.
        -24    2    5    5    0    0  0.85241484012E+02 -0.12770391533E+03  0.36873569807E+03  0.40764226744E+03  0.81435880190E+02 0.  0.
          5    1    3    3  501    0 -0.14839360617E+01  0.40614206131E+02  0.26463572712E+03  0.26777952475E+03  0.47000000000E+01 0. -1.
        -11    1    4    4    0    0 -0.79043837370E+02 -0.12851070905E+02  0.11108877413E+03  0.13694449236E+03  0.00000000000E+00 0.  1.
         12    1    4    4    0    0 -0.52386717256E+02  0.62738943171E+02  0.12798995427E+03  0.15186168552E+03  0.00000000000E+00 0. -1.
         -5    1    5    5    0  502  0.47673006675E+02  0.37201836932E+02  0.10236716290E+03  0.11898663066E+03  0.47000000000E+01 0.  1.
         13    1    6    6    0    0  0.65547326407E+02 -0.30220295443E+02  0.18748986311E+03  0.20090337733E+03  0.00000000000E+00 0. -1.
        -14    1    6    6    0    0  0.19694157606E+02 -0.97483619886E+02  0.18124583496E+03  0.20673889010E+03  0.00000000000E+00 0.  1.
</event>
<event>
12    1  0.8462562E-002  0.2172760E+03  0.7818608E-02  0.1135949E+00
         21   -1    0    0  503  502  0.00000000000E+00  0.00000000000E+00  0.99934067894E+03  0.99934067894E+03  0.00000000000E+00 0. -1.
         21   -1    0    0  501  503 -0.00000000000E+00 -0.00000000000E+00 -0.54308258821E+02  0.54308258821E+02  0.00000000000E+00 0. -1.
          6    2    1    2  501    0  0.11662752685E+03 -0.63428710085E+02  0.28226535442E+03  0.35620581237E+03  0.17199903831E+03 0.  0.
         24    2    3    3    0    0  0.11514277726E+03 -0.41171707518E+02  0.29578519190E+03  0.32970195133E+03  0.79129819340E+02 0.  0.
         -6    2    1    2    0  502 -0.11662752685E+03  0.63428710085E+02  0.66276706570E+03  0.69744312539E+03  0.17187655015E+03 0.  0.
        -24    2    5    5    0    0 -0.69409753942E+02  0.82903103574E+02  0.27240382150E+03  0.30372454252E+03  0.79712716875E+02 0.  0.
          5    1    3    3  501    0  0.14847495833E+01 -0.22257002567E+02 -0.13519837480E+02  0.26503861041E+02  0.47000000000E+01 0. -1.
        -11    1    4    4    0    0  0.97210120574E+02 -0.48607296603E+02  0.28960706738E+03  0.30932948502E+03  0.00000000000E+00 0.  1.
         12    1    4    4    0    0  0.17932656689E+02  0.74355890842E+01  0.61781245128E+01  0.20372466307E+02  0.00000000000E+00 0. -1.
         -5    1    5    5    0  502 -0.47217772904E+02 -0.19474393489E+02  0.39036324420E+03  0.39371858288E+03  0.47000000000E+01 0.  1.
         11    1    6    6    0    0 -0.46969772866E+02  0.94634154640E+00  0.12564798951E+03  0.13414347690E+03  0.00000000000E+00 0. -1.
        -12    1    6    6    0    0 -0.22439981076E+02  0.81956762028E+02  0.14675583199E+03  0.16958106562E+03  0.00000000000E+00 0.  1.
</event>
<event>
12    1  0.8462562E-002  0.1921081E+03  0.7818608E-02  0.1157396E+00
         21   -1    0    0  501  502  0.00000000000E+00  0.00000000000E+00  0.35139897575E+03  0.35139897575E+03  0.00000000000E+00 0. -1.
         21   -1    0    0  502  503 -0.00000000000E+00 -0.00000000000E+00 -0.10306568585E+03  0.10306568585E+03  0.00000000000E+00 0. -1.
         -6    2    1    2    0  503  0.43999338965E+02  0.72005893575E+02  0.12953739084E+03  0.23170122745E+03  0.17258253862E+03 0.  0.
        -24    2    3    3    0    0  0.35740055680E+02 -0.27322010854E+02  0.69353314054E+02  0.11517457188E+03  0.80196358904E+02 0.  0.
          6    2    1    2  501    0 -0.43999338965E+02 -0.72005893575E+02  0.11879589907E+03  0.22276343415E+03  0.16849418809E+03 0.  0.
         24    2    5    5    0    0 -0.62537339463E+02 -0.86975659636E+02  0.39970702072E+02  0.14028159954E+03  0.81274755922E+02 0.  0.
          5    1    5    5  501    0  0.18538000498E+02  0.14969766062E+02  0.78825196996E+02  0.82481834605E+02  0.47000000000E+01 0. -1.
        -13    1    6    6    0    0  0.97188328168E+01 -0.20293870790E+02 -0.15563632312E+02  0.27359158498E+02  0.00000000000E+00 0.  1.
         14    1    6    6    0    0 -0.72256172280E+02 -0.66681788846E+02  0.55534334384E+02  0.11292244105E+03  0.00000000000E+00 0. -1.
         -5    1    3    3    0  503  0.82592832846E+01  0.99327904429E+02  0.60184076785E+02  0.11652665556E+03  0.47000000000E+01 0.  1.
         13    1    4    4    0    0  0.26037238011E+02  0.50856498591E+01 -0.10437532426E+02  0.28508659753E+02  0.00000000000E+00 0. -1.
        -14    1    4    4    0    0  0.97028176688E+01 -0.32407660713E+02  0.79790846480E+02  0.86665912132E+02  0.00000000000E+00 0.  1.
</event>
<event>
12    1  0.8462562E-002  0.1816053E+03  0.7818608E-02  0.1166491E+00
         21   -1    0    0  503  502  0.00000000000E+00  0.00000000000E+00  0.33296365263E+02  0.33296365263E+02  0.00000000000E+00 0.  1.
         21   -1    0    0  501  503 -0.00000000000E+00 -0.00000000000E+00 -0.10564330488E+04  0.10564330488E+04  0.00000000000E+00 0.  1.
          6    2    1    2  501    0  0.47059634517E+02 -0.21208050978E+02 -0.65429220346E+03  0.67902782387E+03  0.17411521319E+03 0.  0.
         24    2    3    3    0    0  0.82731272673E+02 -0.27025763385E+02 -0.61147822833E+03  0.62280115749E+03  0.80005016627E+02 0.  0.
         -6    2    1    2    0  502 -0.47059634517E+02  0.21208050978E+02 -0.36884448007E+03  0.41070159018E+03  0.17310446288E+03 0.  0.
        -24    2    5    5    0    0 -0.99188669309E+02  0.20380997655E+02 -0.29458438795E+03  0.31984581674E+03  0.72578286542E+02 0.  0.
          5    1    3    3  501    0 -0.35671638156E+02  0.58177124067E+01 -0.42813975122E+02  0.56226666379E+02  0.47000000000E+01 0. -1.
        -11    1    4    4    0    0  0.31355586434E+02 -0.31004774367E+02 -0.47291837671E+03  0.47496974627E+03  0.00000000000E+00 0.  1.
         12    1    4    4    0    0  0.51375686238E+02  0.39790109828E+01 -0.13855985162E+03  0.14783141123E+03  0.00000000000E+00 0. -1.
         -5    1    5    5    0  502  0.52129034792E+02  0.82705332268E+00 -0.74260092123E+02  0.90855773442E+02  0.47000000000E+01 0.  1.
         11    1    6    6    0    0 -0.41305547483E+02 -0.23976030983E+02 -0.15735673572E+03  0.16444494699E+03  0.00000000000E+00 0. -1.
        -12    1    6    6    0    0 -0.57883121827E+02  0.44357028638E+02 -0.13722765223E+03  0.15540086975E+03  0.00000000000E+00 0.  1.
</event>
<event>
12    1  0.8462562E-002  0.1832898E+03  0.7818608E-02  0.1164756E+00
         21   -1    0    0  503  502  0.00000000000E+00  0.00000000000E+00  0.48477638107E+03  0.48477638107E+03  0.00000000000E+00 0.  1.
         21   -1    0    0  501  503 -0.00000000000E+00 -0.00000000000E+00 -0.19286922570E+03  0.19286922570E+03  0.00000000000E+00 0.  1.
          6    2    1    2  501    0 -0.34584742331E+02 -0.50773709506E+02 -0.12536439840E+03  0.22206166719E+03  0.17268780406E+03 0.  0.
         24    2    3    3    0    0 -0.48276784389E+02 -0.92439576483E+02 -0.11502807416E+03  0.17675773706E+03  0.84475538197E+02 0.  0.
         -6    2    1    2    0  502  0.34584742331E+02  0.50773709506E+02  0.41727155377E+03  0.45558393958E+03  0.17224140743E+03 0.  0.
        -24    2    5    5    0    0 -0.41386873293E+02  0.49275743480E+02  0.22244743478E+03  0.24641305818E+03  0.84235157890E+02 0.  0.
          5    1    3    3  501    0  0.13692042059E+02  0.41665866977E+02 -0.10336324234E+02  0.45303930131E+02  0.47000000000E+01 0. -1.
        -11    1    4    4    0    0 -0.56857626902E+02 -0.50012566837E+02 -0.30199300895E+02  0.81523274916E+02  0.00000000000E+00 0.  1.
         12    1    4    4    0    0  0.85808425126E+01 -0.42427009646E+02 -0.84828773268E+02  0.95234462144E+02  0.00000000000E+00 0. -1.
         -5    1    5    5    0  502  0.75971615624E+02  0.14979660253E+01  0.19482411900E+03  0.20917088140E+03  0.47000000000E+01 0.  1.
         13    1    6    6    0    0  0.86356331270E+01 -0.19285736720E+02  0.43808190754E+02  0.48638167908E+02  0.00000000000E+00 0. -1.
        -14    1    6    6    0    0 -0.50022506420E+02  0.68561480200E+02  0.17863924402E+03  0.19777489027E+03  0.00000000000E+00 0.  1.
</event>
<event>
12    1  0.8462562E-002  0.1775758E+03  0.7818608E-02  0.1170553E+00
         21   -1    0    0  501  502  0.00000000000E+00  0.00000000000E+00  0.37550517336E+03  0.37550517336E+03  0.00000000000E+00 0.  1.
         21   -1    0    0  502  503 -0.00000000000E+00 -0.00000000000E+00 -0.18080212889E+03  0.18080212889E+03  0.00000000000E+00 0.  1.
         -6    2    1    2    0  503  0.32553843386E+02  0.22079380021E+02 -0.10677207858E+03  0.20720386756E+03  0.17316441386E+03 0.  0.
        -24    2    3    3    0    0 -0.22487437129E+01  0.44474068485E+02  0.47614315279E+01  0.88146923130E+02  0.75922389393E+02 0.  0.
          6    2    1    2  501    0 -0.32553843386E+02 -0.22079380021E+02  0.30147512305E+03  0.34910343469E+03  0.17157711547E+03 0.  0.
         24    2    5    5    0    0 -0.49864599673E+02 -0.73478886350E+02  0.17051993910E+03  0.20728340177E+03  0.77483765903E+02 0.  0.
          5    1    5    5  501    0  0.17310756287E+02  0.51399506329E+02  0.13095518396E+03  0.14182003293E+03  0.47000000000E+01 0. -1.
        -13    1    6    6    0    0 -0.33234968517E+02 -0.60180478180E+01  0.11024228892E+03  0.11530022679E+03  0.00000000000E+00 0.  1.
         14    1    6    6    0    0 -0.16629631156E+02 -0.67460838532E+02  0.60277650180E+02  0.91983174978E+02  0.00000000000E+00 0. -1.
         -5    1    3    3    0  503  0.34802587098E+02 -0.22394688465E+02 -0.11153351010E+03  0.11905694443E+03  0.47000000000E+01 0.  1.
         13    1    4    4    0    0 -0.36965384449E+02  0.37370634855E+02  0.37189598659E+01  0.52695679704E+02  0.00000000000E+00 0. -1.
        -14    1    4    4    0    0  0.34716640736E+02  0.71034336302E+01  0.10424716621E+01  0.35451243427E+02  0.00000000000E+00 0.  1.
</event>
<event>
12    1  0.8462562E-002  0.2993076E+03  0.7818608E-02  0.1085607E+00
         21   -1    0    0  501  502  0.00000000000E+00  0.00000000000E+00  0.21725301906E+03  0.21725301906E+03  0.00000000000E+00 0.  1.
         21   -1    0    0  502  503 -0.00000000000E+00 -0.00000000000E+00 -0.49688106133E+03  0.49688106133E+03  0.00000000000E+00 0.  1.
         -6    2    1    2    0  503 -0.20879231437E+03 -0.12753836951E+03 -0.28730556844E+03  0.41488498560E+03  0.17240880309E+03 0.  0.
        -24    2    3    3    0    0 -0.30480150735E+02 -0.24261124905E+02 -0.12340220561E+03  0.15154524439E+03  0.78868339515E+02 0.  0.
          6    2    1    2  501    0  0.20879231437E+03  0.12753836951E+03  0.76775261717E+01  0.29924909479E+03  0.17213602206E+03 0.  0.
         24    2    5    5    0    0  0.89043330089E+02  0.11452273262E+03 -0.39856012520E+02  0.16966995550E+03  0.78455217457E+02 0.  0.
          5    1    5    5  501    0  0.11974898428E+03  0.13015636892E+02  0.47533538691E+02  0.12957913929E+03  0.47000000000E+01 0. -1.
        -11    1    6    6    0    0  0.35656914723E+02  0.55164541485E+02  0.21356002147E+02  0.69069682441E+02  0.00000000000E+00 0.  1.
         12    1    6    6    0    0  0.53386415366E+02  0.59358191134E+02 -0.61212014667E+02  0.10060027306E+03  0.00000000000E+00 0. -1.
         -5    1    3    3    0  503 -0.17831216363E+03 -0.10327724461E+03 -0.16390336283E+03  0.26333974121E+03  0.47000000000E+01 0.  1.
         11    1    4    4    0    0 -0.14970017809E+02  0.20358739539E+02 -0.74588140186E+01  0.26347933798E+02  0.00000000000E+00 0. -1.
        -12    1    4    4    0    0 -0.15510132926E+02 -0.44619864444E+02 -0.11594339159E+03  0.12519731059E+03  0.00000000000E+00 0.  1.
</event>
<event>
12    1  0.8462562E-002  0.2196835E+03  0.7818608E-02  0.1134185E+00
         21   -1    0    0  501  502  0.00000000000E+00  0.00000000000E+00  0.56357469524E+03  0.56357469524E+03  0.00000000000E+00 0. -1.
         21   -1    0    0  502  503 -0.00000000000E+00 -0.00000000000E+00 -0.15735626410E+03  0.15735626410E+03  0.00000000000E+00 0.  1.
         -6    2    1    2    0  503 -0.18400371671E+02 -0.13563330184E+03 -0.40571593666E+02  0.22305329516E+03  0.17138188943E+03 0.  0.
        -24    2    3    3    0    0  0.10242511779E+02 -0.13625603224E+02 -0.45198698540E+02  0.97555114323E+02  0.84755600819E+02 0.  0.
          6    2    1    2  501    0  0.18400371671E+02  0.13563330184E+03  0.44679002480E+03  0.49787766417E+03  0.17183095173E+03 0.  0.
         24    2    5    5    0    0  0.33729157691E+02  0.53747644531E+01  0.20509394288E+03  0.22284794894E+03  0.80194381157E+02 0.  0.
          5    1    5    5  501    0 -0.15328786020E+02  0.13025853739E+03  0.24169608192E+03  0.27502971523E+03  0.47000000000E+01 0. -1.
        -11    1    6    6    0    0  0.34384392265E+02  0.35198682573E+02  0.77408576688E+02  0.91724159473E+02  0.00000000000E+00 0.  1.
         12    1    6    6    0    0 -0.65523457411E+00 -0.29823918120E+02  0.12768536619E+03  0.13112378947E+03  0.00000000000E+00 0. -1.
         -5    1    3    3    0  503 -0.28642883450E+02 -0.12200769862E+03  0.46271048733E+01  0.12549818084E+03  0.47000000000E+01 0.  1.
         13    1    4    4    0    0  0.18072958691E+02  0.44463456704E+01  0.21250417241E+02  0.28248576222E+02  0.00000000000E+00 0. -1.
        -14    1    4    4    0    0 -0.78304469123E+01 -0.18071948894E+02 -0.66449115780E+02  0.69306538102E+02  0.00000000000E+00 0.  1.
</event>
<event>
12    1  0.8462562E-002  0.1980841E+03  0.7818608E-02  0.1152081E+00
         21   -1    0    0  501  502  0.00000000000E+00  0.00000000000E+00  0.61737047589E+03  0.61737047589E+03  0.00000000000E+00 0.  1.
         21   -1    0    0  502  503 -0.00000000000E+00 -0.00000000000E+00 -0.12060245119E+03  0.12060245119E+03  0.00000000000E+00 0.  1.
         -6    2    1    2    0  503  0.31000691425E+02 -0.88122399157E+02 -0.88230147908E+01  0.19496315747E+03  0.17089817752E+03 0.  0.
        -24    2    3    3    0    0  0.37681101407E+02 -0.21020074290E+02  0.49547469327E+02  0.10565160561E+03  0.82738147944E+02 0.  0.
          6    2    1    2  501    0 -0.31000691425E+02  0.88122399157E+02  0.50559103949E+03  0.54300976960E+03  0.17467315356E+03 0.  0.
         24    2    5    5    0    0  0.16092528808E+01  0.18132148823E+02  0.41824192103E+03  0.42633071362E+03  0.80623869639E+02 0.  0.
          5    1    5    5  501    0 -0.32609944305E+02  0.69990250333E+02  0.87349118454E+02  0.11667905598E+03  0.47000000000E+01 0. -1.
        -11    1    6    6    0    0  0.32608843813E+02 -0.16031464308E+02  0.19855371772E+03  0.20185124068E+03  0.00000000000E+00 0.  1.
         12    1    6    6    0    0 -0.30999590932E+02  0.34163613132E+02  0.21968820331E+03  0.22447947294E+03  0.00000000000E+00 0. -1.
         -5    1    3    3    0  503 -0.66804099825E+01 -0.67102324867E+02 -0.58370484117E+02  0.89311551863E+02  0.47000000000E+01 0.  1.
         13    1    4    4    0    0  0.21165965282E+02 -0.43648530690E+02  0.58727522290E+02  0.76171610145E+02  0.00000000000E+00 0. -1.
        -14    1    4    4    0    0  0.16515136125E+02  0.22628456400E+02 -0.91800529635E+01  0.29479995466E+02  0.00000000000E+00 0.  1.
</event>
<event>
12    1  0.8462562E-002  0.1851755E+03  0.7818608E-02  0.1162914E+00
         21   -1    0    0  503  502  0.00000000000E+00  0.00000000000E+00  0.16239822302E+02  0.16239822302E+02  0.00000000000E+00 0.  1.
         21   -1    0    0  501  503 -0.00000000000E+00 -0.00000000000E+00 -0.25375428488E+04  0.25375428488E+04  0.00000000000E+00 0.  1.
          6    2    1    2  501    0 -0.66124643163E+02  0.19093808738E+02 -0.17843810164E+04  0.17939510910E+04  0.17177853027E+03 0.  0.
         24    2    3    3    0    0 -0.10837929016E+03  0.35316438167E+02 -0.12439048487E+04  0.12515626632E+04  0.78208092848E+02 0.  0.
         -6    2    1    2    0  502  0.66124643163E+02 -0.19093808738E+02 -0.73692201014E+03  0.75983158008E+03  0.17190968297E+03 0.  0.
        -24    2    5    5    0    0  0.16248732764E+02 -0.74780010456E+02 -0.44947410731E+03  0.46278453609E+03  0.79287340911E+02 0.  0.
          5    1    3    3  501    0  0.42254646998E+02 -0.16222629429E+02 -0.54047616766E+03  0.54238842789E+03  0.47000000000E+01 0. -1.
        -13    1    4    4    0    0 -0.26288008431E+02  0.48022401898E+02 -0.54278290491E+03  0.54553688448E+03  0.00000000000E+00 0.  1.
         14    1    4    4    0    0 -0.82091281729E+02 -0.12705963731E+02 -0.70112194381E+03  0.70602577867E+03  0.00000000000E+00 0. -1.
         -5    1    5    5    0  502  0.49875910399E+02  0.55686201717E+02 -0.28744790283E+03  0.29704704399E+03  0.47000000000E+01 0.  1.
         13    1    6    6    0    0 -0.69120543196E+01 -0.36445607492E+02 -0.58609966237E+02  0.69362720122E+02  0.00000000000E+00 0. -1.
        -14    1    6    6    0    0  0.23160787084E+02 -0.38334402963E+02 -0.39086414107E+03  0.39342181597E+03  0.00000000000E+00 0.  1.
</event>
<event>
12    1  0.8462562E-002  0.1948586E+03  0.7818608E-02  0.1154425E+00
         21   -1    0    0  503  502  0.00000000000E+00  0.00000000000E+00  0.67589484930E+03  0.67589484930E+03  0.00000000000E+00 0.  1.
         21   -1    0    0  501  503 -0.00000000000E+00 -0.00000000000E+00 -0.80854655195E+02  0.80854655195E+02  0.00000000000E+00 0.  1.
          6    2    1    2  501    0 -0.15732754425E+02 -0.89225969421E+02  0.87625409180E+02  0.21365411720E+03  0.17251398865E+03 0.  0.
         24    2    3    3    0    0 -0.51709958765E+02 -0.65894580827E+02 -0.29779204976E+00  0.11571897417E+03  0.79842198644E+02 0.  0.
         -6    2    1    2    0  502  0.15732754425E+02  0.89225969421E+02  0.50741478492E+03  0.54309538730E+03  0.17109658841E+03 0.  0.
        -24    2    5    5    0    0 -0.11917166430E+02  0.46400416704E+02  0.11590208328E+03  0.14825006108E+03  0.79055487952E+02 0.  0.
          5    1    3    3  501    0  0.35977204339E+02 -0.23331388594E+02  0.87923201230E+02  0.97935143030E+02  0.47000000000E+01 0. -1.
        -11    1    4    4    0    0 -0.41455385407E+02 -0.40681296590E+02  0.37503548956E+02  0.69137783128E+02  0.00000000000E+00 0.  1.
         12    1    4    4    0    0 -0.10254573357E+02 -0.25213284237E+02 -0.37801341006E+02  0.46581191039E+02  0.00000000000E+00 0. -1.
         -5    1    5    5    0  502  0.27649920855E+02  0.42825552716E+02  0.39151270164E+03  0.39484532621E+03  0.47000000000E+01 0.  1.
         11    1    6    6    0    0 -0.68767597518E+01 -0.20564903470E+02  0.48387623915E+02  0.53024213596E+02  0.00000000000E+00 0. -1.
        -12    1    6    6    0    0 -0.50404066783E+01  0.66965320175E+02  0.67514459370E+02  0.95225847487E+02  0.00000000000E+00 0.  1.
</event>
<event>
12    1  0.8462562E-002  0.1800092E+03  0.7818608E-02  0.1168064E+00
         21   -1    0    0  503  502  0.00000000000E+00  0.00000000000E+00  0.44544693943E+03  0.44544693943E+03  0.00000000000E+00 0.  1.
         21   -1    0    0  501  503 -0.00000000000E+00 -0.00000000000E+00 -0.87591575347E+02  0.87591575347E+02  0.00000000000E+00 0.  1.
          6    2    1    2  501    0  0.23893286222E+02  0.42514491349E+02  0.29075864751E+03  0.34197060437E+03  0.17327703844E+03 0.  0.
         24    2    3    3    0    0  0.42127929275E+02  0.85927055107E+00  0.57103755998E+02  0.10388583385E+03  0.75867824235E+02 0.  0.
         -6    2    1    2    0  502 -0.23893286222E+02 -0.42514491349E+02  0.67096716576E+02  0.19106791041E+03  0.17212380983E+03 0.  0.
        -24    2    5    5    0    0  0.47339847297E+02 -0.16235106858E+02  0.63427172941E+02  0.11490807250E+03  0.81708133140E+02 0.  0.
          5    1    3    3  501    0 -0.18234643053E+02  0.41655220798E+02  0.23365489151E+03  0.23808477052E+03  0.47000000000E+01 0. -1.
        -11    1    4    4    0    0  0.42238125890E+02 -0.21003394406E+02  0.65283542827E+02  0.80542801164E+02  0.00000000000E+00 0.  1.
         12    1    4    4    0    0 -0.11019661482E+00  0.21862664957E+02 -0.81797868281E+01  0.23343032684E+02  0.00000000000E+00 0. -1.
         -5    1    5    5    0  502 -0.71233133519E+02 -0.26279384491E+02  0.36695436348E+01  0.76159837911E+02  0.47000000000E+01 0.  1.
         11    1    6    6    0    0  0.54554245424E+02 -0.28324462406E+02  0.74795169631E+02  0.96813006690E+02  0.00000000000E+00 0. -1.
        -12    1    6    6    0    0 -0.72143981268E+01  0.12089355548E+02 -0.11367996689E+02  0.18095065809E+02  0.00000000000E+00 0.  1.
</event>
<event>
12    1  0.8462562E-002  0.1910771E+03  0.7818608E-02  0.1157649E+00
         21   -1    0    0  503  502  0.00000000000E+00  0.00000000000E+00  0.44806420960E+02  0.44806420960E+02  0.00000000000E+00 0. -1.
         21   -1    0    0  501  503 -0.00000000000E+00 -0.00000000000E+00 -0.11324605404E+04  0.11324605404E+04  0.00000000000E+00 0.  1.
          6    2    1    2  501    0  0.10651380962E+01  0.83429830340E+02 -0.85770862893E+03  0.87873463477E+03  0.17189762968E+03 0.  0.
         24    2    3    3    0    0  0.10958635557E+02  0.98322337444E+02 -0.84792298013E+03  0.85781772816E+03  0.84205111323E+02 0.  0.
         -6    2    1    2    0  502 -0.10651380962E+01 -0.83429830340E+02 -0.22994549047E+03  0.29853232655E+03  0.17112846139E+03 0.  0.
        -24    2    5    5    0    0 -0.93824266156E+01 -0.12459754046E+03 -0.17956237566E+03  0.23277135102E+03  0.79544189513E+02 0.  0.
          5    1    3    3  501    0 -0.98934974607E+01 -0.14892507104E+02 -0.97856488033E+01  0.20916906615E+02  0.47000000000E+01 0. -1.
        -13    1    4    4    0    0 -0.35958630949E+02  0.32115178191E+02 -0.27856556880E+03  0.28270688696E+03  0.00000000000E+00 0.  1.
         14    1    4    4    0    0  0.46917266506E+02  0.66207159253E+02 -0.56935741133E+03  0.57511084120E+03  0.00000000000E+00 0. -1.
         -5    1    5    5    0  502  0.83172885194E+01  0.41167710119E+02 -0.50383114808E+02  0.65760975528E+02  0.47000000000E+01 0.  1.
         13    1    6    6    0    0 -0.15855944884E+02 -0.11482270009E+03 -0.10222302934E+03  0.15454841044E+03  0.00000000000E+00 0. -1.
        -14    1    6    6    0    0  0.64735182679E+01 -0.97748403718E+01 -0.77339346320E+02  0.78222940575E+02  0.00000000000E+00 0.  1.
</event>
<event>
12    1  0.8462562E-002  0.2074083E+03  0.7818608E-02  0.1143823E+00
         21   -1    0    0  501  502  0.00000000000E+00  0.00000000000E+00  0.41212947954E+02  0.41212947954E+02  0.00000000000E+00 0.  1.
         21   -1    0    0  502  503 -0.00000000000E+00 -0.00000000000E+00 -0.10395959675E+04  0.10395959675E+04  0.00000000000E+00 0. -1.
         -6    2    1    2    0  503 -0.11185905131E+03  0.23339836926E+02 -0.50978265531E+03  0.55000901627E+03  0.17197199473E+03 0.  0.
        -24    2    3    3    0    0 -0.12635823955E+03  0.28126476592E+02 -0.27127763821E+03  0.31096953928E+03  0.79705670922E+02 0.  0.
          6    2    1    2  501    0  0.11185905131E+03 -0.23339836926E+02 -0.48860036420E+03  0.53079989915E+03  0.17309252350E+03 0.  0.
         24    2    5    5    0    0  0.28328943343E+02  0.90833218650E+01 -0.38189002694E+03  0.39138065284E+03  0.80335465227E+02 0.  0.
          5    1    5    5  501    0  0.83530107971E+02 -0.32423158791E+02 -0.10671033725E+03  0.13941924631E+03  0.47000000000E+01 0. -1.
        -13    1    6    6    0    0  0.11759297325E+02  0.26723614328E+00 -0.31513168041E+01  0.12177162491E+02  0.00000000000E+00 0.  1.
         14    1    6    6    0    0  0.16569646018E+02  0.88160857217E+01 -0.37873871014E+03  0.37920349035E+03  0.00000000000E+00 0. -1.
         -5    1    3    3    0  503  0.14499188237E+02 -0.47866396656E+01 -0.23850501710E+03  0.23903947699E+03  0.47000000000E+01 0.  1.
         11    1    4    4    0    0 -0.48412786312E+01 -0.20544263533E+02 -0.39082758191E+02  0.44418090129E+02  0.00000000000E+00 0. -1.
        -12    1    4    4    0    0 -0.12151696092E+03  0.48670740125E+02 -0.23219488002E+03  0.26655144915E+03  0.00000000000E+00 0.  1.
</event>
<event>
12    1  0.8462562E-002  0.1768861E+03  0.7818608E-02  0.1171158E+00
         21   -1    0    0  501  502  0.00000000000E+00  0.00000000000E+00  0.33111066921E+03  0.33111066921E+03  0.00000000000E+00 0.  1.
         21   -1    0    0  502  503 -0.00000000000E+00 -0.00000000000E+00 -0.94832655498E+02  0.94832655498E+02  0.00000000000E+00 0.  1.
         -6    2    1    2    0  503  0.10327453579E+02  0.39180346609E+02  0.14036593762E+03  0.22581253205E+03  0.17218288919E+03 0.  0.
        -24    2    3    3    0    0 -0.51231977203E+02  0.26917031309E+02  0.12859865333E+03  0.16177729644E+03  0.79278231208E+02 0.  0.
          6    2    1    2  501    0 -0.10327453579E+02 -0.39180346609E+02  0.95912076092E+02  0.20013079266E+03  0.17091358042E+03 0.  0.
         24    2    5    5    0    0 -0.65962650354E+02 -0.55579944378E+02  0.64029866434E+02  0.13377729072E+03  0.79726647094E+02 0.  0.
          5    1    5    5  501    0  0.55635196775E+02  0.16399597769E+02  0.31882209658E+02  0.66353501941E+02  0.47000000000E+01 0. -1.
        -11    1    6    6    0    0  0.98531617497E+01 -0.37730302452E+02  0.27699864150E+02  0.47832447079E+02  0.00000000000E+00 0.  1.
         12    1    6    6    0    0 -0.75815812104E+02 -0.17849641925E+02  0.36330002284E+02  0.85944843637E+02  0.00000000000E+00 0. -1.
         -5    1    3    3    0  503  0.61559430782E+02  0.12263315300E+02  0.11767284296E+02  0.64035235613E+02  0.47000000000E+01 0.  1.
         13    1    4    4    0    0 -0.12719806020E+01  0.69428041361E+01 -0.10490448196E+02  0.12643969601E+02  0.00000000000E+00 0. -1.
        -14    1    4    4    0    0 -0.49959996601E+02  0.19974227172E+02  0.13908910152E+03  0.14913332684E+03  0.00000000000E+00 0.  1.
</event>
<event>
12    1  0.8462562E-002  0.1853947E+03  0.7818608E-02  0.1162826E+00
         21   -1    0    0  501  502  0.00000000000E+00  0.00000000000E+00  0.85760030719E+02  0.85760030719E+02  0.00000000000E+00 0.  1.
         21   -1    0    0  502  503 -0.00000000000E+00 -0.00000000000E+00 -0.45888091108E+03  0.45888091108E+03  0.00000000000E+00 0.  1.
         -6    2    1    2    0  503 -0.56656068621E+02  0.42316935616E+02 -0.28483446638E+03  0.33985565736E+03  0.17137841594E+03 0.  0.
        -24    2    3    3    0    0 -0.57758431061E+01 -0.23143621844E+02 -0.21703220771E+03  0.23264969572E+03  0.80336256673E+02 0.  0.
          6    2    1    2  501    0  0.56656068621E+02 -0.42316935616E+02 -0.88286413984E+02  0.20478528444E+03  0.17070995483E+03 0.  0.
         24    2    5    5    0    0  0.92203033302E+02 -0.50831152856E+02 -0.10132355110E+03  0.16569391024E+03  0.78120448224E+02 0.  0.
          5    1    5    5  501    0 -0.35546964681E+02  0.85142172399E+01  0.13037137117E+02  0.39091374208E+02  0.47000000000E+01 0. -1.
        -13    1    6    6    0    0  0.51265117000E+02 -0.68654862377E+02 -0.74941432873E+02  0.11383242381E+03  0.00000000000E+00 0.  1.
         14    1    6    6    0    0  0.40937916302E+02  0.17823709521E+02 -0.26382118229E+02  0.51861486428E+02  0.00000000000E+00 0. -1.
         -5    1    3    3    0  503 -0.50880225515E+02  0.65460557460E+02 -0.67802258668E+02  0.10720596164E+03  0.47000000000E+01 0.  1.
         13    1    4    4    0    0  0.27344370750E+02 -0.31991049757E+02 -0.16542092774E+03  0.17069043679E+03  0.00000000000E+00 0. -1.
        -14    1    4    4    0    0 -0.33120213856E+02  0.88474279133E+01 -0.51611279975E+02  0.61959258931E+02  0.00000000000E+00 0.  1.
</event>
<event>
12    1  0.8462562E-002  0.3660433E+03  0.7818608E-02  0.1056274E+00
         21   -1    0    0  503  502  0.00000000000E+00  0.00000000000E+00  0.10241883036E+04  0.10241883036E+04  0.00000000000E+00 0. -1.
         21   -1    0    0  501  503 -0.00000000000E+00 -0.00000000000E+00 -0.48081280990E+03  0.48081280990E+03  0.00000000000E+00 0.  1.
          6    2    1    2  501    0 -0.48553664067E+02 -0.31971708731E+03 -0.37046391592E+03  0.52079866233E+03  0.17149711214E+03 0.  0.
         24    2    3    3    0    0 -0.59833199032E+02 -0.22413235386E+03 -0.17098023303E+03  0.29925972914E+03  0.80664872432E+02 0.  0.
         -6    2    1    2    0  502  0.48553664067E+02  0.31971708731E+03  0.91383940964E+03  0.98420245119E+03  0.17022198480E+03 0.  0.
        -24    2    5    5    0    0  0.76958717867E+02  0.22375931622E+03  0.76391954938E+03  0.80388940282E+03  0.81695888426E+02 0.  0.
          5    1    3    3  501    0  0.11279534965E+02 -0.95584733449E+02 -0.19948368290E+03  0.22153893319E+03  0.47000000000E+01 0. -1.
        -13    1    4    4    0    0 -0.74553253036E+02 -0.16488175271E+03 -0.14889160156E+03  0.23433499297E+03  0.00000000000E+00 0.  1.
         14    1    4    4    0    0  0.14720054004E+02 -0.59250601151E+02 -0.22088631469E+02  0.64924736170E+02  0.00000000000E+00 0. -1.
         -5    1    5    5    0  502 -0.28405053800E+02  0.95957771090E+02  0.14991986025E+03  0.18031304837E+03  0.47000000000E+01 0.  1.
         11    1    6    6    0    0  0.85920348043E+02  0.12864115861E+03  0.46145340780E+03  0.48669302591E+03  0.00000000000E+00 0. -1.
        -12    1    6    6    0    0 -0.89616301758E+01  0.95118157612E+02  0.30246614158E+03  0.31719637691E+03  0.00000000000E+00 0.  1.
</event>
<event>
12    1  0.8462562E-002  0.1776284E+03  0.7818608E-02  0.1170650E+00
         21   -1    0    0  503  502  0.00000000000E+00  0.00000000000E+00  0.17802054551E+03  0.17802054551E+03  0.00000000000E+00 0. -1.
         21   -1    0    0  501  503 -0.00000000000E+00 -0.00000000000E+00 -0.71476212598E+03  0.71476212598E+03  0.00000000000E+00 0. -1.
          6    2    1    2  501    0  0.39961309495E+02  0.16125291537E+02 -0.65664658762E+03  0.68024743712E+03  0.17232209200E+03 0.  0.
         24    2    3    3    0    0 -0.30923357589E+02  0.36712454005E+02 -0.46544919271E+03  0.47524255643E+03  0.83117255271E+02 0.  0.
         -6    2    1    2    0  502 -0.39961309495E+02 -0.16125291537E+02  0.11990500715E+03  0.21253523437E+03  0.17010903510E+03 0.  0.
        -24    2    5    5    0    0  0.68903148515E+01  0.28641927217E+02  0.12077398392E+03  0.14755813302E+03  0.79493465120E+02 0.  0.
          5    1    3    3  501    0  0.70884667084E+02 -0.20587162467E+02 -0.19119739491E+03  0.20500488069E+03  0.47000000000E+01 0. -1.
        -11    1    4    4    0    0 -0.28331841664E+01  0.26209866502E+02 -0.35342807599E+02  0.44091927646E+02  0.00000000000E+00 0.  1.
         12    1    4    4    0    0 -0.28090173423E+02  0.10502587503E+02 -0.43010638511E+03  0.43115062878E+03  0.00000000000E+00 0. -1.
         -5    1    5    5    0  502 -0.46851624346E+02 -0.44767218755E+02 -0.86897676137E+00  0.64977101347E+02  0.47000000000E+01 0.  1.
         11    1    6    6    0    0 -0.30523980917E+02 -0.48222669537E+01  0.68170220021E+02  0.74847488717E+02  0.00000000000E+00 0. -1.
        -12    1    6    6    0    0  0.37414295769E+02  0.33464194171E+02  0.52603763895E+02  0.72710644305E+02  0.00000000000E+00 0.  1.
</event>
<event>
12    1  0.8462562E-002  0.1823970E+03  0.7818608E-02  0.1168033E+00
         21   -1    0    0  501  502  0.00000000000E+00  0.00000000000E+00  0.55896503168E+03  0.55896503168E+03  0.00000000000E+00 0. -1.
         21   -1    0    0  502  503 -0.00000000000E+00 -0.00000000000E+00 -0.12183775112E+03  0.12183775112E+03  0.00000000000E+00 0. -1.
         -6    2    1    2    0  503 -0.10713178124E+02 -0.51601021105E+02 -0.34168261043E+02  0.17544335323E+03  0.16381533068E+03 0.  0.
        -24    2    3    3    0    0 -0.57226845800E+02 -0.49262100599E+02 -0.50267988016E+02  0.12594301951E+03  0.87367654817E+02 0.  0.
          6    2    1    2  501    0  0.10713178124E+02  0.51601021105E+02  0.47129554160E+03  0.50535942957E+03  0.17461737587E+03 0.  0.
         24    2    5    5    0    0 -0.56573771878E+02  0.55109920283E+02  0.33324695704E+03  0.35167355607E+03  0.79894059117E+02 0.  0.
          5    1    5    5  501    0  0.67286950002E+02 -0.35088991785E+01  0.13804858456E+03  0.15368587350E+03  0.47000000000E+01 0. -1.
        -11    1    6    6    0    0 -0.38978667401E+02 -0.11027633793E+00  0.22993875245E+03  0.23321916420E+03  0.00000000000E+00 0.  1.
         12    1    6    6    0    0 -0.17595104477E+02  0.55220196621E+02  0.10330820460E+03  0.11845439187E+03  0.00000000000E+00 0. -1.
         -5    1    3    3    0  503  0.46513667676E+02 -0.23389205061E+01  0.16099726973E+02  0.49500333721E+02  0.47000000000E+01 0.  1.
         11    1    4    4    0    0  0.12204662833E+02 -0.32574653180E+02 -0.41261975077E+02  0.53968624329E+02  0.00000000000E+00 0. -1.
        -12    1    4    4    0    0 -0.69431508634E+02 -0.16687447418E+02 -0.90060129385E+01  0.71974395180E+02  0.00000000000E+00 0.  1.
</event>
<event>
12    1  0.8462562E-002  0.1927780E+03  0.7818608E-02  0.1156392E+00
         21   -1    0    0  501  502  0.00000000000E+00  0.00000000000E+00  0.38921437508E+03  0.38921437508E+03  0.00000000000E+00 0. -1.
         21   -1    0    0  502  503 -0.00000000000E+00 -0.00000000000E+00 -0.24989521405E+03  0.24989521405E+03  0.00000000000E+00 0. -1.
         -6    2    1    2    0  503  0.66203113017E+02  0.54530870638E+02 -0.18240348272E+03  0.26405119051E+03  0.17057412663E+03 0.  0.
        -24    2    3    3    0    0 -0.21731182696E+02  0.61548126309E+02 -0.11313652308E+03  0.15179396830E+03  0.77337699771E+02 0.  0.
          6    2    1    2  501    0 -0.66203113017E+02 -0.54530870638E+02  0.32172264375E+03  0.37505839862E+03  0.17264667632E+03 0.  0.
         24    2    5    5    0    0 -0.11232267707E+03 -0.48617799672E+02  0.24113537503E+03  0.28190059445E+03  0.79634175027E+02 0.  0.
          5    1    5    5  501    0  0.46119564056E+02 -0.59130709655E+01  0.80587268723E+02  0.93157804167E+02  0.47000000000E+01 0. -1.
        -13    1    6    6    0    0 -0.28666741954E+02  0.52161830938E+01  0.10930107897E+02  0.31120056538E+02  0.00000000000E+00 0.  1.
         14    1    6    6    0    0 -0.83655935119E+02 -0.53833982766E+02  0.23020526713E+03  0.25078053791E+03  0.00000000000E+00 0. -1.
         -5    1    3    3    0  503  0.87934295714E+02 -0.70172556707E+01 -0.69266959642E+02  0.11225722221E+03  0.47000000000E+01 0.  1.
         11    1    4    4    0    0  0.28235724465E+02  0.31224781628E+02 -0.55990814179E+02  0.70051512447E+02  0.00000000000E+00 0. -1.
        -12    1    4    4    0    0 -0.49966907161E+02  0.30323344681E+02 -0.57145708899E+02  0.81742455856E+02  0.00000000000E+00 0.  1.
</event>
<event>
12    1  0.8462562E-002  0.2382457E+03  0.7818608E-02  0.1121725E+00
         21   -1    0    0  503  502  0.00000000000E+00  0.00000000000E+00  0.29949228303E+03  0.29949228303E+03  0.00000000000E+00 0. -1.
         21   -1    0    0  501  503 -0.00000000000E+00 -0.00000000000E+00 -0.35336440891E+03  0.35336440891E+03  0.00000000000E+00 0.  1.
          6    2    1    2  501    0  0.10340588670E+03  0.12150543409E+03 -0.25145382986E+03  0.34334169151E+03  0.17087463434E+03 0.  0.
         24    2    3    3    0    0  0.23221261256E+02  0.35582859702E+02 -0.18892197981E+03  0.21013288843E+03  0.81602386397E+02 0.  0.
         -6    2    1    2    0  502 -0.10340588670E+03 -0.12150543409E+03  0.19758170398E+03  0.30951500043E+03  0.17693122344E+03 0.  0.
        -24    2    5    5    0    0  0.15053346227E+02 -0.22941522715E+02  0.56722435674E+02  0.10068287178E+03  0.78528270475E+02 0.  0.
          5    1    3    3  501    0  0.80184625444E+02  0.85922574386E+02 -0.62531850049E+02  0.13320880308E+03  0.47000000000E+01 0. -1.
        -13    1    4    4    0    0  0.24431077386E+02 -0.22268554622E+02 -0.53828469039E+02  0.63168585122E+02  0.00000000000E+00 0.  1.
         14    1    4    4    0    0 -0.12098161307E+01  0.57851414324E+02 -0.13509351077E+03  0.14696430331E+03  0.00000000000E+00 0. -1.
         -5    1    5    5    0  502 -0.11845923293E+03 -0.98563911373E+02  0.14085926830E+03  0.20883212865E+03  0.47000000000E+01 0.  1.
         11    1    6    6    0    0  0.24671908874E+02  0.21574903113E+02  0.41026169979E+02  0.52510248095E+02  0.00000000000E+00 0. -1.
        -12    1    6    6    0    0 -0.96185626467E+01 -0.44516425828E+02  0.15696265695E+02  0.48172623684E+02  0.00000000000E+00 0.  1.
</event>
<event>
12    1  0.8462562E-002  0.1982403E+03  0.7818608E-02  0.1152495E+00
         21   -1    0    0  501  502  0.00000000000E+00  0.00000000000E+00  0.70057759749E+03  0.70057759749E+03  0.00000000000E+00 0. -1.
         21   -1    0    0  502  503 -0.00000000000E+00 -0.00000000000E+00 -0.61336075892E+02  0.61336075892E+02  0.00000000000E+00 0. -1.
         -6    2    1    2    0  503 -0.76630667447E+02 -0.43276928334E+02  0.45139542578E+03  0.49300816197E+03  0.17763464087E+03 0.  0.
        -24    2    3    3    0    0 -0.79358161639E+02 -0.47334358096E+02  0.46355263971E+03  0.47908732107E+03  0.78136752888E+02 0.  0.
          6    2    1    2  501    0  0.76630667447E+02  0.43276928334E+02  0.18784609582E+03  0.26890551141E+03  0.17111068533E+03 0.  0.
         24    2    5    5    0    0  0.89396771241E+02  0.78506458778E+01  0.19608260303E+03  0.23007350212E+03  0.80199836751E+02 0.  0.
          5    1    5    5  501    0 -0.12766103795E+02  0.35426282456E+02 -0.82365072121E+01  0.38832009294E+02  0.47000000000E+01 0. -1.
        -13    1    6    6    0    0  0.12603039570E+02 -0.30275899585E+02  0.73483418249E+02  0.80469121156E+02  0.00000000000E+00 0.  1.
         14    1    6    6    0    0  0.76793731672E+02  0.38126545462E+02  0.12259918478E+03  0.14960438096E+03  0.00000000000E+00 0. -1.
         -5    1    3    3    0  503  0.27274941927E+01  0.40574297623E+01 -0.12157213932E+02  0.13920840903E+02  0.47000000000E+01 0.  1.
         11    1    4    4    0    0 -0.94477801385E+02 -0.46096941375E+02  0.38563067026E+03  0.39970238528E+03  0.00000000000E+00 0. -1.
        -12    1    4    4    0    0  0.15119639746E+02 -0.12374167209E+01  0.77921969453E+02  0.79384935786E+02  0.00000000000E+00 0.  1.
</event>
<event>
12    1  0.8462562E-002  0.1872030E+03  0.7818608E-02  0.1161349E+00
         21   -1    0    0  501  502  0.00000000000E+00  0.00000000000E+00  0.17255329355E+04  0.17255329355E+04  0.00000000000E+00 0.  1.
         21   -1    0    0  502  503 -0.00000000000E+00 -0.00000000000E+00 -0.24454542090E+02  0.24454542090E+02  0.00000000000E+00 0.  1.
         -6    2    1    2    0  503 -0.69199534947E+02  0.26379337034E+02  0.48621082307E+03  0.52100474595E+03  0.17193177649E+03 0.  0.
        -24    2    3    3    0    0  0.14985066082E+02  0.47671326487E+02  0.31298176358E+03  0.32717287829E+03  0.81162801725E+02 0.  0.
          6    2    1    2  501    0  0.69199534947E+02 -0.26379337034E+02  0.12148675704E+04  0.12289827317E+04  0.17032585288E+03 0.  0.
         24    2    5    5    0    0  0.82185497415E+02 -0.72905779263E+02  0.85309993976E+03  0.86397416519E+03  0.81253567721E+02 0.  0.
          5    1    5    5  501    0 -0.12985962468E+02  0.46526442229E+02  0.36176763059E+03  0.36500856647E+03  0.47000000000E+01 0. -1.
        -11    1    6    6    0    0  0.64382954569E+02 -0.51969364186E+02  0.33217186776E+03  0.34232167530E+03  0.00000000000E+00 0.  1.
         12    1    6    6    0    0  0.17802542846E+02 -0.20936415077E+02  0.52092807200E+03  0.52165248989E+03  0.00000000000E+00 0. -1.
         -5    1    3    3    0  503 -0.84184601029E+02 -0.21291989453E+02  0.17322905950E+03  0.19383186766E+03  0.47000000000E+01 0.  1.
         13    1    4    4    0    0 -0.44134501005E+01  0.26601235410E+02  0.22043750992E+02  0.34828597803E+02  0.00000000000E+00 0. -1.
        -14    1    4    4    0    0  0.19398516182E+02  0.21070091077E+02  0.29093801259E+03  0.29234428049E+03  0.00000000000E+00 0.  1.
</event>
<event>
12    1  0.8462562E-002  0.1718832E+03  0.7818608E-02  0.1176823E+00
         21   -1    0    0  503  502  0.00000000000E+00  0.00000000000E+00  0.43486839146E+02  0.43486839146E+02  0.00000000000E+00 0. -1.
         21   -1    0    0  501  503 -0.00000000000E+00 -0.00000000000E+00 -0.84687127838E+03  0.84687127838E+03  0.00000000000E+00 0. -1.
          6    2    1    2  501    0 -0.25267001030E+02  0.13278399944E+02 -0.60447029255E+03  0.62746905850E+03  0.16588655027E+03 0.  0.
         24    2    3    3    0    0 -0.26322501021E+02 -0.23224302827E+02 -0.57609725752E+03  0.58098593784E+03  0.66515919476E+02 0.  0.
         -6    2    1    2    0  502  0.25267001030E+02 -0.13278399944E+02 -0.19891414669E+03  0.26288905902E+03  0.16949655559E+03 0.  0.
        -24    2    5    5    0    0  0.71884801100E+02  0.16759802885E+02 -0.10197073171E+03  0.15110521127E+03  0.83584921630E+02 0.  0.
          5    1    3    3  501    0  0.10554999905E+01  0.36502702772E+02 -0.28373035027E+02  0.46483120662E+02  0.47000000000E+01 0. -1.
        -11    1    4    4    0    0 -0.17725632167E+02 -0.12924892473E+02 -0.48641529430E+02  0.53359622061E+02  0.00000000000E+00 0.  1.
         12    1    4    4    0    0 -0.85968688534E+01 -0.10299410355E+02 -0.52745572809E+03  0.52762631578E+03  0.00000000000E+00 0. -1.
         -5    1    5    5    0  502 -0.46617800070E+02 -0.30038202829E+02 -0.96943414975E+02  0.11178384776E+03  0.47000000000E+01 0.  1.
         11    1    6    6    0    0 -0.16913193504E+02  0.13052338323E+02 -0.11413493302E+02  0.24221632471E+02  0.00000000000E+00 0. -1.
        -12    1    6    6    0    0  0.88797994604E+02  0.37074645614E+01 -0.90557238410E+02  0.12688357879E+03  0.00000000000E+00 0.  1.
</event>
<event>
12    1  0.8462562E-002  0.2301907E+03  0.7818608E-02  0.1126872E+00
         21   -1    0    0  503  502  0.00000000000E+00  0.00000000000E+00  0.91845881483E+03  0.91845881483E+03  0.00000000000E+00 0.  1.
         21   -1    0    0  501  503 -0.00000000000E+00 -0.00000000000E+00 -0.62554651922E+02  0.62554651922E+02  0.00000000000E+00 0. -1.
          6    2    1    2  501    0 -0.97112387736E+02 -0.11790089968E+03  0.57004076492E+03  0.61399079793E+03  0.16943077725E+03 0.  0.
         24    2    3    3    0    0 -0.55899634103E+02  0.56094840543E+01  0.23847245247E+03  0.25774237089E+03  0.80036140331E+02 0.  0.
         -6    2    1    2    0  502  0.97112387736E+02  0.11790089968E+03  0.28586339799E+03  0.36702266882E+03  0.17221010168E+03 0.  0.
        -24    2    5    5    0    0  0.64165339098E+02  0.72193261427E+02  0.70249011943E+02  0.14411831786E+03  0.80660449578E+02 0.  0.
          5    1    3    3  501    0 -0.41212753633E+02 -0.12351038373E+03  0.33156831245E+03  0.35624842704E+03  0.47000000000E+01 0. -1.
        -13    1    4    4    0    0 -0.56495000813E+02 -0.27404264344E+02  0.13025437203E+03  0.14459903269E+03  0.00000000000E+00 0.  1.
         14    1    4    4    0    0  0.59536671045E+00  0.33013748399E+02  0.10821808044E+03  0.11314333820E+03  0.00000000000E+00 0. -1.
         -5    1    5    5    0  502  0.32947048638E+02  0.45707638251E+02  0.21561438604E+03  0.22290435096E+03  0.47000000000E+01 0.  1.
         11    1    6    6    0    0  0.41071834450E+02 -0.79279917406E+01  0.16813778809E+02  0.45082721701E+02  0.00000000000E+00 0. -1.
        -12    1    6    6    0    0  0.23093504648E+02  0.80121253168E+02  0.53435233134E+02  0.99035596157E+02  0.00000000000E+00 0.  1.
</event>
<event>
12    1  0.8462562E-002  0.1951837E+03  0.7818608E-02  0.1153873E+00
         21   -1    0    0  503  502  0.00000000000E+00  0.00000000000E+00  0.57889369681E+03  0.57889369681E+03  0.00000000000E+00 0. -1.
         21   -1    0    0  501  503 -0.00000000000E+00 -0.00000000000E+00 -0.22142411781E+03  0.22142411781E+03  0.00000000000E+00 0. -1.
          6    2    1    2  501    0  0.70423700346E+02 -0.57804803587E+02 -0.15674259229E+03  0.25030797979E+03  0.17258317305E+03 0.  0.
         24    2    3    3    0    0  0.13586657761E+02 -0.82983217956E+02 -0.14559204109E+03  0.18697689144E+03  0.81807724407E+02 0.  0.
         -6    2    1    2    0  502 -0.70423700346E+02  0.57804803587E+02  0.51421217129E+03  0.55000983483E+03  0.17261450815E+03 0.  0.
        -24    2    5    5    0    0 -0.27831581538E+02  0.94137693303E+02  0.43239563171E+03  0.45076164287E+03  0.81139226803E+02 0.  0.
          5    1    3    3  501    0  0.56837042585E+02  0.25178414369E+02 -0.11150551203E+02  0.63331088353E+02  0.47000000000E+01 0. -1.
        -13    1    4    4    0    0 -0.33693047861E+02 -0.45475875137E+02 -0.77882488169E+02  0.96275431222E+02  0.00000000000E+00 0.  1.
         14    1    4    4    0    0  0.47279705622E+02 -0.37507342819E+02 -0.67709552916E+02  0.90701460215E+02  0.00000000000E+00 0. -1.
         -5    1    5    5    0  502 -0.42592118808E+02 -0.36332889716E+02  0.81816539573E+02  0.99248191960E+02  0.47000000000E+01 0.  1.
         11    1    6    6    0    0  0.17254037418E+02  0.33202670369E+02  0.25668639270E+03  0.25939935104E+03  0.00000000000E+00 0. -1.
        -12    1    6    6    0    0 -0.45085618956E+02  0.60935022934E+02  0.17570923902E+03  0.19136229183E+03  0.00000000000E+00 0.  1.
</event>
<event>
12    1  0.8462562E-002  0.1831162E+03  0.7818608E-02  0.1165405E+00
         21   -1    0    0  503  502  0.00000000000E+00  0.00000000000E+00  0.66585301069E+02  0.66585301069E+02  0.00000000000E+00 0.  1.
         21   -1    0    0  501  503 -0.00000000000E+00 -0.00000000000E+00 -0.49744181907E+03  0.49744181907E+03  0.00000000000E+00 0.  1.
          6    2    1    2  501    0 -0.47694570321E+02 -0.28368106204E+02 -0.22354989595E+03  0.28742708819E+03  0.17193095579E+03 0.  0.
         24    2    3    3    0    0 -0.59133081680E+02  0.29317314603E+02 -0.75910111607E+02  0.12843638646E+03  0.79858212088E+02 0.  0.
         -6    2    1    2    0  502  0.47694570321E+02  0.28368106204E+02 -0.20730662205E+03  0.27660003195E+03  0.17450507339E+03 0.  0.
        -24    2    5    5    0    0  0.12797473311E+02  0.82544337416E+02 -0.10994291905E+03  0.15974691017E+03  0.80338576638E+02 0.  0.
          5    1    3    3  501    0  0.11438511359E+02 -0.57685420807E+02 -0.14763978435E+03  0.15899070173E+03  0.47000000000E+01 0. -1.
        -13    1    4    4    0    0 -0.33217108878E+02 -0.55568022468E+00 -0.81951947436E+02  0.88429671442E+02  0.00000000000E+00 0.  1.
         14    1    4    4    0    0 -0.25915972802E+02  0.29872994828E+02  0.60418358293E+01  0.40006715017E+02  0.00000000000E+00 0. -1.
         -5    1    5    5    0  502  0.34897097010E+02 -0.54176231212E+02 -0.97363702999E+02  0.11685312178E+03  0.47000000000E+01 0.  1.
         13    1    6    6    0    0 -0.26474769943E+02  0.29336080904E+01 -0.19444933704E+02  0.32979159278E+02  0.00000000000E+00 0. -1.
        -14    1    6    6    0    0  0.39272243253E+02  0.79610729326E+02 -0.90497985344E+02  0.12676775089E+03  0.00000000000E+00 0.  1.
</event>
<event>
12    1  0.8462562E-002  0.2268397E+03  0.7818608E-02  0.1129070E+00
         21   -1    0    0  503  502  0.00000000000E+00  0.00000000000E+00  0.19057574162E+03  0.19057574162E+03  0.00000000000E+00 0. -1.
         21   -1    0    0  501  503 -0.00000000000E+00 -0.00000000000E+00 -0.27484649544E+03  0.27484649544E+03  0.00000000000E+00 0. -1.
          6    2    1    2  501    0 -0.14793756984E+02 -0.14670490754E+03 -0.74520811021E+01  0.22592831624E+03  0.17101720798E+03 0.  0.
         24    2    3    3    0    0  0.85086909716E+01 -0.21199650254E+02 -0.43061369478E+02  0.93321057370E+02  0.79578358958E+02 0.  0.
         -6    2    1    2    0  502  0.14793756984E+02  0.14670490754E+03 -0.76818672717E+02  0.23949392081E+03  0.17238052235E+03 0.  0.
        -24    2    5    5    0    0 -0.23558102551E+02  0.15886503596E+03 -0.84701690503E+02  0.19822691435E+03  0.79538980065E+02 0.  0.
          5    1    3    3  501    0 -0.23302447956E+02 -0.12550525729E+03  0.35609288376E+02  0.13260725887E+03  0.47000000000E+01 0. -1.
        -13    1    4    4    0    0 -0.51440748486E+01  0.12209360691E+02  0.18024596065E+02  0.22369981176E+02  0.00000000000E+00 0.  1.
         14    1    4    4    0    0  0.13652765820E+02 -0.33409010945E+02 -0.61085965543E+02  0.70951076194E+02  0.00000000000E+00 0. -1.
         -5    1    5    5    0  502  0.38351859535E+02 -0.12160128421E+02  0.78830177863E+01  0.41267006463E+02  0.47000000000E+01 0.  1.
         11    1    6    6    0    0 -0.25002364789E+02  0.80165746541E+02 -0.85040262910E+02  0.11951364558E+03  0.00000000000E+00 0. -1.
        -12    1    6    6    0    0  0.14442622385E+01  0.78699289421E+02  0.33857240646E+00  0.78713268768E+02  0.00000000000E+00 0.  1.
</event>
<event>
12    1  0.8462562E-002  0.3587596E+03  0.7818608E-02  0.1059239E+00
         21   -1    0    0  501  502  0.00000000000E+00  0.00000000000E+00  0.94228465663E+03  0.94228465663E+03  0.00000000000E+00 0. -1.
         21   -1    0    0  502  503 -0.00000000000E+00 -0.00000000000E+00 -0.21078806925E+03  0.21078806925E+03  0.00000000000E+00 0. -1.
         -6    2    1    2    0  503 -0.30663250045E+02 -0.31179333414E+03  0.21726607088E+02  0.35778542090E+03  0.17141482968E+03 0.  0.
        -24    2    3    3    0    0  0.88973460089E+01 -0.26290499897E+03 -0.28608401567E+02  0.27709581083E+03  0.82252334261E+02 0.  0.
          6    2    1    2  501    0  0.30663250045E+02  0.31179333414E+03  0.70976998029E+03  0.79528730498E+03  0.17479460639E+03 0.  0.
         24    2    5    5    0    0  0.22337566673E+02  0.66552350774E+02  0.16795623510E+03  0.20047920029E+03  0.83990657586E+02 0.  0.
          5    1    5    5  501    0  0.83256833728E+01  0.24524098337E+03  0.54181374520E+03  0.59480810469E+03  0.47000000000E+01 0. -1.
        -11    1    6    6    0    0  0.72897659986E+00  0.82527861781E+02  0.12376695627E+03  0.14876034028E+03  0.00000000000E+00 0.  1.
         12    1    6    6    0    0  0.21608590073E+02 -0.15975511007E+02  0.44189278832E+02  0.51718860008E+02  0.00000000000E+00 0. -1.
         -5    1    3    3    0  503 -0.39560596054E+02 -0.48888335169E+02  0.50335008655E+02  0.80689610063E+02  0.47000000000E+01 0.  1.
         11    1    4    4    0    0 -0.97552974139E+01 -0.12420668998E+03  0.25287295840E+02  0.12712952054E+03  0.00000000000E+00 0. -1.
        -12    1    4    4    0    0  0.18652643423E+02 -0.13869830900E+03 -0.53895697407E+02  0.14996629029E+03  0.00000000000E+00 0.  1.
</event>
<event>
12    1  0.8462562E-002  0.1744226E+03  0.7818608E-02  0.1173748E+00
         21   -1    0    0  501  502  0.00000000000E+00  0.00000000000E+00  0.80284479606E+02  0.80284479606E+02  0.00000000000E+00 0.  1.
         21   -1    0    0  502  503 -0.00000000000E+00 -0.00000000000E+00 -0.38413269125E+03  0.38413269125E+03  0.00000000000E+00 0.  1.
         -6    2    1    2    0  503  0.60643905333E+01  0.70040921250E+01 -0.18802091573E+03  0.25646655647E+03  0.17417633507E+03 0.  0.
        -24    2    3    3    0    0  0.26702835177E+02  0.50752296000E+02 -0.18278880928E+03  0.20758592966E+03  0.79945809385E+02 0.  0.
          6    2    1    2  501    0 -0.60643905333E+01 -0.70040921250E+01 -0.11582729592E+03  0.20795061439E+03  0.17245770903E+03 0.  0.
         24    2    5    5    0    0  0.40749689025E+02  0.34074179867E+02 -0.26933155886E+02  0.99307894397E+02  0.79467453177E+02 0.  0.
          5    1    5    5  501    0 -0.46814079558E+02 -0.41078271992E+02 -0.88894140030E+02  0.10864271999E+03  0.47000000000E+01 0. -1.
        -11    1    6    6    0    0  0.35296681363E+02  0.46860810869E+02 -0.46809614712E+02  0.75052856975E+02  0.00000000000E+00 0.  1.
         12    1    6    6    0    0  0.54530076619E+01 -0.12786631002E+02  0.19876458825E+02  0.24255037423E+02  0.00000000000E+00 0. -1.
         -5    1    3    3    0  503 -0.20638444644E+02 -0.43748203875E+02 -0.52321064454E+01  0.48880626811E+02  0.47000000000E+01 0.  1.
         11    1    4    4    0    0  0.21426437907E+02  0.70223474972E+02 -0.11153053277E+03  0.13352710743E+03  0.00000000000E+00 0. -1.
        -12    1    4    4    0    0  0.52763972702E+01 -0.19471178973E+02 -0.71258276507E+02  0.74058822226E+02  0.00000000000E+00 0.  1.
</event>
<event>
12    1  0.8462562E-002  0.1875642E+03  0.7818608E-02  0.1160759E+00
         21   -1    0    0  501  502  0.00000000000E+00  0.00000000000E+00  0.48150095189E+02  0.48150095189E+02  0.00000000000E+00 0. -1.
         21   -1    0    0  502  503 -0.00000000000E+00 -0.00000000000E+00 -0.15460038989E+04  0.15460038989E+04  0.00000000000E+00 0. -1.
         -6    2    1    2    0  503  0.50957343244E+02  0.51874158604E+02 -0.13279407076E+04  0.13410714546E+04  0.17250665000E+03 0.  0.
        -24    2    3    3    0    0  0.60313451018E+02 -0.15041362667E+02 -0.10572794192E+04  0.10620645609E+04  0.79230083467E+02 0.  0.
          6    2    1    2  501    0 -0.50957343244E+02 -0.51874158604E+02 -0.16991309610E+03  0.25308253947E+03  0.17289514857E+03 0.  0.
         24    2    5    5    0    0 -0.63191116960E+02 -0.94053563848E+02 -0.10127455716E+03  0.17146081152E+03  0.79391963222E+02 0.  0.
          5    1    5    5  501    0  0.12233773716E+02  0.42179405244E+02 -0.68638538941E+02  0.81621727953E+02  0.47000000000E+01 0. -1.
        -11    1    6    6    0    0  0.17137799015E+02 -0.30282213329E+02 -0.17062502753E+02  0.38753652723E+02  0.00000000000E+00 0.  1.
         12    1    6    6    0    0 -0.80328915975E+02 -0.63771350519E+02 -0.84212054408E+02  0.13270715880E+03  0.00000000000E+00 0. -1.
         -5    1    3    3    0  503 -0.93561077737E+01  0.66915521271E+02 -0.27066128835E+03  0.27900689374E+03  0.47000000000E+01 0.  1.
         11    1    4    4    0    0  0.79012230806E+02 -0.42783801714E+01 -0.82861280707E+03  0.83238237679E+03  0.00000000000E+00 0. -1.
        -12    1    4    4    0    0 -0.18698779789E+02 -0.10762982496E+02 -0.22866661217E+03  0.22968218407E+03  0.00000000000E+00 0.  1.
</event>
<event>
12    1  0.8462562E-002  0.1742630E+03  0.7818608E-02  0.1173813E+00
         21   -1    0    0  503  502  0.00000000000E+00  0.00000000000E+00  0.40437071699E+03  0.40437071699E+03  0.00000000000E+00 0. -1.
         21   -1    0    0  501  503 -0.00000000000E+00 -0.00000000000E+00 -0.42395634486E+03  0.42395634486E+03  0.00000000000E+00 0. -1.
          6    2    1    2  501    0 -0.23875742704E+02 -0.52733268187E+01 -0.38580374400E+03  0.42333453163E+03  0.17253909041E+03 0.  0.
         24    2    3    3    0    0 -0.74574599101E+02  0.26758811084E+02 -0.21913530581E+03  0.24614285522E+03  0.79300807834E+02 0.  0.
         -6    2    1    2    0  502  0.23875742704E+02  0.52733268187E+01  0.36621811614E+03  0.40499253022E+03  0.17118814762E+03 0.  0.
        -24    2    5    5    0    0 -0.16509173677E+02  0.25967446421E+02  0.34372093550E+03  0.35412602657E+03  0.79462570464E+02 0.  0.
          5    1    3    3  501    0  0.50698856397E+02 -0.32032137902E+02 -0.16666843819E+03  0.17719167641E+03  0.47000000000E+01 0. -1.
        -13    1    4    4    0    0 -0.36077452413E+02 -0.13845458037E+02 -0.30047721207E+02  0.48950432384E+02  0.00000000000E+00 0.  1.
         14    1    4    4    0    0 -0.38497146688E+02  0.40604269121E+02 -0.18908758460E+03  0.19719242284E+03  0.00000000000E+00 0. -1.
         -5    1    5    5    0  502  0.40384916382E+02 -0.20694119602E+02  0.22497180637E+02  0.50866503653E+02  0.47000000000E+01 0.  1.
         11    1    6    6    0    0  0.22624481080E+02  0.21852419589E+02  0.25672498197E+03  0.25864475976E+03  0.00000000000E+00 0. -1.
        -12    1    6    6    0    0 -0.39133654757E+02  0.41150268318E+01  0.86995953533E+02  0.95481266810E+02  0.00000000000E+00 0.  1.
</event>
<event>
12    1  0.8462562E-002  0.1852437E+03  0.7818608E-02  0.1162828E+00
         21   -1    0    0  503  502  0.00000000000E+00  0.00000000000E+00  0.58231938485E+03  0.58231938485E+03  0.00000000000E+00 0. -1.
         21   -1    0    0  501  503 -0.00000000000E+00 -0.00000000000E+00 -0.61491479156E+02  0.61491479156E+02  0.00000000000E+00 0. -1.
          6    2    1    2  501    0 -0.56886909240E+02  0.38905461442E+02  0.19461801018E+03  0.26868458784E+03  0.17194616158E+03 0.  0.
         24    2    3    3    0    0 -0.19425594336E+02  0.66259614274E+02  0.53379545402E+02  0.11994994586E+03  0.82285621137E+02 0.  0.
         -6    2    1    2    0  502  0.56886909240E+02 -0.38905461442E+02  0.32620989551E+03  0.37512627616E+03  0.17192170243E+03 0.  0.
        -24    2    5    5    0    0 -0.94764647140E+01 -0.61975633444E+02  0.25972334713E+03  0.27828165136E+03  0.77805384853E+02 0.  0.
          5    1    3    3  501    0 -0.37461314903E+02 -0.27354152832E+02  0.14123846478E+03  0.14873464198E+03  0.47000000000E+01 0. -1.
        -13    1    4    4    0    0  0.28226512473E+02  0.46046048712E+02  0.16780087972E+02  0.56555689022E+02  0.00000000000E+00 0.  1.
         14    1    4    4    0    0 -0.47652106810E+02  0.20213565562E+02  0.36599457430E+02  0.63394256840E+02  0.00000000000E+00 0. -1.
         -5    1    5    5    0  502  0.66363373954E+02  0.23070172002E+02  0.66486548382E+02  0.96844624809E+02  0.47000000000E+01 0.  1.
         13    1    6    6    0    0  0.30462496790E+02 -0.14393945183E+02  0.56576871213E+02  0.65849007015E+02  0.00000000000E+00 0. -1.
        -14    1    6    6    0    0 -0.39938961504E+02 -0.47581688261E+02  0.20314647592E+03  0.21243264434E+03  0.00000000000E+00 0.  1.
</event>
<event>
12    1  0.8462562E-002  0.2129290E+03  0.7818608E-02  0.1139296E+00
         21   -1    0    0  503  502  0.00000000000E+00  0.00000000000E+00  0.44997970123E+02  0.44997970123E+02  0.00000000000E+00 0. -1.
         21   -1    0    0  501  503 -0.00000000000E+00 -0.00000000000E+00 -0.10275868876E+04  0.10275868876E+04  0.00000000000E+00 0. -1.
          6    2    1    2  501    0  0.10425427544E+03  0.70236925396E+02 -0.56724643166E+03  0.60584279857E+03  0.17168227258E+03 0.  0.
         24    2    3    3    0    0  0.94811350111E+02 -0.13674127648E+02 -0.38664956031E+03  0.40642476126E+03  0.80666165193E+02 0.  0.
         -6    2    1    2    0  502 -0.10425427544E+03 -0.70236925396E+02 -0.41534248586E+03  0.46674205919E+03  0.17186212387E+03 0.  0.
        -24    2    5    5    0    0 -0.81666449333E+02 -0.71993039640E+02 -0.15356825629E+03  0.20394721317E+03  0.78478339170E+02 0.  0.
          5    1    3    3  501    0  0.94429253248E+01  0.83911053045E+02 -0.18059687135E+03  0.19941803731E+03  0.47000000000E+01 0. -1.
        -11    1    4    4    0    0  0.33830476838E+02 -0.28085551995E+02 -0.27413309165E+03  0.27763690556E+03  0.00000000000E+00 0.  1.
         12    1    4    4    0    0  0.60980873273E+02  0.14411424346E+02 -0.11251646866E+03  0.12878785570E+03  0.00000000000E+00 0. -1.
         -5    1    5    5    0  502 -0.22587826103E+02  0.17561142437E+01 -0.26177422957E+03  0.26279484602E+03  0.47000000000E+01 0.  1.
         13    1    6    6    0    0 -0.39729860821E+02  0.52206253583E+01 -0.79495003713E+02  0.89023437281E+02  0.00000000000E+00 0. -1.
        -14    1    6    6    0    0 -0.41936588511E+02 -0.77213664998E+02 -0.74073252574E+02  0.11492377589E+03  0.00000000000E+00 0.  1.
</event>
<event>
12    1  0.8462562E-002  0.2269752E+03  0.7818608E-02  0.1128875E+00
         21   -1    0    0  503  502  0.00000000000E+00  0.00000000000E+00  0.12888417522E+03  0.12888417522E+03  0.00000000000E+00 0.  1.
         21   -1    0    0  501  503 -0.00000000000E+00 -0.00000000000E+00 -0.45178011608E+03  0.45178011608E+03  0.00000000000E+00 0.  1.
          6    2    1    2  501    0  0.14720350437E+03  0.79796150934E+01 -0.26097551428E+03  0.34586989311E+03  0.17258394464E+03 0.  0.
         24    2    3    3    0    0  0.83855020829E+02  0.33960628314E+02 -0.24846588618E+03  0.27610869895E+03  0.79471556213E+02 0.  0.
         -6    2    1    2    0  502 -0.14720350437E+03 -0.79796150934E+01 -0.61920426584E+02  0.23479439819E+03  0.17193523268E+03 0.  0.
        -24    2    5    5    0    0 -0.60052900854E+02  0.63736340809E+02 -0.56647491572E+01  0.10859932195E+03  0.63976959165E+02 0.  0.
          5    1    3    3  501    0  0.63348483546E+02 -0.25981013220E+02 -0.12509628102E+02  0.69761194161E+02  0.47000000000E+01 0. -1.
        -13    1    4    4    0    0  0.21985343011E+02  0.48734398366E+02 -0.14625937059E+03  0.15572475839E+03  0.00000000000E+00 0.  1.
         14    1    4    4    0    0  0.61869677817E+02 -0.14773770052E+02 -0.10220651559E+03  0.12038394056E+03  0.00000000000E+00 0. -1.
         -5    1    5    5    0  502 -0.87150603521E+02 -0.71715955902E+02 -0.56255677427E+02  0.12619507624E+03  0.47000000000E+01 0.  1.
         13    1    6    6    0    0 -0.15849244941E+02  0.18999610511E+02  0.27917220175E+02  0.37303551401E+02  0.00000000000E+00 0. -1.
        -14    1    6    6    0    0 -0.44203655913E+02  0.44736730297E+02 -0.33581969333E+02  0.71295770548E+02  0.00000000000E+00 0.  1.
</event>
<event>
12    1  0.8462562E-002  0.1762190E+03  0.7818608E-02  0.1172080E+00
         21   -1    0    0  501  502  0.00000000000E+00  0.00000000000E+00  0.98235467631E+02  0.98235467631E+02  0.00000000000E+00 0.  1.
         21   -1    0    0  502  503 -0.00000000000E+00 -0.00000000000E+00 -0.37135858783E+03  0.37135858783E+03  0.00000000000E+00 0.  1.
         -6    2    1    2    0  503 -0.24015155581E+02 -0.38055035127E+02 -0.22964221018E+03  0.28809003552E+03  0.16803395632E+03 0.  0.
        -24    2    3    3    0    0 -0.78502583211E+02 -0.35679641478E+02 -0.16836463699E+03  0.20592219972E+03  0.81373269333E+02 0.  0.
          6    2    1    2  501    0  0.24015155581E+02  0.38055035127E+02 -0.43480910025E+02  0.18150401994E+03  0.17037666015E+03 0.  0.
         24    2    5    5    0    0 -0.38317687582E+02  0.62407328139E+02 -0.19581206476E+02  0.11028812746E+03  0.80106976132E+02 0.  0.
          5    1    5    5  501    0  0.62332843164E+02 -0.24352293012E+02 -0.23899703549E+02  0.71215892479E+02  0.47000000000E+01 0. -1.
        -13    1    6    6    0    0 -0.57592674863E+02  0.44214116557E+02  0.67584863707E+01  0.72921063067E+02  0.00000000000E+00 0.  1.
         14    1    6    6    0    0  0.19274987280E+02  0.18193211582E+02 -0.26339692846E+02  0.37367064396E+02  0.00000000000E+00 0. -1.
         -5    1    3    3    0  503  0.54487427629E+02 -0.23753936488E+01 -0.61277573184E+02  0.82167835799E+02  0.47000000000E+01 0.  1.
         13    1    4    4    0    0 -0.52124332702E+01  0.58533966006E+01  0.75467686356E+01  0.10880506845E+02  0.00000000000E+00 0. -1.
        -14    1    4    4    0    0 -0.73290149940E+02 -0.41533038078E+02 -0.17591140563E+03  0.19504169288E+03  0.00000000000E+00 0.  1.
</event>
<event>
12    1  0.8462562E-002  0.1738527E+03  0.7818608E-02  0.1174201E+00
         21   -1    0    0  501  502  0.00000000000E+00  0.00000000000E+00  0.82039553025E+02  0.82039553025E+02  0.00000000000E+00 0. -1.
         21   -1    0    0  502  503 -0.00000000000E+00 -0.00000000000E+00 -0.47805478130E+03  0.47805478130E+03  0.00000000000E+00 0. -1.
         -6    2    1    2    0  503  0.18072790501E+02  0.89693304164E+01 -0.33316276498E+03  0.37522896413E+03  0.17144174787E+03 0.  0.
        -24    2    3    3    0    0  0.47003598432E+02 -0.41988163721E+02 -0.14359944931E+03  0.17675982672E+03  0.81552991020E+02 0.  0.
          6    2    1    2  501    0 -0.18072790501E+02 -0.89693304164E+01 -0.62852463301E+02  0.18486537019E+03  0.17267801918E+03 0.  0.
         24    2    5    5    0    0  0.22010216274E+02  0.29045465844E+02  0.14326243557E+02  0.89836874682E+02  0.80853782173E+02 0.  0.
          5    1    5    5  501    0 -0.40083006775E+02 -0.38014796261E+02 -0.77178706858E+02  0.95028495511E+02  0.47000000000E+01 0. -1.
        -11    1    6    6    0    0  0.18939511139E+02  0.47171825326E+02 -0.16927900816E+02  0.53576487500E+02  0.00000000000E+00 0.  1.
         12    1    6    6    0    0  0.30707051347E+01 -0.18126359482E+02  0.31254144373E+02  0.36260387182E+02  0.00000000000E+00 0. -1.
         -5    1    3    3    0  503 -0.28930807931E+02  0.50957494137E+02 -0.18956331567E+03  0.19846913741E+03  0.47000000000E+01 0.  1.
         11    1    4    4    0    0  0.22259139678E+02 -0.15855646277E+02 -0.13758367674E+03  0.14027166116E+03  0.00000000000E+00 0. -1.
        -12    1    4    4    0    0  0.24744458754E+02 -0.26132517444E+02 -0.60157725655E+01  0.36488165568E+02  0.00000000000E+00 0.  1.
</event>
<event>
12    1  0.8462562E-002  0.1774852E+03  0.7818608E-02  0.1170373E+00
         21   -1    0    0  503  502  0.00000000000E+00  0.00000000000E+00  0.64555561852E+02  0.64555561852E+02  0.00000000000E+00 0.  1.
         21   -1    0    0  501  503 -0.00000000000E+00 -0.00000000000E+00 -0.49340065781E+03  0.49340065781E+03  0.00000000000E+00 0.  1.
          6    2    1    2  501    0 -0.47421743770E+02  0.31953324985E+02 -0.24666601069E+03  0.30361353535E+03  0.16753274683E+03 0.  0.
         24    2    3    3    0    0  0.69930656154E+01  0.72784781799E+02 -0.13689762531E+03  0.17438750169E+03  0.79520522538E+02 0.  0.
         -6    2    1    2    0  502  0.47421743770E+02 -0.31953324985E+02 -0.18217908527E+03  0.25434268431E+03  0.16802126410E+03 0.  0.
        -24    2    5    5    0    0  0.56679604490E+02  0.36908520186E+02 -0.80081448838E+02  0.13075595739E+03  0.78161790647E+02 0.  0.
          5    1    3    3  501    0 -0.54414809386E+02 -0.40831456814E+02 -0.10976838538E+03  0.12922603366E+03  0.47000000000E+01 0. -1.
        -13    1    4    4    0    0 -0.56182064217E+01  0.84883222826E+02 -0.13049699337E+03  0.15577609264E+03  0.00000000000E+00 0.  1.
         14    1    4    4    0    0  0.12611272037E+02 -0.12098441027E+02 -0.64006319365E+01  0.18611409051E+02  0.00000000000E+00 0. -1.
         -5    1    5    5    0  502 -0.92578607201E+01 -0.68861845172E+02 -0.10209763643E+03  0.12358672692E+03  0.47000000000E+01 0.  1.
         13    1    6    6    0    0  0.55240131948E+02  0.37974618357E+02 -0.94702094357E+02  0.11602599059E+03  0.00000000000E+00 0. -1.
        -14    1    6    6    0    0  0.14394725420E+01 -0.10660981706E+01  0.14620645518E+02  0.14729966798E+02  0.00000000000E+00 0.  1.
</event>
<event>
12    1  0.8462562E-002  0.2134258E+03  0.7818608E-02  0.1139334E+00
         21   -1    0    0  503  502  0.00000000000E+00  0.00000000000E+00  0.10517906050E+03  0.10517906050E+03  0.00000000000E+00 0. -1.
         21   -1    0    0  501  503 -0.00000000000E+00 -0.00000000000E+00 -0.55128643907E+03  0.55128643907E+03  0.00000000000E+00 0.  1.
          6    2    1    2  501    0 -0.10158993589E+03  0.71323381868E+02 -0.37708412120E+03  0.43215588504E+03  0.17075928858E+03 0.  0.
         24    2    3    3    0    0 -0.13138411062E+03  0.68399308110E+02 -0.25050160872E+03  0.30199649997E+03  0.80688166122E+02 0.  0.
         -6    2    1    2    0  502  0.10158993589E+03 -0.71323381868E+02 -0.69023257371E+02  0.22430961454E+03  0.17361754877E+03 0.  0.
        -24    2    5    5    0    0 -0.15048030750E+02 -0.46472283510E+02 -0.17084681331E+02  0.94149336290E+02  0.78651731219E+02 0.  0.
          5    1    3    3  501    0  0.29794174724E+02  0.29240737590E+01 -0.12658251248E+03  0.13015938506E+03  0.47000000000E+01 0. -1.
        -11    1    4    4    0    0 -0.12928970452E+03  0.33319557937E+02 -0.20005235760E+03  0.24051396304E+03  0.00000000000E+00 0.  1.
         12    1    4    4    0    0 -0.20944060965E+01  0.35079750173E+02 -0.50449251116E+02  0.61482536929E+02  0.00000000000E+00 0. -1.
         -5    1    5    5    0  502  0.11663796664E+03 -0.24851098359E+02 -0.51938576041E+02  0.13016027825E+03  0.47000000000E+01 0.  1.
         11    1    6    6    0    0 -0.11303097776E+02  0.13610363102E+02  0.17364908976E+02  0.24789958993E+02  0.00000000000E+00 0. -1.
        -12    1    6    6    0    0 -0.37449329742E+01 -0.60082646611E+02 -0.34449590307E+02  0.69359377298E+02  0.00000000000E+00 0.  1.
</event>
<event>
12    1  0.8462562E-002  0.2710768E+03  0.7818608E-02  0.1100940E+00
         21   -1    0    0  501  502  0.00000000000E+00  0.00000000000E+00  0.12992573659E+04  0.12992573659E+04  0.00000000000E+00 0.  1.
         21   -1    0    0  502  503 -0.00000000000E+00 -0.00000000000E+00 -0.85129315529E+02  0.85129315529E+02  0.00000000000E+00 0.  1.
         -6    2    1    2    0  503  0.18485156938E+03  0.94193390588E+02  0.20182781239E+03  0.33641987617E+03  0.17146827606E+03 0.  0.
        -24    2    3    3    0    0  0.10193702557E+03 -0.22794469599E+02  0.62478956576E+02  0.13641693963E+03  0.61605327514E+02 0.  0.
          6    2    1    2  501    0 -0.18485156938E+03 -0.94193390588E+02  0.10123002380E+04  0.10479668053E+04  0.17447107377E+03 0.  0.
         24    2    5    5    0    0 -0.20422878714E+03 -0.96851817438E+02  0.98736454323E+03  0.10159289733E+04  0.78315168386E+02 0.  0.
          5    1    5    5  501    0  0.19377217764E+02  0.26584268495E+01  0.24935694740E+02  0.32037831914E+02  0.47000000000E+01 0. -1.
        -13    1    6    6    0    0 -0.29585565348E+02 -0.11691673256E+02  0.29838840157E+03  0.30007938798E+03  0.00000000000E+00 0.  1.
         14    1    6    6    0    0 -0.17464322179E+03 -0.85160144182E+02  0.68897614166E+03  0.71584958536E+03  0.00000000000E+00 0. -1.
         -5    1    3    3    0  503  0.82914543811E+02  0.11698786019E+03  0.13934885582E+03  0.20000293654E+03  0.47000000000E+01 0.  1.
         11    1    4    4    0    0  0.37772177178E+01 -0.22372963425E+02  0.16292858842E+02  0.27933387108E+02  0.00000000000E+00 0. -1.
        -12    1    4    4    0    0  0.98159807848E+02 -0.42150617398E+00  0.46186097734E+02  0.10848355252E+03  0.00000000000E+00 0.  1.
</event>
<event>
12    1  0.8462562E-002  0.2196127E+03  0.7818608E-02  0.1137359E+00
         21   -1    0    0  503  502  0.00000000000E+00  0.00000000000E+00  0.20011874524E+03  0.20011874524E+03  0.00000000000E+00 0. -1.
         21   -1    0    0  501  503 -0.00000000000E+00 -0.00000000000E+00 -0.43331700082E+03  0.43331700082E+03  0.00000000000E+00 0. -1.
          6    2    1    2  501    0  0.44141122451E+01  0.10496437657E+03 -0.33464057777E+03  0.39152613278E+03  0.17398675703E+03 0.  0.
         24    2    3    3    0    0  0.11269190162E+02  0.64587322934E+02 -0.33534773294E+03  0.35029642719E+03  0.77142517355E+02 0.  0.
         -6    2    1    2    0  502 -0.44141122451E+01 -0.10496437657E+03  0.10144232219E+03  0.24190961328E+03  0.19285411982E+03 0.  0.
        -24    2    5    5    0    0 -0.71174490989E+01 -0.34628520624E+02 -0.30395022290E+02  0.92384979656E+02  0.79757974923E+02 0.  0.
          5    1    3    3  501    0 -0.68550779170E+01  0.40377053640E+02  0.70715517745E+00  0.41229705582E+02  0.47000000000E+01 0. -1.
        -11    1    4    4    0    0 -0.40888937563E+01 -0.17292186824E+02 -0.66882827882E+02  0.69202972789E+02  0.00000000000E+00 0.  1.
         12    1    4    4    0    0  0.15358083918E+02  0.81879509758E+02 -0.26846490506E+03  0.28109345441E+03  0.00000000000E+00 0. -1.
         -5    1    5    5    0  502  0.27033368538E+01 -0.70335855950E+02  0.13183734448E+03  0.14952463363E+03  0.47000000000E+01 0.  1.
         11    1    6    6    0    0  0.31706523707E+02 -0.23266293364E+02  0.36726233929E+01  0.39498255849E+02  0.00000000000E+00 0. -1.
        -12    1    6    6    0    0 -0.38823972806E+02 -0.11362227260E+02 -0.34067645683E+02  0.52886723808E+02  0.00000000000E+00 0.  1.
</event>
<event>
12    1  0.8462562E-002  0.2341756E+03  0.7818608E-02  0.1123745E+00
         21   -1    0    0  503  502  0.00000000000E+00  0.00000000000E+00  0.17144029793E+03  0.17144029793E+03  0.00000000000E+00 0.  1.
         21   -1    0    0  501  503 -0.00000000000E+00 -0.00000000000E+00 -0.54806737402E+03  0.54806737402E+03  0.00000000000E+00 0.  1.
          6    2    1    2  501    0 -0.65774840605E+02 -0.14444176786E+03  0.43851919708E+02  0.23824612646E+03  0.17218731647E+03 0.  0.
         24    2    3    3    0    0 -0.85843006627E+02 -0.13908528521E+03 -0.93581002875E+01  0.18093278228E+03  0.77041283162E+02 0.  0.
         -6    2    1    2    0  502  0.65774840605E+02  0.14444176786E+03 -0.42047899580E+03  0.48126154549E+03  0.17210559346E+03 0.  0.
        -24    2    5    5    0    0  0.14200024192E+02  0.99205979601E+02 -0.38169459553E+03  0.40231499438E+03  0.78250388960E+02 0.  0.
          5    1    3    3  501    0  0.20068166022E+02 -0.53564826502E+01  0.53210019996E+02  0.57313344186E+02  0.47000000000E+01 0. -1.
        -11    1    4    4    0    0 -0.14821063255E+02 -0.83161540359E+02 -0.27297581224E+02  0.88773102072E+02  0.00000000000E+00 0.  1.
         12    1    4    4    0    0 -0.71021943372E+02 -0.55923744854E+02  0.17939480936E+02  0.92159680203E+02  0.00000000000E+00 0. -1.
         -5    1    5    5    0  502  0.51574816413E+02  0.45235788263E+02 -0.38784400265E+02  0.78946551107E+02  0.47000000000E+01 0.  1.
         13    1    6    6    0    0 -0.26387969214E+02  0.22435284936E+02 -0.61813321115E+02  0.70855864942E+02  0.00000000000E+00 0. -1.
        -14    1    6    6    0    0  0.40587993406E+02  0.76770694665E+02 -0.31988127442E+03  0.33145912944E+03  0.00000000000E+00 0.  1.
</event>
<event>
12    1  0.8462562E-002  0.1997123E+03  0.7818608E-02  0.1150040E+00
         21   -1    0    0  501  502  0.00000000000E+00  0.00000000000E+00  0.15639035379E+03  0.15639035379E+03  0.00000000000E+00 0. -1.
         21   -1    0    0  502  503 -0.00000000000E+00 -0.00000000000E+00 -0.56247849445E+03  0.56247849445E+03  0.00000000000E+00 0.  1.
         -6    2    1    2    0  503 -0.26842670074E+02 -0.97261665409E+02 -0.46899332609E+03  0.50974477266E+03  0.17235032012E+03 0.  0.
        -24    2    3    3    0    0 -0.16049164102E+02 -0.12338216365E+03 -0.26265669103E+03  0.30142848149E+03  0.79936588221E+02 0.  0.
          6    2    1    2  501    0  0.26842670074E+02  0.97261665409E+02  0.62905185425E+02  0.20912407558E+03  0.17203329950E+03 0.  0.
         24    2    5    5    0    0 -0.54178787687E+02  0.72054648230E+02  0.20808066569E+02  0.11428670030E+03  0.67091436599E+02 0.  0.
          5    1    5    5  501    0  0.81021457761E+02  0.25207017179E+02  0.42097118855E+02  0.94837375273E+02  0.47000000000E+01 0. -1.
        -11    1    6    6    0    0 -0.22583630811E+02  0.77097690787E+02  0.16323496993E+02  0.81978843975E+02  0.00000000000E+00 0.  1.
         12    1    6    6    0    0 -0.31595156876E+02 -0.50430425571E+01  0.44845695764E+01  0.32307856328E+02  0.00000000000E+00 0. -1.
         -5    1    3    3    0  503 -0.10793505972E+02  0.26120498237E+02 -0.20633663507E+03  0.20831629118E+03  0.47000000000E+01 0.  1.
         13    1    4    4    0    0  0.19843957852E+02 -0.68068502082E+00 -0.30364030287E+02  0.36279750972E+02  0.00000000000E+00 0. -1.
        -14    1    4    4    0    0 -0.35893121954E+02 -0.12270147863E+03 -0.23229266074E+03  0.26514873051E+03  0.00000000000E+00 0.  1.
</event>
<event>
12    1  0.8462562E-002  0.3543794E+03  0.7818608E-02  0.1060860E+00
         21   -1    0    0  501  502  0.00000000000E+00  0.00000000000E+00  0.23131922453E+03  0.23131922453E+03  0.00000000000E+00 0.  1.
         21   -1    0    0  502  503 -0.00000000000E+00 -0.00000000000E+00 -0.65399425434E+03  0.65399425434E+03  0.00000000000E+00 0.  1.
         -6    2    1    2    0  503 -0.13528581624E+03  0.27853978935E+03 -0.39405467052E+03  0.52978023799E+03  0.17175957289E+03 0.  0.
        -24    2    3    3    0    0 -0.16031913194E+03  0.27539590095E+03 -0.36211021628E+03  0.48880354845E+03  0.79119996933E+02 0.  0.
          6    2    1    2  501    0  0.13528581624E+03 -0.27853978935E+03 -0.28620359286E+02  0.35553324088E+03  0.17233134968E+03 0.  0.
         24    2    5    5    0    0  0.11085141303E+03 -0.27854322517E+03  0.85367585690E+01  0.31081432454E+03  0.81598431535E+02 0.  0.
          5    1    5    5  501    0  0.24434403209E+02  0.34358259351E-02 -0.37157117855E+02  0.44718916347E+02  0.47000000000E+01 0. -1.
        -13    1    6    6    0    0  0.66433152337E+02 -0.70284142832E+02  0.14469191440E+02  0.97788455167E+02  0.00000000000E+00 0.  1.
         14    1    6    6    0    0  0.44418260696E+02 -0.20825908234E+03 -0.59324328713E+01  0.21302586937E+03  0.00000000000E+00 0. -1.
         -5    1    3    3    0  503  0.25033315698E+02  0.31438883989E+01 -0.31944454247E+02  0.40976689547E+02  0.47000000000E+01 0.  1.
         13    1    4    4    0    0 -0.28117718110E+02  0.64736747198E+02 -0.37662670973E+02  0.79999558088E+02  0.00000000000E+00 0. -1.
        -14    1    4    4    0    0 -0.13220141383E+03  0.21065915375E+03 -0.32444754531E+03  0.40880399036E+03  0.00000000000E+00 0.  1.
</event>
<event>
12    1  0.8462562E-002  0.1840411E+03  0.7818608E-02  0.1164431E+00
         21   -1    0    0  503  502  0.00000000000E+00  0.00000000000E+00  0.24412752820E+03  0.24412752820E+03  0.00000000000E+00 0. -1.
         21   -1    0    0  501  503 -0.00000000000E+00 -0.00000000000E+00 -0.21924692519E+03  0.21924692519E+03  0.00000000000E+00 0. -1.
          6    2    1    2  501    0 -0.33201622660E+02  0.49555215834E+02  0.15420572457E+03  0.24010524520E+03  0.17410645054E+03 0.  0.
         24    2    3    3    0    0 -0.59011134584E+02  0.85405670020E+00  0.34102443739E+02  0.10787506002E+03  0.83612250819E+02 0.  0.
         -6    2    1    2    0  502  0.33201622660E+02 -0.49555215834E+02 -0.12932512156E+03  0.22326920820E+03  0.17194791391E+03 0.  0.
        -24    2    5    5    0    0 -0.42058042689E+02 -0.33693834845E+02 -0.37476196990E+02  0.10337794254E+03  0.79864761952E+02 0.  0.
          5    1    3    3  501    0  0.25809511924E+02  0.48701159134E+02  0.12010328084E+03  0.13223018519E+03  0.47000000000E+01 0. -1.
        -13    1    4    4    0    0 -0.80198623345E+02 -0.16359585979E+01  0.32270737398E+02  0.86463264102E+02  0.00000000000E+00 0.  1.
         14    1    4    4    0    0  0.21187488761E+02  0.24900152981E+01  0.18317063408E+01  0.21411795915E+02  0.00000000000E+00 0. -1.
         -5    1    5    5    0  502  0.75259665348E+02 -0.15861380989E+02 -0.91848924574E+02  0.11989126566E+03  0.47000000000E+01 0.  1.
         13    1    6    6    0    0 -0.19943779024E+02 -0.59255308002E+02 -0.23210148108E+02  0.66690755157E+02  0.00000000000E+00 0. -1.
        -14    1    6    6    0    0 -0.22114263665E+02  0.25561473157E+02 -0.14266048882E+02  0.36687187383E+02  0.00000000000E+00 0.  1.
</event>
<event>
12    1  0.8462562E-002  0.2079474E+03  0.7818608E-02  0.1143958E+00
         21   -1    0    0  501  502  0.00000000000E+00  0.00000000000E+00  0.84789016086E+02  0.84789016086E+02  0.00000000000E+00 0.  1.
         21   -1    0    0  502  503 -0.00000000000E+00 -0.00000000000E+00 -0.53532208661E+03  0.53532208661E+03  0.00000000000E+00 0.  1.
         -6    2    1    2    0  503  0.30326612077E+02 -0.10500716664E+03 -0.30200480683E+03  0.36456706350E+03  0.17249936810E+03 0.  0.
        -24    2    3    3    0    0  0.67040507863E+02 -0.18930747512E+02 -0.19716015767E+03  0.22395571783E+03  0.80194967927E+02 0.  0.
          6    2    1    2  501    0 -0.30326612077E+02  0.10500716664E+03 -0.14852826370E+03  0.25554403920E+03  0.17690647926E+03 0.  0.
         24    2    5    5    0    0  0.16281554056E+02  0.60642559380E+02 -0.85143015947E+01  0.10138003850E+03  0.79137916726E+02 0.  0.
          5    1    5    5  501    0 -0.46608166133E+02  0.44364607263E+02 -0.14001396210E+03  0.15416400070E+03  0.47000000000E+01 0. -1.
        -13    1    6    6    0    0 -0.18623238711E+02  0.60655460227E+02 -0.16527430724E+02  0.65567261966E+02  0.00000000000E+00 0.  1.
         14    1    6    6    0    0  0.34904792766E+02 -0.12900847323E-01  0.80131291297E+01  0.35812776532E+02  0.00000000000E+00 0. -1.
         -5    1    3    3    0  503 -0.36713895786E+02 -0.86076419130E+02 -0.10484464916E+03  0.14061134567E+03  0.47000000000E+01 0.  1.
         13    1    4    4    0    0  0.54851030900E+02  0.20951268811E+02 -0.77460460949E+02  0.97199353219E+02  0.00000000000E+00 0. -1.
        -14    1    4    4    0    0  0.12189476963E+02 -0.39882016324E+02 -0.11969969672E+03  0.12675636462E+03  0.00000000000E+00 0.  1.
</event>
<event>
12    1  0.8462562E-002  0.1774153E+03  0.7818608E-02  0.1170436E+00
         21   -1    0    0  503  502  0.00000000000E+00  0.00000000000E+00  0.82730337651E+02  0.82730337651E+02  0.00000000000E+00 0. -1.
         21   -1    0    0  501  503 -0.00000000000E+00 -0.00000000000E+00 -0.60596478998E+03  0.60596478998E+03  0.00000000000E+00 0. -1.
          6    2    1    2  501    0  0.72139680414E+01 -0.41631722051E+02 -0.51322715141E+02  0.18468948242E+03  0.17231059808E+03 0.  0.
         24    2    3    3    0    0  0.46506263425E+01  0.32820093237E+02 -0.58777429660E+01  0.97299671705E+02  0.91290149556E+02 0.  0.
         -6    2    1    2    0  502 -0.72139680414E+01  0.41631722051E+02 -0.47191173719E+03  0.50400564521E+03  0.17185971342E+03 0.  0.
        -24    2    5    5    0    0 -0.17986265757E+02  0.92459122743E+02 -0.36061905284E+03  0.38109259201E+03  0.79456071367E+02 0.  0.
          5    1    3    3  501    0  0.25633416989E+01 -0.74451815287E+02 -0.45444972175E+02  0.87389810711E+02  0.47000000000E+01 0. -1.
        -11    1    4    4    0    0 -0.29571206509E+02  0.25798255699E+02 -0.34411111513E+02  0.52193206905E+02  0.00000000000E+00 0.  1.
         12    1    4    4    0    0  0.34221832851E+02  0.70218375373E+01  0.28533368547E+02  0.45106464800E+02  0.00000000000E+00 0. -1.
         -5    1    5    5    0  502  0.10772297715E+02 -0.50827400692E+02 -0.11129268435E+03  0.12291305320E+03  0.47000000000E+01 0.  1.
         11    1    6    6    0    0  0.27960258810E+02  0.60970779364E+02 -0.21313132021E+03  0.22343717610E+03  0.00000000000E+00 0. -1.
        -12    1    6    6    0    0 -0.45946524567E+02  0.31488343379E+02 -0.14748773263E+03  0.15765541590E+03  0.00000000000E+00 0.  1.
</event>
<event>
12    1  0.8462562E-002  0.1885606E+03  0.7818608E-02  0.1161420E+00
         21   -1    0    0  503  502  0.00000000000E+00  0.00000000000E+00  0.88453998605E+03  0.88453998605E+03  0.00000000000E+00 0. -1.
         21   -1    0    0  501  503 -0.00000000000E+00 -0.00000000000E+00 -0.42223308945E+02  0.42223308945E+02  0.00000000000E+00 0. -1.
          6    2    1    2  501    0  0.51283854809E+02 -0.33330509175E+02  0.29463254411E+03  0.34980483001E+03  0.17836514918E+03 0.  0.
         24    2    3    3    0    0  0.10525607422E+02 -0.58743745030E+02  0.28324644518E+03  0.30021853618E+03  0.79630426139E+02 0.  0.
         -6    2    1    2    0  502 -0.51283854809E+02  0.33330509175E+02  0.54768413300E+03  0.57695846499E+03  0.17082799589E+03 0.  0.
        -24    2    5    5    0    0 -0.50795758157E+00 -0.15346539809E+02  0.44350057128E+03  0.45116517674E+03  0.81372511761E+02 0.  0.
          5    1    3    3  501    0  0.40758247387E+02  0.25413235855E+02  0.11386098930E+02  0.49586293827E+02  0.47000000000E+01 0. -1.
        -13    1    4    4    0    0 -0.61396176639E+01 -0.33199763446E+01  0.19224979648E+03  0.19237645749E+03  0.00000000000E+00 0.  1.
         14    1    4    4    0    0  0.16665225086E+02 -0.55423768685E+02  0.90996648697E+02  0.10784207869E+03  0.00000000000E+00 0. -1.
         -5    1    5    5    0  502 -0.50775897227E+02  0.48677048984E+02  0.10418356172E+03  0.12579328825E+03  0.47000000000E+01 0.  1.
         13    1    6    6    0    0  0.21013762205E+01  0.33660547730E+02  0.18331384900E+03  0.18639049195E+03  0.00000000000E+00 0. -1.
        -14    1    6    6    0    0 -0.26093338020E+01 -0.49007087539E+02  0.26018672228E+03  0.26477468479E+03  0.00000000000E+00 0.  1.
</event>
<event>
12    1  0.8462562E-002  0.2149715E+03  0.7818608E-02  0.1137885E+00
         21   -1    0    0  501  502  0.00000000000E+00  0.00000000000E+00  0.23384602447E+03  0.23384602447E+03  0.00000000000E+00 0.  1.
         21   -1    0    0  502  503 -0.00000000000E+00 -0.00000000000E+00 -0.28943837485E+03  0.28943837485E+03  0.00000000000E+00 0. -1.
         -6    2    1    2    0  503 -0.11891917647E+03  0.49326636864E+02 -0.17595554795E+03  0.27780050208E+03  0.17215654640E+03 0.  0.
        -24    2    3    3    0    0 -0.33336381977E+02  0.85222346429E+02 -0.90619615885E+02  0.15163700507E+03  0.80048134445E+02 0.  0.
          6    2    1    2  501    0  0.11891917647E+03 -0.49326636864E+02  0.12036319756E+03  0.24548389724E+03  0.17088053382E+03 0.  0.
         24    2    5    5    0    0  0.13645108278E+03  0.24873065677E+01  0.61138637363E+02  0.16472690990E+03  0.69079209463E+02 0.  0.
          5    1    5    5  501    0 -0.17531906310E+02 -0.51813943432E+02  0.59224560201E+02  0.80756987338E+02  0.47000000000E+01 0. -1.
        -13    1    6    6    0    0  0.36957476921E+02 -0.27455415970E+02  0.34308310696E+02  0.57417028391E+02  0.00000000000E+00 0.  1.
         14    1    6    6    0    0  0.99493605862E+02  0.29942722538E+02  0.26830326666E+02  0.10730988151E+03  0.00000000000E+00 0. -1.
         -5    1    3    3    0  503 -0.85582794496E+02 -0.35895709564E+02 -0.85335932061E+02  0.12616349702E+03  0.47000000000E+01 0.  1.
         11    1    4    4    0    0 -0.55874340059E+02  0.49853737855E+02 -0.36886182792E+02  0.83474112970E+02  0.00000000000E+00 0. -1.
        -12    1    4    4    0    0  0.22537958082E+02  0.35368608574E+02 -0.53733433093E+02  0.68162892096E+02  0.00000000000E+00 0.  1.
</event>
<event>
12    1  0.8462562E-002  0.1775239E+03  0.7818608E-02  0.1170523E+00
         21   -1    0    0  503  502  0.00000000000E+00  0.00000000000E+00  0.91249049133E+03  0.91249049133E+03  0.00000000000E+00 0. -1.
         21   -1    0    0  501  503 -0.00000000000E+00 -0.00000000000E+00 -0.46513243431E+02  0.46513243431E+02  0.00000000000E+00 0. -1.
          6    2    1    2  501    0 -0.17121346885E+02  0.37992903332E+02  0.18838524825E+03  0.25885078571E+03  0.17256339786E+03 0.  0.
         24    2    3    3    0    0  0.36656315971E+01 -0.42377296243E+02  0.12484128590E+03  0.15420188411E+03  0.79897448690E+02 0.  0.
         -6    2    1    2    0  502  0.17121346885E+02 -0.37992903332E+02  0.67759199965E+03  0.70015294905E+03  0.17130858956E+03 0.  0.
        -24    2    5    5    0    0  0.47499862857E+02  0.24449191396E+02  0.49442779262E+03  0.50421141144E+03  0.83164327552E+02 0.  0.
          5    1    3    3  501    0 -0.20786978482E+02  0.80370199574E+02  0.63543962357E+02  0.10464890160E+03  0.47000000000E+01 0. -1.
        -13    1    4    4    0    0  0.25624158121E+02 -0.20802278608E+01  0.97391262634E+02  0.10072726972E+03  0.00000000000E+00 0.  1.
         14    1    4    4    0    0 -0.21958526524E+02 -0.40297068382E+02  0.27450023261E+02  0.53474614391E+02  0.00000000000E+00 0. -1.
         -5    1    5    5    0  502 -0.30378515971E+02 -0.62442094728E+02  0.18316420702E+03  0.19594153761E+03  0.47000000000E+01 0.  1.
         11    1    6    6    0    0  0.45428745925E+02 -0.22375578904E+02  0.21526553405E+03  0.22114178176E+03  0.00000000000E+00 0. -1.
        -12    1    6    6    0    0  0.20711169319E+01  0.46824770300E+02  0.27916225857E+03  0.28306962968E+03  0.00000000000E+00 0.  1.
</event>
<event>
12    1  0.8462562E-002  0.2097142E+03  0.7818608E-02  0.1142114E+00
         21   -1    0    0  501  502  0.00000000000E+00  0.00000000000E+00  0.13292704285E+04  0.13292704285E+04  0.00000000000E+00 0.  1.
         21   -1    0    0  502  503 -0.00000000000E+00 -0.00000000000E+00 -0.73003118386E+02  0.73003118386E+02  0.00000000000E+00 0.  1.
         -6    2    1    2    0  503 -0.94701936415E+02 -0.73154925258E+02  0.10694317149E+03  0.23397306154E+03  0.17025407998E+03 0.  0.
        -24    2    3    3    0    0 -0.28742559434E+02  0.47413419645E+00 -0.29211140548E+01  0.86107822063E+02  0.81115131678E+02 0.  0.
          6    2    1    2  501    0  0.94701936415E+02  0.73154925258E+02  0.11493241386E+04  0.11683004853E+04  0.17222063923E+03 0.  0.
         24    2    5    5    0    0 -0.69503305061E-01  0.35141609029E+02  0.78610696716E+03  0.79097378122E+03  0.80252235137E+02 0.  0.
          5    1    5    5  501    0  0.94771439720E+02  0.38013316229E+02  0.36321717144E+03  0.37732670410E+03  0.47000000000E+01 0. -1.
        -11    1    6    6    0    0 -0.38643947562E+02  0.26632871354E+02  0.49026265181E+03  0.49250394138E+03  0.00000000000E+00 0.  1.
         12    1    6    6    0    0  0.38574444257E+02  0.85087376750E+01  0.29584431535E+03  0.29846983983E+03  0.00000000000E+00 0. -1.
         -5    1    3    3    0  503 -0.65959376981E+02 -0.73629059454E+02  0.10986428554E+03  0.14786523948E+03  0.47000000000E+01 0.  1.
         13    1    4    4    0    0  0.66187068128E+01 -0.32030866131E+02  0.13447507502E+02  0.35364093697E+02  0.00000000000E+00 0. -1.
        -14    1    4    4    0    0 -0.35361266247E+02  0.32505000327E+02 -0.16368621557E+02  0.50743728367E+02  0.00000000000E+00 0.  1.
</event>
<event>
12    1  0.8462562E-002  0.2636373E+03  0.7818608E-02  0.1105353E+00
         21   -1    0    0  501  502  0.00000000000E+00  0.00000000000E+00  0.12130554331E+03  0.12130554331E+03  0.00000000000E+00 0.  1.
         21   -1    0    0  502  503 -0.00000000000E+00 -0.00000000000E+00 -0.58029573786E+03  0.58029573786E+03  0.00000000000E+00 0.  1.
         -6    2    1    2    0  503  0.32254290424E+02  0.19624472916E+03 -0.17626765423E+03  0.31503091802E+03  0.16917996456E+03 0.  0.
        -24    2    3    3    0    0  0.21428390458E+01  0.94829071819E+02 -0.24946116797E+02  0.13033621656E+03  0.85837497534E+02 0.  0.
          6    2    1    2  501    0 -0.32254290424E+02 -0.19624472916E+03 -0.28272254033E+03  0.38657036315E+03  0.17306726405E+03 0.  0.
         24    2    5    5    0    0  0.28473967766E+02 -0.18085310336E+03 -0.22829373996E+03  0.30344751553E+03  0.80272978908E+02 0.  0.
          5    1    5    5  501    0 -0.60728258191E+02 -0.15391625806E+02 -0.54428800366E+02  0.83122847624E+02  0.47000000000E+01 0. -1.
        -11    1    6    6    0    0 -0.21320264859E+02 -0.11563721686E+03 -0.14212944427E+03  0.18446489787E+03  0.00000000000E+00 0.  1.
         12    1    6    6    0    0  0.49794232625E+02 -0.65215886495E+02 -0.86164295689E+02  0.11898261766E+03  0.00000000000E+00 0. -1.
         -5    1    3    3    0  503  0.30111451379E+02  0.10141565734E+03 -0.15132153743E+03  0.18469470146E+03  0.47000000000E+01 0.  1.
         13    1    4    4    0    0  0.18200320999E+02  0.39289678233E+01  0.20291567364E+02  0.27539720019E+02  0.00000000000E+00 0. -1.
        -14    1    4    4    0    0 -0.16057481953E+02  0.90900103996E+02 -0.45237684160E+02  0.10279649654E+03  0.00000000000E+00 0.  1.
</event>
<event>
12    1  0.8462562E-002  0.1960673E+03  0.7818608E-02  0.1153240E+00
         21   -1    0    0  501  502  0.00000000000E+00  0.00000000000E+00  0.52100929999E+03  0.52100929999E+03  0.00000000000E+00 0.  1.
         21   -1    0    0  502  503 -0.00000000000E+00 -0.00000000000E+00 -0.74462502770E+02  0.74462502770E+02  0.00000000000E+00 0. -1.
         -6    2    1    2    0  503 -0.27177234847E+01  0.94430224039E+02  0.25673951036E+03  0.32304419137E+03  0.17180780007E+03 0.  0.
        -24    2    3    3    0    0  0.28093504527E+02  0.49427669160E+02  0.24953323002E+03  0.26783022399E+03  0.78954775199E+02 0.  0.
          6    2    1    2  501    0  0.27177234847E+01 -0.94430224039E+02  0.18980728685E+03  0.27242761139E+03  0.17107175123E+03 0.  0.
         24    2    5    5    0    0  0.17509111232E+02  0.13556815132E+02  0.55668703238E+02  0.99525224488E+02  0.79472697051E+02 0.  0.
          5    1    5    5  501    0 -0.14791387747E+02 -0.10798703917E+03  0.13413858362E+03  0.17290238690E+03  0.47000000000E+01 0. -1.
        -11    1    6    6    0    0  0.42890541004E+02 -0.90772070628E+01  0.47321340281E+02  0.64508165697E+02  0.00000000000E+00 0.  1.
         12    1    6    6    0    0 -0.25381429773E+02  0.22634022195E+02  0.83473629570E+01  0.35017058791E+02  0.00000000000E+00 0. -1.
         -5    1    3    3    0  503 -0.30811228012E+02  0.45002554879E+02  0.72062803474E+01  0.55213967378E+02  0.47000000000E+01 0.  1.
         11    1    4    4    0    0  0.40396579718E+02  0.65215626577E+01  0.56853584219E+02  0.70048158227E+02  0.00000000000E+00 0. -1.
        -12    1    4    4    0    0 -0.12303075191E+02  0.42906106503E+02  0.19267964580E+03  0.19778206577E+03  0.00000000000E+00 0.  1.
</event>
<event>
12    1  0.8462562E-002  0.4355645E+03  0.7818608E-02  0.1032214E+00
         21   -1    0    0  503  502  0.00000000000E+00  0.00000000000E+00  0.12409921020E+04  0.12409921020E+04  0.00000000000E+00 0.  1.
         21   -1    0    0  501  503 -0.00000000000E+00 -0.00000000000E+00 -0.18710050676E+03  0.18710050676E+03  0.00000000000E+00 0.  1.
          6    2    1    2  501    0 -0.34134154714E+03  0.20834119256E+03  0.21897277321E+03  0.48638890538E+03  0.16942546310E+03 0.  0.
         24    2    3    3    0    0 -0.25109741142E+03  0.13197431125E+03  0.82910896388E+02  0.30608131010E+03  0.79651885080E+02 0.  0.
         -6    2    1    2    0  502  0.34134154714E+03 -0.20834119256E+03  0.83491882205E+03  0.94170370340E+03  0.17261610955E+03 0.  0.
        -24    2    5    5    0    0  0.25279531742E+03 -0.13990836358E+03  0.45066204446E+03  0.54145522058E+03  0.81225949493E+02 0.  0.
          5    1    3    3  501    0 -0.90244135720E+02  0.76366881303E+02  0.13606187682E+03  0.18030759528E+03  0.47000000000E+01 0. -1.
        -13    1    4    4    0    0 -0.43977909797E+02  0.12890633131E+02 -0.14508229037E+02  0.48069883320E+02  0.00000000000E+00 0.  1.
         14    1    4    4    0    0 -0.20711950162E+03  0.11908367812E+03  0.97419125425E+02  0.25801142678E+03  0.00000000000E+00 0. -1.
         -5    1    5    5    0  502  0.88546229723E+02 -0.68432828974E+02  0.38425677759E+03  0.40024848282E+03  0.47000000000E+01 0.  1.
         13    1    6    6    0    0 -0.40456282345E+01 -0.19680524011E+01 -0.24806027526E+00  0.45057598655E+01  0.00000000000E+00 0. -1.
        -14    1    6    6    0    0  0.25684094565E+03 -0.13794031118E+03  0.45091010473E+03  0.53694946072E+03  0.00000000000E+00 0.  1.
</event>
<event>
12    1  0.8462562E-002  0.2116892E+03  0.7818608E-02  0.1140329E+00
         21   -1    0    0  503  502  0.00000000000E+00  0.00000000000E+00  0.13315050384E+04  0.13315050384E+04  0.00000000000E+00 0. -1.
         21   -1    0    0  501  503 -0.00000000000E+00 -0.00000000000E+00 -0.33704427683E+02  0.33704427683E+02  0.00000000000E+00 0.  1.
          6    2    1    2  501    0 -0.18417215430E+02  0.12078498951E+03  0.69124876112E+03  0.72293647446E+03  0.17287015026E+03 0.  0.
         24    2    3    3    0    0 -0.62439236281E+01  0.16091725793E+01  0.16311070396E+03  0.18136195347E+03  0.79028351882E+02 0.  0.
         -6    2    1    2    0  502  0.18417215430E+02 -0.12078498951E+03  0.60655184956E+03  0.64227299158E+03  0.17228244829E+03 0.  0.
        -24    2    5    5    0    0 -0.32514834863E+02 -0.18019884892E+02  0.18560966837E+03  0.20595985817E+03  0.81157768880E+02 0.  0.
          5    1    3    3  501    0 -0.12173291802E+02  0.11917581693E+03  0.52813805715E+03  0.54157452099E+03  0.47000000000E+01 0. -1.
        -11    1    4    4    0    0 -0.30929807246E+02  0.28171297735E+02  0.71572892905E+02  0.82903280944E+02  0.00000000000E+00 0.  1.
         12    1    4    4    0    0  0.24685883618E+02 -0.26562125156E+02  0.91537811057E+02  0.98458672528E+02  0.00000000000E+00 0. -1.
         -5    1    5    5    0  502  0.50932050293E+02 -0.10276510462E+03  0.42094218119E+03  0.43631313341E+03  0.47000000000E+01 0.  1.
         13    1    6    6    0    0 -0.40287434168E+02  0.23196331854E+02  0.11152614633E+03  0.12082726711E+03  0.00000000000E+00 0. -1.
        -14    1    6    6    0    0  0.77725993053E+01 -0.41216216746E+02  0.74083522040E+02  0.85132591060E+02  0.00000000000E+00 0.  1.
</event>
<event>
12    1  0.8462562E-002  0.1831219E+03  0.7818608E-02  0.1164966E+00
         21   -1    0    0  501  502  0.00000000000E+00  0.00000000000E+00  0.16846175459E+02  0.16846175459E+02  0.00000000000E+00 0. -1.
         21   -1    0    0  502  503 -0.00000000000E+00 -0.00000000000E+00 -0.19887409184E+04  0.19887409184E+04  0.00000000000E+00 0.  1.
         -6    2    1    2    0  503 -0.21036605755E+02  0.58782449604E+02 -0.10383121550E+04  0.10543366469E+04  0.17215027899E+03 0.  0.
        -24    2    3    3    0    0  0.35258693065E+02  0.49415353613E+02 -0.88750673207E+03  0.89302555382E+03  0.78367006451E+02 0.  0.
          6    2    1    2  501    0  0.21036605755E+02 -0.58782449604E+02 -0.93358258793E+03  0.95125044698E+03  0.17147317348E+03 0.  0.
         24    2    5    5    0    0  0.21540264906E+02 -0.65521380980E+02 -0.93649930108E+03  0.94251751596E+03  0.80940055520E+02 0.  0.
          5    1    5    5  501    0 -0.50365915156E+00  0.67389313757E+01  0.29167131467E+01  0.87329310204E+01  0.47000000000E+01 0. -1.
        -13    1    6    6    0    0  0.30122284835E+02 -0.58035686796E+02 -0.35901250084E+03  0.36491844122E+03  0.00000000000E+00 0.  1.
         14    1    6    6    0    0 -0.85820199285E+01 -0.74856941836E+01 -0.57748680024E+03  0.57759907473E+03  0.00000000000E+00 0. -1.
         -5    1    3    3    0  503 -0.56295298820E+02  0.93670959908E+01 -0.15080542294E+03  0.16131109306E+03  0.47000000000E+01 0.  1.
         13    1    4    4    0    0  0.19172407615E+02 -0.61176679403E+01 -0.55914011007E+02  0.59425446584E+02  0.00000000000E+00 0. -1.
        -14    1    4    4    0    0  0.16086285450E+02  0.55533021553E+02 -0.83159272106E+03  0.83360010723E+03  0.00000000000E+00 0.  1.
</event>
<event>
12    1  0.8462562E-002  0.3107579E+03  0.7818608E-02  0.1080061E+00
         21   -1    0    0  503  502  0.00000000000E+00  0.00000000000E+00  0.15428120662E+04  0.15428120662E+04  0.00000000000E+00 0.  1.
         21   -1    0    0  501  503 -0.00000000000E+00 -0.00000000000E+00 -0.68532383627E+02  0.68532383627E+02  0.00000000000E+00 0. -1.
          6    2    1    2  501    0  0.21541736313E+03 -0.14177559175E+03  0.49806804714E+03  0.58706239149E+03  0.17339409782E+03 0.  0.
         24    2    3    3    0    0  0.29276641850E+02 -0.14757362662E+02  0.16732327456E+03  0.18681722508E+03  0.76345896204E+02 0.  0.
         -6    2    1    2    0  502 -0.21541736313E+03  0.14177559175E+03  0.97621163542E+03  0.10242820583E+04  0.17221968275E+03 0.  0.
        -24    2    5    5    0    0 -0.17717936564E+03  0.90658211820E+02  0.89677749190E+03  0.92226733321E+03  0.82193217212E+02 0.  0.
          5    1    3    3  501    0  0.18614072128E+03 -0.12701822909E+03  0.33074477258E+03  0.40024516640E+03  0.47000000000E+01 0. -1.
        -11    1    4    4    0    0  0.38303498206E+02 -0.18136799458E+02  0.17124494077E+03  0.17641125590E+03  0.00000000000E+00 0.  1.
         12    1    4    4    0    0 -0.90268563551E+01  0.33794367961E+01 -0.39216662105E+01  0.10405969180E+02  0.00000000000E+00 0. -1.
         -5    1    5    5    0  502 -0.38237997488E+02  0.51117379935E+02  0.79434143523E+02  0.10201472512E+03  0.47000000000E+01 0.  1.
         13    1    6    6    0    0 -0.36579771771E+02  0.34318780771E+02  0.10800952412E+03  0.11908784874E+03  0.00000000000E+00 0. -1.
        -14    1    6    6    0    0 -0.14059959387E+03  0.56339431048E+02  0.78876796778E+03  0.80317948447E+03  0.00000000000E+00 0.  1.
</event>
<event>
12    1  0.8462562E-002  0.2315942E+03  0.7818608E-02  0.1126668E+00
         21   -1    0    0  503  502  0.00000000000E+00  0.00000000000E+00  0.24090554921E+03  0.24090554921E+03  0.00000000000E+00 0. -1.
         21   -1    0    0  501  503 -0.00000000000E+00 -0.00000000000E+00 -0.21648836836E+03  0.21648836836E+03  0.00000000000E+00 0.  1.
          6    2    1    2  501    0  0.14138322085E+03  0.51560019957E+02  0.14493282511E+02  0.23204730039E+03  0.17603477947E+03 0.  0.
         24    2    3    3    0    0  0.12101533225E+03  0.55987447164E+02 -0.51716411423E+02  0.16247527607E+03  0.77099437367E+02 0.  0.
         -6    2    1    2    0  502 -0.14138322085E+03 -0.51560019957E+02  0.99238983411E+01  0.22534661717E+03  0.16743644561E+03 0.  0.
        -24    2    5    5    0    0 -0.48741178964E+02 -0.32311597618E+02 -0.52926177971E+02  0.11165725189E+03  0.79034294560E+02 0.  0.
          5    1    3    3  501    0  0.20367888598E+02 -0.44274272065E+01  0.66209693934E+02  0.69572024323E+02  0.47000000000E+01 0. -1.
        -13    1    4    4    0    0  0.89019770630E+02  0.74778641786E+02 -0.45531020177E+02  0.12485767349E+03  0.00000000000E+00 0.  1.
         14    1    4    4    0    0  0.31995561622E+02 -0.18791194623E+02 -0.61853912454E+01  0.37617602578E+02  0.00000000000E+00 0. -1.
         -5    1    5    5    0  502 -0.92642041886E+02 -0.19248422340E+02  0.62850076312E+02  0.11368936529E+03  0.47000000000E+01 0.  1.
         11    1    6    6    0    0 -0.56182372927E+02 -0.78537362510E-01 -0.93630628039E+01  0.56957283476E+02  0.00000000000E+00 0. -1.
        -12    1    6    6    0    0  0.74411939630E+01 -0.32233060255E+02 -0.43563115167E+02  0.54699968410E+02  0.00000000000E+00 0.  1.
</event>
<event>
12    1  0.8462562E-002  0.1883318E+03  0.7818608E-02  0.1160014E+00
         21   -1    0    0  503  502  0.00000000000E+00  0.00000000000E+00  0.79392569116E+02  0.79392569116E+02  0.00000000000E+00 0.  1.
         21   -1    0    0  501  503 -0.00000000000E+00 -0.00000000000E+00 -0.52709665879E+03  0.52709665879E+03  0.00000000000E+00 0. -1.
          6    2    1    2  501    0 -0.18573569876E+02  0.72755237304E+02 -0.34245902656E+03  0.39074545022E+03  0.17252686729E+03 0.  0.
         24    2    3    3    0    0  0.34995296648E+02 -0.15072960323E+02 -0.16141032313E+03  0.18245685530E+03  0.76061466663E+02 0.  0.
         -6    2    1    2    0  502  0.18573569876E+02 -0.72755237304E+02 -0.10524506311E+03  0.21574377769E+03  0.17271523457E+03 0.  0.
        -24    2    5    5    0    0  0.33496669827E+02 -0.11398402439E+03 -0.10122183980E+03  0.17146299041E+03  0.70988108319E+02 0.  0.
          5    1    3    3  501    0 -0.53568866524E+02  0.87828197626E+02 -0.18104870343E+03  0.20828859492E+03  0.47000000000E+01 0. -1.
        -13    1    4    4    0    0  0.52277492219E+02 -0.28921232291E+02 -0.92868898067E+02  0.11042647372E+03  0.00000000000E+00 0.  1.
         14    1    4    4    0    0 -0.17282195572E+02  0.13848271968E+02 -0.68541425064E+02  0.72030381576E+02  0.00000000000E+00 0. -1.
         -5    1    5    5    0  502 -0.14923099950E+02  0.41228787086E+02 -0.40232233166E+01  0.44280787285E+02  0.47000000000E+01 0.  1.
         13    1    6    6    0    0 -0.20600947706E+02 -0.18914248258E+02 -0.29570463850E+02  0.40700861979E+02  0.00000000000E+00 0. -1.
        -14    1    6    6    0    0  0.54097617533E+02 -0.95069776132E+02 -0.71651375948E+02  0.13076212843E+03  0.00000000000E+00 0.  1.
</event>
<event>
12    1  0.8462562E-002  0.1979628E+03  0.7818608E-02  0.1152981E+00
         21   -1    0    0  501  502  0.00000000000E+00  0.00000000000E+00  0.27611706273E+03  0.27611706273E+03  0.00000000000E+00 0.  1.
         21   -1    0    0  502  503 -0.00000000000E+00 -0.00000000000E+00 -0.19222878227E+03  0.19222878227E+03  0.00000000000E+00 0.  1.
         -6    2    1    2    0  503 -0.30490655901E+02  0.76813263656E+02 -0.83030357352E+02  0.21467023332E+03  0.17988694022E+03 0.  0.
        -24    2    3    3    0    0 -0.66161605783E+02  0.10584197073E+03 -0.41256139725E+02  0.15236246689E+03  0.77021889123E+02 0.  0.
          6    2    1    2  501    0  0.30490655901E+02 -0.76813263656E+02  0.16691863781E+03  0.25367561168E+03  0.17221941452E+03 0.  0.
         24    2    5    5    0    0  0.17147113770E+02 -0.10429665553E+03  0.17706055894E+03  0.22114354274E+03  0.79888729464E+02 0.  0.
          5    1    5    5  501    0  0.13343542131E+02  0.27483391871E+02 -0.10141921129E+02  0.32532068941E+02  0.47000000000E+01 0. -1.
        -13    1    6    6    0    0  0.23131320979E+02 -0.34226599632E+02  0.14089741676E+02  0.43646751919E+02  0.00000000000E+00 0.  1.
         14    1    6    6    0    0 -0.59842072092E+01 -0.70070055895E+02  0.16297081727E+03  0.17749679082E+03  0.00000000000E+00 0. -1.
         -5    1    3    3    0  503  0.35670949882E+02 -0.29028707069E+02 -0.41774217627E+02  0.62307766433E+02  0.47000000000E+01 0.  1.
         13    1    4    4    0    0  0.65058970845E+00  0.39417424175E+02 -0.42730116548E+02  0.58137934739E+02  0.00000000000E+00 0. -1.
        -14    1    4    4    0    0 -0.66812195492E+02  0.66424546551E+02  0.14739768225E+01  0.94224532148E+02  0.00000000000E+00 0.  1.
</event>
<event>
12    1  0.8462562E-002  0.1803377E+03  0.7818608E-02  0.1167707E+00
         21   -1    0    0  503  502  0.00000000000E+00  0.00000000000E+00  0.48332557657E+03  0.48332557657E+03  0.00000000000E+00 0. -1.
         21   -1    0    0  501  503 -0.00000000000E+00 -0.00000000000E+00 -0.11630110635E+03  0.11630110635E+03  0.00000000000E+00 0. -1.
          6    2    1    2  501    0  0.11122179032E+02  0.52030998248E+02 -0.12104369210E+02  0.17979295003E+03  0.17131275925E+03 0.  0.
         24    2    3    3    0    0  0.71895461943E+02  0.32755604751E+02  0.15523092294E+02  0.11014885955E+03  0.75165934936E+02 0.  0.
         -6    2    1    2    0  502 -0.11122179032E+02 -0.52030998248E+02  0.37912883943E+03  0.41983373288E+03  0.17231006567E+03 0.  0.
        -24    2    5    5    0    0 -0.25392795317E+01 -0.10085464786E+03  0.24620505977E+03  0.27788925034E+03  0.80171042529E+02 0.  0.
          5    1    3    3  501    0 -0.60773282911E+02  0.19275393497E+02 -0.27627461503E+02  0.69644090484E+02  0.47000000000E+01 0. -1.
        -11    1    4    4    0    0  0.25049479392E+02 -0.97731830191E+01 -0.23585261506E+02  0.35766689593E+02  0.00000000000E+00 0.  1.
         12    1    4    4    0    0  0.46845982551E+02  0.42528787770E+02  0.39108353799E+02  0.74382169955E+02  0.00000000000E+00 0. -1.
         -5    1    5    5    0  502 -0.85828995005E+01  0.48823649616E+02  0.13292377966E+03  0.14194448254E+03  0.47000000000E+01 0.  1.
         13    1    6    6    0    0  0.18447451924E+02 -0.37648854673E+02  0.17678583517E+03  0.18168922989E+03  0.00000000000E+00 0. -1.
        -14    1    6    6    0    0 -0.20986731455E+02 -0.63205793192E+02  0.69419224599E+02  0.96200020448E+02  0.00000000000E+00 0.  1.
</event>
<event>
12    1  0.8462562E-002  0.1775221E+03  0.7818608E-02  0.1170966E+00
         21   -1    0    0  501  502  0.00000000000E+00  0.00000000000E+00  0.20348573860E+03  0.20348573860E+03  0.00000000000E+00 0. -1.
         21   -1    0    0  502  503 -0.00000000000E+00 -0.00000000000E+00 -0.44093646790E+03  0.44093646790E+03  0.00000000000E+00 0. -1.
         -6    2    1    2    0  503 -0.33816767991E+02  0.61883984406E+01 -0.37977431962E+03  0.41921668497E+03  0.17416149126E+03 0.  0.
        -24    2    3    3    0    0 -0.77114553879E+01  0.44384560770E+02 -0.35214412131E+03  0.36512461511E+03  0.85329049003E+02 0.  0.
          6    2    1    2  501    0  0.33816767991E+02 -0.61883984406E+01  0.14232359032E+03  0.22520552154E+03  0.17111298167E+03 0.  0.
         24    2    5    5    0    0  0.75847608193E+02 -0.33483055457E+02  0.45610183174E+02  0.11617725478E+03  0.67400972165E+02 0.  0.
          5    1    5    5  501    0 -0.42030840202E+02  0.27294657017E+02  0.96713407142E+02  0.10902826675E+03  0.47000000000E+01 0. -1.
        -13    1    6    6    0    0  0.13319435081E+02  0.12213927384E+02  0.33120400482E+02  0.37729939055E+02  0.00000000000E+00 0.  1.
         14    1    6    6    0    0  0.62528173111E+02 -0.45696982841E+02  0.12489782692E+02  0.78447315729E+02  0.00000000000E+00 0. -1.
         -5    1    3    3    0  503 -0.26105312603E+02 -0.38196162329E+02 -0.27630198308E+02  0.54092069856E+02  0.47000000000E+01 0.  1.
         13    1    4    4    0    0  0.29057538450E+02 -0.10004698093E+02 -0.10438927260E+03  0.10881890809E+03  0.00000000000E+00 0. -1.
        -14    1    4    4    0    0 -0.36768993838E+02  0.54389258863E+02 -0.24775484872E+03  0.25630570702E+03  0.00000000000E+00 0.  1.
</event>
<event>
12    1  0.8462562E-002  0.1764304E+03  0.7818608E-02  0.1171885E+00
         21   -1    0    0  503  502  0.00000000000E+00  0.00000000000E+00  0.56530774250E+02  0.56530774250E+02  0.00000000000E+00 0. -1.
         21   -1    0    0  501  503 -0.00000000000E+00 -0.00000000000E+00 -0.54940649335E+03  0.54940649335E+03  0.00000000000E+00 0. -1.
          6    2    1    2  501    0 -0.15919796909E+02  0.37561718878E+02 -0.21312685382E+03  0.27520005940E+03  0.16925629742E+03 0.  0.
         24    2    3    3    0    0  0.35225359689E+02  0.21719724942E+02 -0.20134573791E+03  0.22017569655E+03  0.78896506634E+02 0.  0.
         -6    2    1    2    0  502  0.15919796909E+02 -0.37561718878E+02 -0.27974886528E+03  0.33073720820E+03  0.17164891670E+03 0.  0.
        -24    2    5    5    0    0  0.70106514408E+02 -0.34411308444E+01 -0.13126713888E+03  0.16896784164E+03  0.79951891886E+02 0.  0.
          5    1    3    3  501    0 -0.51145156599E+02  0.15841993937E+02 -0.11781115912E+02  0.55024362854E+02  0.47000000000E+01 0. -1.
        -11    1    4    4    0    0  0.45983906164E+02 -0.11373692710E+02 -0.71651570104E+02  0.85894283921E+02  0.00000000000E+00 0.  1.
         12    1    4    4    0    0 -0.10758546475E+02  0.33093417652E+02 -0.12969416781E+03  0.13428141263E+03  0.00000000000E+00 0. -1.
         -5    1    5    5    0  502 -0.54186717498E+02 -0.34120588034E+02 -0.14848172640E+03  0.16176936655E+03  0.47000000000E+01 0.  1.
         11    1    6    6    0    0  0.32164373043E+02 -0.36655453167E+02 -0.95223315569E+02  0.10698433983E+03  0.00000000000E+00 0. -1.
        -12    1    6    6    0    0  0.37942141365E+02  0.33214322323E+02 -0.36043823312E+02  0.61983501818E+02  0.00000000000E+00 0.  1.
</event>
<event>
12    1  0.8462562E-002  0.2564539E+03  0.7818608E-02  0.1109495E+00
         21   -1    0    0  503  502  0.00000000000E+00  0.00000000000E+00  0.14210171185E+04  0.14210171185E+04  0.00000000000E+00 0. -1.
         21   -1    0    0  501  503 -0.00000000000E+00 -0.00000000000E+00 -0.46051185570E+02  0.46051185570E+02  0.00000000000E+00 0.  1.
          6    2    1    2  501    0  0.18412942493E+03  0.49387488654E+02  0.68063465508E+03  0.72734595702E+03  0.17153961156E+03 0.  0.
         24    2    3    3    0    0  0.75290929928E+02  0.34341142767E+02  0.50501646947E+03  0.52013580371E+03  0.93013878768E+02 0.  0.
         -6    2    1    2    0  502 -0.18412942493E+03 -0.49387488654E+02  0.69433127785E+03  0.73972234705E+03  0.16955960062E+03 0.  0.
        -24    2    5    5    0    0 -0.32161748367E+02 -0.54357689592E+02  0.25535164330E+03  0.27513211128E+03  0.80647879377E+02 0.  0.
          5    1    3    3  501    0  0.10883849501E+03  0.15046345887E+02  0.17561818560E+03  0.20721015331E+03  0.47000000000E+01 0. -1.
        -11    1    4    4    0    0  0.80914128048E+01 -0.28363318833E+02  0.17889422905E+03  0.18130938752E+03  0.00000000000E+00 0.  1.
         12    1    4    4    0    0  0.67199517123E+02  0.62704461600E+02  0.32612224042E+03  0.33882641618E+03  0.00000000000E+00 0. -1.
         -5    1    5    5    0  502 -0.15196767657E+03  0.49702009381E+01  0.43897963455E+03  0.46459023577E+03  0.47000000000E+01 0.  1.
         11    1    6    6    0    0 -0.26493553686E+02 -0.29965689471E+02  0.24465208654E+03  0.24790017019E+03  0.00000000000E+00 0. -1.
        -12    1    6    6    0    0 -0.56681946815E+01 -0.24392000121E+02  0.10699556759E+02  0.27231941093E+02  0.00000000000E+00 0.  1.
</event>
<event>
12    1  0.8462562E-002  0.2371496E+03  0.7818608E-02  0.1124172E+00
         21   -1    0    0  501  502  0.00000000000E+00  0.00000000000E+00  0.12279370465E+04  0.12279370465E+04  0.00000000000E+00 0.  1.
         21   -1    0    0  502  503 -0.00000000000E+00 -0.00000000000E+00 -0.67457076648E+02  0.67457076648E+02  0.00000000000E+00 0. -1.
         -6    2    1    2    0  503  0.15770127881E+03  0.41398750252E+02  0.20265866882E+03  0.31194626923E+03  0.17221030450E+03 0.  0.
        -24    2    3    3    0    0  0.37002354647E+02 -0.32443225935E+02  0.95885257779E+02  0.13462306418E+03  0.80670004293E+02 0.  0.
          6    2    1    2  501    0 -0.15770127881E+03 -0.41398750252E+02  0.95782130099E+03  0.98344785388E+03  0.15219883971E+03 0.  0.
         24    2    5    5    0    0 -0.14120088644E+03 -0.66094248044E+02  0.60857918213E+03  0.63291357861E+03  0.76842937872E+02 0.  0.
          5    1    5    5  501    0 -0.16500392374E+02  0.24695497792E+02  0.34924211885E+03  0.35053427527E+03  0.47000000000E+01 0. -1.
        -11    1    6    6    0    0 -0.63256918090E+02 -0.22493871318E+02  0.40610680526E+03  0.41161893689E+03  0.00000000000E+00 0.  1.
         12    1    6    6    0    0 -0.77943968345E+02 -0.43600376726E+02  0.20247237688E+03  0.22129464171E+03  0.00000000000E+00 0. -1.
         -5    1    3    3    0  503  0.12069892416E+03  0.73841976188E+02  0.10677341104E+03  0.17732320505E+03  0.47000000000E+01 0.  1.
         13    1    4    4    0    0  0.45747118977E+02 -0.36620757665E+02  0.10568301977E+03  0.12084196065E+03  0.00000000000E+00 0. -1.
        -14    1    4    4    0    0 -0.87447643299E+01  0.41775317295E+01 -0.97977619909E+01  0.13781103532E+02  0.00000000000E+00 0.  1.
</event>
<event>
12    1  0.8462562E-002  0.1981987E+03  0.7818608E-02  0.1154351E+00
         21   -1    0    0  503  502  0.00000000000E+00  0.00000000000E+00  0.17000529782E+04  0.17000529782E+04  0.00000000000E+00 0.  1.
         21   -1    0    0  501  503 -0.00000000000E+00 -0.00000000000E+00 -0.35653317676E+02  0.35653317676E+02  0.00000000000E+00 0.  1.
          6    2    1    2  501    0  0.33807316651E+02 -0.85944186072E+02  0.30415773752E+03  0.36303532661E+03  0.17536642008E+03 0.  0.
         24    2    3    3    0    0  0.75384927297E+02 -0.96064969964E+01  0.17925908222E+03  0.21079241355E+03  0.80774073824E+02 0.  0.
         -6    2    1    2    0  502 -0.33807316651E+02  0.85944186072E+02  0.13602419230E+04  0.13726709693E+04  0.15949345757E+03 0.  0.
        -24    2    5    5    0    0 -0.61934448573E+02  0.18324067648E+02  0.99826693238E+03  0.10033315592E+04  0.77237957700E+02 0.  0.
          5    1    3    3  501    0 -0.41577610646E+02 -0.76337689076E+02  0.12489865531E+03  0.15224291306E+03  0.47000000000E+01 0. -1.
        -13    1    4    4    0    0  0.60892968015E+02 -0.36139797542E+02  0.79073500227E+02  0.10614450979E+03  0.00000000000E+00 0.  1.
         14    1    4    4    0    0  0.14491959282E+02  0.26533300545E+02  0.10018558199E+03  0.10464790376E+03  0.00000000000E+00 0. -1.
         -5    1    5    5    0  502  0.28127131922E+02  0.67620118424E+02  0.36197499062E+03  0.36933941003E+03  0.47000000000E+01 0.  1.
         13    1    6    6    0    0  0.12581043163E+01  0.22008986772E+02  0.82979695035E+02  0.85858069588E+02  0.00000000000E+00 0. -1.
        -14    1    6    6    0    0 -0.63192552889E+02 -0.36849191234E+01  0.91528723735E+03  0.91747348966E+03  0.00000000000E+00 0.  1.
</event>
<event>
12    1  0.8462562E-002  0.1914646E+03  0.7818608E-02  0.1157457E+00
         21   -1    0    0  501  502  0.00000000000E+00  0.00000000000E+00  0.13936411920E+03  0.13936411920E+03  0.00000000000E+00 0.  1.
         21   -1    0    0  502  503 -0.00000000000E+00 -0.00000000000E+00 -0.33698708803E+03  0.33698708803E+03  0.00000000000E+00 0.  1.
         -6    2    1    2    0  503  0.31668725848E+02  0.75818105942E+02 -0.21207792286E+03  0.28571969400E+03  0.17293757484E+03 0.  0.
        -24    2    3    3    0    0 -0.78223920024E+01 -0.10428701442E+02 -0.15329289789E+03  0.17402444194E+03  0.81337852312E+02 0.  0.
          6    2    1    2  501    0 -0.31668725848E+02 -0.75818105942E+02  0.14454954017E+02  0.19063151323E+03  0.17140634397E+03 0.  0.
         24    2    5    5    0    0 -0.46938436062E+02 -0.10709517814E+03 -0.17045060545E+02  0.14345355002E+03  0.81337524935E+02 0.  0.
          5    1    5    5  501    0  0.15269710214E+02  0.31277072198E+02  0.31500014562E+02  0.47177963211E+02  0.47000000000E+01 0. -1.
        -11    1    6    6    0    0 -0.45809681075E+02 -0.18791840018E+02 -0.23697258113E+02  0.54892806209E+02  0.00000000000E+00 0.  1.
         12    1    6    6    0    0 -0.11287549869E+01 -0.88303338121E+02  0.66521975677E+01  0.88560743807E+02  0.00000000000E+00 0. -1.
         -5    1    3    3    0  503  0.39491117850E+02  0.86246807384E+02 -0.58785024965E+02  0.11169525206E+03  0.47000000000E+01 0.  1.
         13    1    4    4    0    0 -0.14542828546E+02  0.25896262430E+02 -0.12214500860E+03  0.12570407072E+03  0.00000000000E+00 0. -1.
        -14    1    4    4    0    0  0.67204365439E+01 -0.36324963872E+02 -0.31147889293E+02  0.48320371222E+02  0.00000000000E+00 0.  1.
</event>
<event>
12    1  0.8462562E-002  0.2172771E+03  0.7818608E-02  0.1136314E+00
         21   -1    0    0  501  502  0.00000000000E+00  0.00000000000E+00  0.82094963475E+03  0.82094963475E+03  0.00000000000E+00 0.  1.
         21   -1    0    0  502  503 -0.00000000000E+00 -0.00000000000E+00 -0.57641653428E+02  0.57641653428E+02  0.00000000000E+00 0.  1.
         -6    2    1    2    0  503  0.12111151370E+03 -0.56095482554E+02  0.33608023500E+03  0.40019900342E+03  0.17144858142E+03 0.  0.
        -24    2    3    3    0    0  0.36062956355E+02  0.41400253792E+02  0.13871011468E+03  0.16415720605E+03  0.68502368927E+02 0.  0.
          6    2    1    2  501    0 -0.12111151370E+03  0.56095482554E+02  0.42722774633E+03  0.47839228476E+03  0.16888140506E+03 0.  0.
         24    2    5    5    0    0 -0.62354203498E+02 -0.19596666754E+02  0.31479648519E+03  0.33059309177E+03  0.76960309219E+02 0.  0.
          5    1    5    5  501    0 -0.58757310198E+02  0.75692149309E+02  0.11243126114E+03  0.14779919300E+03  0.47000000000E+01 0. -1.
        -11    1    6    6    0    0 -0.12642120040E+02  0.26867666053E+02  0.13789747504E+03  0.14105817346E+03  0.00000000000E+00 0.  1.
         12    1    6    6    0    0 -0.49712083458E+02 -0.46464332807E+02  0.17689901015E+03  0.18953491831E+03  0.00000000000E+00 0. -1.
         -5    1    3    3    0  503  0.85048557341E+02 -0.97495736346E+02  0.19737012031E+03  0.23604179736E+03  0.47000000000E+01 0.  1.
         11    1    4    4    0    0 -0.66914292748E+01 -0.11242091977E+02  0.45870415175E+01  0.13863650589E+02  0.00000000000E+00 0. -1.
        -12    1    4    4    0    0  0.42754385630E+02  0.52642345769E+02  0.13412307317E+03  0.15029355547E+03  0.00000000000E+00 0.  1.
</event>
<event>
12    1  0.8462562E-002  0.2896691E+03  0.7818608E-02  0.1090640E+00
         21   -1    0    0  501  502  0.00000000000E+00  0.00000000000E+00  0.25943628802E+03  0.25943628802E+03  0.00000000000E+00 0.  1.
         21   -1    0    0  502  503 -0.00000000000E+00 -0.00000000000E+00 -0.63094565583E+03  0.63094565583E+03  0.00000000000E+00 0. -1.
         -6    2    1    2    0  503 -0.15080930391E+03 -0.17605541445E+03 -0.49721509658E+03  0.57543987311E+03  0.17369294804E+03 0.  0.
        -24    2    3    3    0    0 -0.12626685041E+03 -0.77380315917E+02 -0.40303375459E+03  0.43676283005E+03  0.79965815007E+02 0.  0.
          6    2    1    2  501    0  0.15080930391E+03  0.17605541445E+03  0.12570572877E+03  0.31494207074E+03  0.17218485001E+03 0.  0.
         24    2    5    5    0    0  0.15399080454E+03  0.16264988310E+03  0.15425346690E+03  0.28289689061E+03  0.77899719579E+02 0.  0.
          5    1    5    5  501    0 -0.31815006310E+01  0.13405531352E+02 -0.28547738132E+02  0.32045180130E+02  0.47000000000E+01 0. -1.
        -13    1    6    6    0    0  0.72760225743E+02  0.25039298158E+02  0.57894909372E+02  0.96295573281E+02  0.00000000000E+00 0.  1.
         14    1    6    6    0    0  0.81230578794E+02  0.13761058494E+03  0.96358557530E+02  0.18660131733E+03  0.00000000000E+00 0. -1.
         -5    1    3    3    0  503 -0.24542453499E+02 -0.98675098531E+02 -0.94181341994E+02  0.13867704307E+03  0.47000000000E+01 0.  1.
         13    1    4    4    0    0 -0.62142940554E+02 -0.76668187794E+02 -0.29566566289E+03  0.31170168478E+03  0.00000000000E+00 0. -1.
        -14    1    4    4    0    0 -0.64123909854E+02 -0.71212812363E+00 -0.10736809170E+03  0.12506114527E+03  0.00000000000E+00 0.  1.
</event>
<event>
12    1  0.8462562E-002  0.2113880E+03  0.7818608E-02  0.1140975E+00
         21   -1    0    0  503  502  0.00000000000E+00  0.00000000000E+00  0.26032819975E+03  0.26032819975E+03  0.00000000000E+00 0.  1.
         21   -1    0    0  501  503 -0.00000000000E+00 -0.00000000000E+00 -0.19670349310E+03  0.19670349310E+03  0.00000000000E+00 0.  1.
          6    2    1    2  501    0 -0.79518981094E+02  0.87512794455E+02 -0.53202764523E+02  0.21550829225E+03  0.17213811992E+03 0.  0.
         24    2    3    3    0    0 -0.10554244278E+03  0.34248237909E+02 -0.68917614069E+02  0.15399910564E+03  0.81571673887E+02 0.  0.
         -6    2    1    2    0  502  0.79518981094E+02 -0.87512794455E+02  0.11682747117E+03  0.24152340060E+03  0.17522310770E+03 0.  0.
        -24    2    5    5    0    0 -0.90925863693E+01 -0.51418336390E+02  0.27151077761E+01  0.92531651602E+02  0.76342742248E+02 0.  0.
          5    1    3    3  501    0  0.26023461682E+02  0.53264556545E+02  0.15714849546E+02  0.61509186616E+02  0.47000000000E+01 0. -1.
        -13    1    4    4    0    0 -0.26070945937E+02  0.11403936842E+02  0.18285329151E+02  0.33824506792E+02  0.00000000000E+00 0.  1.
         14    1    4    4    0    0 -0.79471496839E+02  0.22844301067E+02 -0.87202943220E+02  0.12017459884E+03  0.00000000000E+00 0. -1.
         -5    1    5    5    0  502  0.88611567463E+02 -0.36094458065E+02  0.11411236339E+03  0.14899174900E+03  0.47000000000E+01 0.  1.
         13    1    6    6    0    0 -0.11430590372E+02 -0.69728589783E+02  0.12316931856E+02  0.71724761692E+02  0.00000000000E+00 0. -1.
        -14    1    6    6    0    0  0.23380040025E+01  0.18310253394E+02 -0.96018240798E+01  0.20806889910E+02  0.00000000000E+00 0.  1.
</event>
<event>
12    1  0.8462562E-002  0.1870935E+03  0.7818608E-02  0.1161115E+00
         21   -1    0    0  503  502  0.00000000000E+00  0.00000000000E+00  0.33104789495E+03  0.33104789495E+03  0.00000000000E+00 0. -1.
         21   -1    0    0  501  503 -0.00000000000E+00 -0.00000000000E+00 -0.10649831068E+03  0.10649831068E+03  0.00000000000E+00 0. -1.
          6    2    1    2  501    0 -0.26665905931E+02 -0.69069484275E+02  0.13093335443E+03  0.22833826987E+03  0.17179394048E+03 0.  0.
         24    2    3    3    0    0 -0.10119798865E+02  0.28652882035E+02  0.77679480120E+02  0.11572610505E+03  0.80218649827E+02 0.  0.
         -6    2    1    2    0  502  0.26665905931E+02  0.69069484275E+02  0.93616229841E+02  0.20920793576E+03  0.17182053922E+03 0.  0.
        -24    2    5    5    0    0  0.39793903983E+02  0.73426451765E+02  0.12777828777E+03  0.17205334385E+03  0.79372940552E+02 0.  0.
          5    1    3    3  501    0 -0.16546107066E+02 -0.97722366309E+02  0.53253874307E+02  0.11261216482E+03  0.47000000000E+01 0. -1.
        -11    1    4    4    0    0 -0.25594044928E+02 -0.20426948988E+02  0.19754829800E+02  0.38243544307E+02  0.00000000000E+00 0.  1.
         12    1    4    4    0    0  0.15474246063E+02  0.49079831023E+02  0.57924650319E+02  0.77482560742E+02  0.00000000000E+00 0. -1.
         -5    1    5    5    0  502 -0.13127998052E+02 -0.43569674898E+01 -0.34162057924E+02  0.37154591912E+02  0.47000000000E+01 0.  1.
         13    1    6    6    0    0 -0.21144648979E+02  0.15530005396E+02  0.54721777722E+02  0.60685667213E+02  0.00000000000E+00 0. -1.
        -14    1    6    6    0    0  0.60938552962E+02  0.57896446369E+02  0.73056510043E+02  0.11136767663E+03  0.00000000000E+00 0.  1.
</event>
<event>
12    1  0.8462562E-002  0.2490692E+03  0.7818608E-02  0.1114070E+00
         21   -1    0    0  503  502  0.00000000000E+00  0.00000000000E+00  0.19894832961E+04  0.19894832961E+04  0.00000000000E+00 0.  1.
         21   -1    0    0  501  503 -0.00000000000E+00 -0.00000000000E+00 -0.36412106231E+02  0.36412106231E+02  0.00000000000E+00 0. -1.
          6    2    1    2  501    0 -0.17021065687E+03  0.56279755822E+02  0.58573613225E+03  0.63606064882E+03  0.17131040169E+03 0.  0.
         24    2    3    3    0    0 -0.10702330010E+03 -0.97343593256E-01  0.49138966694E+03  0.50919708072E+03  0.79773842855E+02 0.  0.
         -6    2    1    2    0  502  0.17021065687E+03 -0.56279755822E+02  0.13673350576E+04  0.13898347535E+04  0.17290576523E+03 0.  0.
        -24    2    5    5    0    0  0.93449663276E+02 -0.44819726442E+02  0.56448954014E+03  0.58323287071E+03  0.10378098621E+03 0.  0.
          5    1    3    3  501    0 -0.63187356763E+02  0.56377099416E+02  0.94346465318E+02  0.12686356810E+03  0.47000000000E+01 0. -1.
        -11    1    4    4    0    0  0.44735291084E+01  0.18708414342E+02  0.98482551179E+02  0.10034356041E+03  0.00000000000E+00 0.  1.
         12    1    4    4    0    0 -0.11149682921E+03 -0.18805757935E+02  0.39290711576E+03  0.40885352031E+03  0.00000000000E+00 0. -1.
         -5    1    5    5    0  502  0.76760993592E+02 -0.11460029380E+02  0.80284551749E+03  0.80660188282E+03  0.47000000000E+01 0.  1.
         13    1    6    6    0    0  0.11184576197E+03 -0.28097460582E+02  0.51614083759E+03  0.52886700218E+03  0.00000000000E+00 0. -1.
        -14    1    6    6    0    0 -0.18396098696E+02 -0.16722265860E+02  0.48348702554E+02  0.54365868533E+02  0.00000000000E+00 0.  1.
</event>
<event>
12    1  0.8462562E-002  0.1910671E+03  0.7818608E-02  0.1157774E+00
         21   -1    0    0  501  502  0.00000000000E+00  0.00000000000E+00  0.88927722942E+02  0.88927722942E+02  0.00000000000E+00 0. -1.
         21   -1    0    0  502  503 -0.00000000000E+00 -0.00000000000E+00 -0.54274704697E+03  0.54274704697E+03  0.00000000000E+00 0. -1.
         -6    2    1    2    0  503  0.59831578849E+02  0.56597830570E+02 -0.38378085785E+03  0.42817532865E+03  0.17106499630E+03 0.  0.
        -24    2    3    3    0    0  0.96544108811E+02  0.56816605835E+02 -0.20814010778E+03  0.24867708130E+03  0.77259916184E+02 0.  0.
          6    2    1    2  501    0 -0.59831578849E+02 -0.56597830570E+02 -0.70038466179E+02  0.20349944126E+03  0.17240505676E+03 0.  0.
         24    2    5    5    0    0 -0.57100908667E+01 -0.36193325685E+01 -0.88879422869E+02  0.12531422296E+03  0.88081768608E+02 0.  0.
          5    1    5    5  501    0 -0.54121487982E+02 -0.52978498002E+02  0.18840956690E+02  0.78185218302E+02  0.47000000000E+01 0. -1.
        -13    1    6    6    0    0  0.52784399902E+01 -0.43010958462E+02 -0.64494766121E+02  0.77700574860E+02  0.00000000000E+00 0.  1.
         14    1    6    6    0    0 -0.10988530857E+02  0.39391625893E+02 -0.24384656748E+02  0.47613648102E+02  0.00000000000E+00 0. -1.
         -5    1    3    3    0  503 -0.36712529962E+02 -0.21877526540E+00 -0.17564075006E+03  0.17949824735E+03  0.47000000000E+01 0.  1.
         11    1    4    4    0    0  0.91932989617E+02  0.68473460129E+02 -0.20629805282E+03  0.23600672855E+03  0.00000000000E+00 0. -1.
        -12    1    4    4    0    0  0.46111191937E+01 -0.11656854293E+02 -0.18420549608E+01  0.12670352746E+02  0.00000000000E+00 0.  1.
</event>
<event>
12    1  0.8462562E-002  0.1799019E+03  0.7818608E-02  0.1167909E+00
         21   -1    0    0  501  502  0.00000000000E+00  0.00000000000E+00  0.33475327163E+03  0.33475327163E+03  0.00000000000E+00 0.  1.
         21   -1    0    0  502  503 -0.00000000000E+00 -0.00000000000E+00 -0.10842738222E+03  0.10842738222E+03  0.00000000000E+00 0.  1.
         -6    2    1    2    0  503 -0.77710006099E+01 -0.52310185609E+02  0.40147800394E+02  0.18428499639E+03  0.17190802788E+03 0.  0.
        -24    2    3    3    0    0  0.22443352798E+02  0.28729458823E+02  0.49976576467E+01  0.90807974315E+02  0.83018225277E+02 0.  0.
          6    2    1    2  501    0  0.77710006099E+01  0.52310185609E+02  0.18617808902E+03  0.25889565745E+03  0.17195329787E+03 0.  0.
         24    2    5    5    0    0 -0.46003538544E+02  0.76529760469E+02  0.10835769714E+03  0.16113885585E+03  0.79064597248E+02 0.  0.
          5    1    5    5  501    0  0.53774539154E+02 -0.24219574860E+02  0.77820391875E+02  0.97756801601E+02  0.47000000000E+01 0. -1.
        -11    1    6    6    0    0  0.21867331079E+02  0.24358938273E+02  0.39331222145E+02  0.51171115658E+02  0.00000000000E+00 0.  1.
         12    1    6    6    0    0 -0.67870869623E+02  0.52170822196E+02  0.69026474999E+02  0.10996774019E+03  0.00000000000E+00 0. -1.
         -5    1    3    3    0  503 -0.30214353408E+02 -0.81039644432E+02  0.35150142747E+02  0.93477022079E+02  0.47000000000E+01 0.  1.
         13    1    4    4    0    0 -0.31678969245E+02  0.13101376399E+02  0.34337293005E+01  0.34452774240E+02  0.00000000000E+00 0. -1.
        -14    1    4    4    0    0  0.54122322043E+02  0.15628082425E+02  0.15639283462E+01  0.56355200075E+02  0.00000000000E+00 0.  1.
</event>
<event>
12    1  0.8462562E-002  0.1814104E+03  0.7818608E-02  0.1167220E+00
         21   -1    0    0  501  502  0.00000000000E+00  0.00000000000E+00  0.61224796889E+02  0.61224796889E+02  0.00000000000E+00 0.  1.
         21   -1    0    0  502  503 -0.00000000000E+00 -0.00000000000E+00 -0.54906534702E+03  0.54906534702E+03  0.00000000000E+00 0.  1.
         -6    2    1    2    0  503 -0.51006170418E+01  0.44113292311E+02 -0.18214976709E+03  0.25482341288E+03  0.17258167703E+03 0.  0.
        -24    2    3    3    0    0 -0.12972686520E+02 -0.38436571766E+02 -0.12816818540E+03  0.15576509319E+03  0.78676679289E+02 0.  0.
          6    2    1    2  501    0  0.51006170418E+01 -0.44113292311E+02 -0.30569078304E+03  0.35546673103E+03  0.17589128228E+03 0.  0.
         24    2    5    5    0    0 -0.51056499496E+02 -0.55412878401E+02 -0.12260136543E+03  0.16356798892E+03  0.77756279235E+02 0.  0.
          5    1    5    5  501    0  0.56157116538E+02  0.11299586089E+02 -0.18308941761E+03  0.19189874211E+03  0.47000000000E+01 0. -1.
        -11    1    6    6    0    0  0.98461422809E-01 -0.37204992635E+02 -0.99490523508E+01  0.38512398190E+02  0.00000000000E+00 0.  1.
         12    1    6    6    0    0 -0.51154960919E+02 -0.18207885765E+02 -0.11265231308E+03  0.12505559073E+03  0.00000000000E+00 0. -1.
         -5    1    3    3    0  503  0.78720694783E+01  0.82549864077E+02 -0.53981581698E+02  0.99058319689E+02  0.47000000000E+01 0.  1.
         13    1    4    4    0    0 -0.24389819643E+02 -0.66547825871E+00 -0.10936769027E+03  0.11205622623E+03  0.00000000000E+00 0. -1.
        -14    1    4    4    0    0  0.11417133122E+02 -0.37771093507E+02 -0.18800495130E+02  0.43708866956E+02  0.00000000000E+00 0.  1.
</event>
<event>
12    1  0.8462562E-002  0.2579659E+03  0.7818608E-02  0.1108406E+00
         21   -1    0    0  503  502  0.00000000000E+00  0.00000000000E+00  0.33794556382E+03  0.33794556382E+03  0.00000000000E+00 0. -1.
         21   -1    0    0  501  503 -0.00000000000E+00 -0.00000000000E+00 -0.29189696662E+03  0.29189696662E+03  0.00000000000E+00 0.  1.
          6    2    1    2  501    0 -0.16779680268E+03 -0.92272571161E+02 -0.15677555781E+03  0.30186910558E+03  0.17284787241E+03 0.  0.
         24    2    3    3    0    0 -0.13038830181E+03 -0.41906086239E+02 -0.17598881052E+03  0.23608599361E+03  0.77506810258E+02 0.  0.
         -6    2    1    2    0  502  0.16779680268E+03  0.92272571161E+02  0.20282415502E+03  0.32797342487E+03  0.17250778296E+03 0.  0.
        -24    2    5    5    0    0  0.18617655452E+03  0.86196409102E+02  0.21174965626E+03  0.30614478324E+03  0.82432887737E+02 0.  0.
          5    1    3    3  501    0 -0.37408500871E+02 -0.50366484923E+02  0.19213252707E+02  0.65783111970E+02  0.47000000000E+01 0. -1.
        -13    1    4    4    0    0  0.44137364553E+01  0.70671527270E+01 -0.31177360622E+02  0.32271559189E+02  0.00000000000E+00 0.  1.
         14    1    4    4    0    0 -0.13480203827E+03 -0.48973238966E+02 -0.14481144990E+03  0.20381443442E+03  0.00000000000E+00 0. -1.
         -5    1    5    5    0  502 -0.18379751837E+02  0.60761620594E+01 -0.89255012474E+01  0.21828641632E+02  0.47000000000E+01 0.  1.
         13    1    6    6    0    0  0.11148186268E+03  0.38479459989E+02  0.17308075174E+03  0.20944168919E+03  0.00000000000E+00 0. -1.
        -14    1    6    6    0    0  0.74694691835E+02  0.47716949113E+02  0.38668904525E+02  0.96703094047E+02  0.00000000000E+00 0.  1.
</event>
<event>
12    1  0.8462562E-002  0.2196156E+03  0.7818608E-02  0.1134311E+00
         21   -1    0    0  501  502  0.00000000000E+00  0.00000000000E+00  0.62804748159E+03  0.62804748159E+03  0.00000000000E+00 0. -1.
         21   -1    0    0  502  503 -0.00000000000E+00 -0.00000000000E+00 -0.11935000876E+03  0.11935000876E+03  0.00000000000E+00 0.  1.
         -6    2    1    2    0  503  0.11364621888E+03  0.75148885321E+02  0.30235079101E+02  0.22094022341E+03  0.17128223574E+03 0.  0.
        -24    2    3    3    0    0  0.12267629103E+02 -0.70529088595E+01  0.39197900439E+02  0.90031187822E+02  0.79805395398E+02 0.  0.
          6    2    1    2  501    0 -0.11364621888E+03 -0.75148885321E+02  0.47846239373E+03  0.52645726694E+03  0.17224451710E+03 0.  0.
         24    2    5    5    0    0 -0.14245763524E+02 -0.53739965090E+02  0.12469441201E+03  0.15833681481E+03  0.80193047764E+02 0.  0.
          5    1    5    5  501    0 -0.99400455354E+02 -0.21408920231E+02  0.35376798172E+03  0.36812045214E+03  0.47000000000E+01 0. -1.
        -13    1    6    6    0    0  0.17868163776E+02  0.13488800389E+02  0.37209990304E+02  0.43425826315E+02  0.00000000000E+00 0.  1.
         14    1    6    6    0    0 -0.32113927301E+02 -0.67228765479E+02  0.87484421707E+02  0.11491098849E+03  0.00000000000E+00 0. -1.
         -5    1    3    3    0  503  0.10137858978E+03  0.82201794180E+02 -0.89628213389E+01  0.13090903558E+03  0.47000000000E+01 0.  1.
         13    1    4    4    0    0 -0.24427146341E+02 -0.88310396318E+01 -0.10679507798E+02  0.28084241599E+02  0.00000000000E+00 0. -1.
        -14    1    4    4    0    0  0.36694775444E+02  0.17781307723E+01  0.49877408238E+02  0.61946946224E+02  0.00000000000E+00 0.  1.
</event>
<event>
12    1  0.8462562E-002  0.2007245E+03  0.7818608E-02  0.1149252E+00
         21   -1    0    0  503  502  0.00000000000E+00  0.00000000000E+00  0.26353168552E+03  0.26353168552E+03  0.00000000000E+00 0.  1.
         21   -1    0    0  501  503 -0.00000000000E+00 -0.00000000000E+00 -0.16374565813E+03  0.16374565813E+03  0.00000000000E+00 0.  1.
          6    2    1    2  501    0  0.63075556324E+01  0.10093782121E+03 -0.63040366657E+01  0.20024119577E+03  0.17270948613E+03 0.  0.
         24    2    3    3    0    0 -0.20757407373E+02  0.74316163617E+02  0.56889315823E+02  0.12637161696E+03  0.82338503648E+02 0.  0.
         -6    2    1    2    0  502 -0.63075556324E+01 -0.10093782121E+03  0.10609006405E+03  0.22703614788E+03  0.17338420269E+03 0.  0.
        -24    2    5    5    0    0  0.62270228344E+02 -0.52850626300E+02  0.42397963391E+02  0.12170778296E+03  0.79651912060E+02 0.  0.
          5    1    3    3  501    0  0.27064963005E+02  0.26621657590E+02 -0.63193352488E+02  0.73869578813E+02  0.47000000000E+01 0. -1.
        -11    1    4    4    0    0  0.11841035938E+02  0.13821692006E+02 -0.17395472331E+02  0.25176412763E+02  0.00000000000E+00 0.  1.
         12    1    4    4    0    0 -0.32598443310E+02  0.60494471611E+02  0.74284788153E+02  0.10119520420E+03  0.00000000000E+00 0. -1.
         -5    1    5    5    0  502 -0.68577783976E+02 -0.48087194907E+02  0.63692100663E+02  0.10532836492E+03  0.47000000000E+01 0.  1.
         13    1    6    6    0    0  0.21548167521E+02 -0.29182776646E+02 -0.21619747714E+02  0.42229983039E+02  0.00000000000E+00 0. -1.
        -14    1    6    6    0    0  0.40722060823E+02 -0.23667849655E+02  0.64017711106E+02  0.79477799920E+02  0.00000000000E+00 0.  1.
</event>
<event>
12    1  0.8462562E-002  0.2041171E+03  0.7818608E-02  0.1150012E+00
         21   -1    0    0  503  502  0.00000000000E+00  0.00000000000E+00  0.88840678464E+03  0.88840678464E+03  0.00000000000E+00 0.  1.
         21   -1    0    0  501  503 -0.00000000000E+00 -0.00000000000E+00 -0.89645625851E+02  0.89645625851E+02  0.00000000000E+00 0.  1.
          6    2    1    2  501    0  0.99160142661E+02 -0.47735992097E+02  0.38478746806E+02  0.19084651615E+03  0.15109705469E+03 0.  0.
         24    2    3    3    0    0 -0.35745819153E+01 -0.28883881406E+02  0.21689801349E+01  0.80165375628E+02  0.74664092667E+02 0.  0.
         -6    2    1    2    0  502 -0.99160142661E+02  0.47735992097E+02  0.76028241198E+03  0.78720589434E+03  0.17190786859E+03 0.  0.
        -24    2    5    5    0    0 -0.17849401595E+02  0.22542659255E+02  0.15839016287E+03  0.17930581195E+03  0.78970614034E+02 0.  0.
          5    1    3    3  501    0  0.10273472458E+03 -0.18852110691E+02  0.36309766671E+02  0.11068114052E+03  0.47000000000E+01 0. -1.
        -13    1    4    4    0    0  0.16728422149E+02 -0.42068096661E+02  0.20600850633E+02  0.49738917470E+02  0.00000000000E+00 0.  1.
         14    1    4    4    0    0 -0.20303004064E+02  0.13184215256E+02 -0.18431870498E+02  0.30426458157E+02  0.00000000000E+00 0. -1.
         -5    1    5    5    0  502 -0.81310741066E+02  0.25193332842E+02  0.60189224911E+03  0.60790008239E+03  0.47000000000E+01 0.  1.
         11    1    6    6    0    0 -0.35943038409E+02  0.16990410387E+02  0.30725151675E+02  0.50245507268E+02  0.00000000000E+00 0. -1.
        -12    1    6    6    0    0  0.18093636814E+02  0.55522488678E+01  0.12766501120E+03  0.12906030468E+03  0.00000000000E+00 0.  1.
</event>
<event>
12    1  0.8462562E-002  0.1854718E+03  0.7818608E-02  0.1162865E+00
         21   -1    0    0  503  502  0.00000000000E+00  0.00000000000E+00  0.84491685327E+02  0.84491685327E+02  0.00000000000E+00 0. -1.
         21   -1    0    0  501  503 -0.00000000000E+00 -0.00000000000E+00 -0.60336317597E+03  0.60336317597E+03  0.00000000000E+00 0. -1.
          6    2    1    2  501    0  0.39471460594E+02  0.55304757977E+02 -0.45624775593E+03  0.49209607039E+03  0.17140570365E+03 0.  0.
         24    2    3    3    0    0 -0.20714552283E+02  0.69759259139E+02 -0.12541984895E+03  0.15549469965E+03  0.56151724770E+02 0.  0.
         -6    2    1    2    0  502 -0.39471460594E+02 -0.55304757977E+02 -0.62623734708E+02  0.19575879090E+03  0.17257798125E+03 0.  0.
        -24    2    5    5    0    0 -0.60818668139E+02 -0.92096427981E+02 -0.24671970108E+02  0.13855951916E+03  0.80058552323E+02 0.  0.
          5    1    3    3  501    0  0.60186012877E+02 -0.14454501163E+02 -0.33082790698E+03  0.33660137075E+03  0.47000000000E+01 0. -1.
        -13    1    4    4    0    0 -0.95146164712E+01 -0.55841320904E+01 -0.37884034943E+02  0.39457705982E+02  0.00000000000E+00 0.  1.
         14    1    4    4    0    0 -0.11199935812E+02  0.75343391230E+02 -0.87535814010E+02  0.11603699366E+03  0.00000000000E+00 0. -1.
         -5    1    5    5    0  502  0.21347207546E+02  0.36791670004E+02 -0.37951764601E+02  0.57199271744E+02  0.47000000000E+01 0.  1.
         13    1    6    6    0    0 -0.47181853865E+02 -0.26912599780E+02 -0.43237035970E+02  0.69425187364E+02  0.00000000000E+00 0. -1.
        -14    1    6    6    0    0 -0.13636814274E+02 -0.65183828201E+02  0.18565065862E+02  0.69134331797E+02  0.00000000000E+00 0.  1.
</event>
<event>
12    1  0.8462562E-002  0.1804951E+03  0.7818608E-02  0.1167737E+00
         21   -1    0    0  503  502  0.00000000000E+00  0.00000000000E+00  0.34736101712E+03  0.34736101712E+03  0.00000000000E+00 0.  1.
         21   -1    0    0  501  503 -0.00000000000E+00 -0.00000000000E+00 -0.17661151148E+03  0.17661151148E+03  0.00000000000E+00 0.  1.
          6    2    1    2  501    0  0.16251818490E+02 -0.51054448625E+02 -0.95197292170E+02  0.20255973355E+03  0.17057913967E+03 0.  0.
         24    2    3    3    0    0 -0.18570190592E+02  0.31029163356E+02 -0.60984981944E+02  0.10694140977E+03  0.80060203245E+02 0.  0.
         -6    2    1    2    0  502 -0.16251818490E+02  0.51054448625E+02  0.26594679781E+03  0.32141279506E+03  0.17235952898E+03 0.  0.
        -24    2    5    5    0    0  0.26569993637E+02  0.31307284936E+02  0.52743463093E+02  0.10300627042E+03  0.78372879207E+02 0.  0.
          5    1    3    3  501    0  0.34822009082E+02 -0.82083611980E+02 -0.34212310226E+02  0.95618323784E+02  0.47000000000E+01 0. -1.
        -13    1    4    4    0    0  0.17972232393E+02  0.34174713885E+02 -0.35244837099E+01  0.38772853799E+02  0.00000000000E+00 0.  1.
         14    1    4    4    0    0 -0.36542422985E+02 -0.31455505291E+01 -0.57460498234E+02  0.68168555970E+02  0.00000000000E+00 0. -1.
         -5    1    5    5    0  502 -0.42821812127E+02  0.19747163689E+02  0.21320333472E+03  0.21840652463E+03  0.47000000000E+01 0.  1.
         11    1    6    6    0    0 -0.14417024316E+02 -0.23809039678E+01 -0.12278089876E+02  0.19085879200E+02  0.00000000000E+00 0. -1.
        -12    1    6    6    0    0  0.40987017953E+02  0.33688188904E+02  0.65021552969E+02  0.83920391222E+02  0.00000000000E+00 0.  1.
</event>
<event>
12    1  0.8462562E-002  0.1865214E+03  0.7818608E-02  0.1161745E+00
         21   -1    0    0  503  502  0.00000000000E+00  0.00000000000E+00  0.65286360020E+02  0.65286360020E+02  0.00000000000E+00 0. -1.
         21   -1    0    0  501  503 -0.00000000000E+00 -0.00000000000E+00 -0.77116781230E+03  0.77116781230E+03  0.00000000000E+00 0. -1.
          6    2    1    2  501    0  0.51740932069E+02  0.46978946381E+02 -0.58637835338E+03  0.61532903605E+03  0.17293381345E+03 0.  0.
         24    2    3    3    0    0  0.66756819755E+02  0.32053610314E+02 -0.19965439425E+03  0.22799745574E+03  0.81468127276E+02 0.  0.
         -6    2    1    2    0  502 -0.51740932069E+02 -0.46978946381E+02 -0.11950309890E+03  0.22112513628E+03  0.17242734641E+03 0.  0.
        -24    2    5    5    0    0  0.10088056399E+02 -0.68696613805E+02 -0.54965475493E+02  0.12902912263E+03  0.93841980805E+02 0.  0.
          5    1    3    3  501    0 -0.15015887686E+02  0.14925336067E+02 -0.38672395913E+03  0.38733158031E+03  0.47000000000E+01 0. -1.
        -11    1    4    4    0    0  0.68968929460E+02  0.31542459569E+02 -0.20692262216E+03  0.22038287490E+03  0.00000000000E+00 0.  1.
         12    1    4    4    0    0 -0.22121097048E+01  0.51115074473E+00  0.72682279099E+01  0.76145808407E+01  0.00000000000E+00 0. -1.
         -5    1    5    5    0  502 -0.61828988468E+02  0.21717667424E+02 -0.64537623410E+02  0.92096013642E+02  0.47000000000E+01 0.  1.
         11    1    6    6    0    0  0.72535233466E+01 -0.21773350028E+02  0.26448988071E+02  0.35017728971E+02  0.00000000000E+00 0. -1.
        -12    1    6    6    0    0  0.28345330522E+01 -0.46923263778E+02 -0.81414463563E+02  0.94011393663E+02  0.00000000000E+00 0.  1.
</event>
<event>
12    1  0.8462562E-002  0.1914428E+03  0.7818608E-02  0.1157167E+00
         21   -1    0    0  503  502  0.00000000000E+00  0.00000000000E+00  0.70168559914E+03  0.70168559914E+03  0.00000000000E+00 0. -1.
         21   -1    0    0  501  503 -0.00000000000E+00 -0.00000000000E+00 -0.10005224449E+03  0.10005224449E+03  0.00000000000E+00 0. -1.
          6    2    1    2  501    0 -0.66484637646E+02  0.48870445099E+02  0.23676774367E+02  0.19289947420E+03  0.17274573817E+03 0.  0.
         24    2    3    3    0    0 -0.44432458091E+02  0.79164566414E+02  0.64661904726E+02  0.13716884241E+03  0.79955346894E+02 0.  0.
         -6    2    1    2    0  502  0.66484637646E+02 -0.48870445099E+02  0.57795658028E+03  0.60883836944E+03  0.17274786238E+03 0.  0.
        -24    2    5    5    0    0 -0.99252117954E+01  0.27301218820E+02  0.27696051845E+03  0.28905515112E+03  0.77471835091E+02 0.  0.
          5    1    3    3  501    0 -0.22052179555E+02 -0.30294121315E+02 -0.40985130359E+02  0.55730631792E+02  0.47000000000E+01 0. -1.
        -13    1    4    4    0    0  0.14682556511E+01  0.71902800785E+02  0.25206887635E+02  0.76207320644E+02  0.00000000000E+00 0.  1.
         14    1    4    4    0    0 -0.45900713742E+02  0.72617656287E+01  0.39455017091E+02  0.60961521763E+02  0.00000000000E+00 0. -1.
         -5    1    5    5    0  502  0.76409849441E+02 -0.76171663919E+02  0.30099606184E+03  0.31978321832E+03  0.47000000000E+01 0.  1.
         13    1    6    6    0    0  0.15752592758E+02  0.38312497406E+02  0.23513667930E+03  0.23875772153E+03  0.00000000000E+00 0. -1.
        -14    1    6    6    0    0 -0.25677804553E+02 -0.11011278585E+02  0.41823839144E+02  0.50297429592E+02  0.00000000000E+00 0.  1.
</event>
<event>
12    1  0.8462562E-002  0.2130397E+03  0.7818608E-02  0.1139640E+00
         21   -1    0    0  503  502  0.00000000000E+00  0.00000000000E+00  0.71408084969E+03  0.71408084969E+03  0.00000000000E+00 0. -1.
         21   -1    0    0  501  503 -0.00000000000E+00 -0.00000000000E+00 -0.90595022709E+02  0.90595022709E+02  0.00000000000E+00 0. -1.
          6    2    1    2  501    0  0.21741414210E+02 -0.11668849278E+03  0.90329829006E+02  0.23139879198E+03  0.17690966475E+03 0.  0.
         24    2    3    3    0    0  0.64495042058E+02 -0.13377103798E+02  0.51630492217E+02  0.11298914518E+03  0.75909695339E+02 0.  0.
         -6    2    1    2    0  502 -0.21741414210E+02  0.11668849278E+03  0.53315599797E+03  0.57327708042E+03  0.17407584358E+03 0.  0.
        -24    2    5    5    0    0 -0.37953849297E+00  0.74782935110E+02  0.51221443872E+03  0.52157558719E+03  0.63912678645E+02 0.  0.
          5    1    3    3  501    0 -0.42753627848E+02 -0.10331138898E+03  0.38699336789E+02  0.11840964680E+03  0.47000000000E+01 0. -1.
        -11    1    4    4    0    0 -0.73978773190E+00  0.38398012260E+01  0.45028920744E+02  0.45198396683E+02  0.00000000000E+00 0.  1.
         12    1    4    4    0    0  0.65234829790E+02 -0.17216905024E+02  0.66015714735E+01  0.67790748500E+02  0.00000000000E+00 0. -1.
         -5    1    5    5    0  502 -0.21361875717E+02  0.41905557666E+02  0.20941559255E+02  0.51701493223E+02  0.47000000000E+01 0.  1.
         13    1    6    6    0    0  0.60200592911E+01  0.91167525443E+01  0.27884657969E+03  0.27906051547E+03  0.00000000000E+00 0. -1.
        -14    1    6    6    0    0 -0.63995977841E+01  0.65666182566E+02  0.23336785903E+03  0.24251507172E+03  0.00000000000E+00 0.  1.
</event>
<event>
12    1  0.8462562E-002  0.2698541E+03  0.7818608E-02  0.1101408E+00
         21   -1    0    0  503  502  0.00000000000E+00  0.00000000000E+00  0.38650454711E+03  0.38650454711E+03  0.00000000000E+00 0. -1.
         21   -1    0    0  501  503 -0.00000000000E+00 -0.00000000000E+00 -0.78766241200E+03  0.78766241200E+03  0.00000000000E+00 0.  1.
          6    2    1    2  501    0  0.20702099993E+03 -0.11023877693E+02 -0.71277769232E+03  0.76215041639E+03  0.17274836683E+03 0.  0.
         24    2    3    3    0    0  0.16619222742E+03 -0.50791570644E+02 -0.38630861142E+03  0.43071021235E+03  0.77957062965E+02 0.  0.
         -6    2    1    2    0  502 -0.20702099993E+03  0.11023877693E+02  0.31161982744E+03  0.41201654272E+03  0.17225415620E+03 0.  0.
        -24    2    5    5    0    0 -0.19716752266E+03 -0.98958311317E+01  0.18368598889E+03  0.28192472023E+03  0.82268134143E+02 0.  0.
          5    1    3    3  501    0  0.40828772510E+02  0.39767692951E+02 -0.32646908091E+03  0.33144020404E+03  0.47000000000E+01 0. -1.
        -13    1    4    4    0    0  0.66358317147E+02  0.93551931950E+01 -0.20019318915E+03  0.21111195815E+03  0.00000000000E+00 0.  1.
         14    1    4    4    0    0  0.99833910269E+02 -0.60146763839E+02 -0.18611542227E+03  0.21959825420E+03  0.00000000000E+00 0. -1.
         -5    1    5    5    0  502 -0.98534772623E+01  0.20919708825E+02  0.12793383855E+03  0.13009182249E+03  0.47000000000E+01 0.  1.
         13    1    6    6    0    0 -0.12785325918E+03 -0.10600843325E+02  0.16706719690E+03  0.21064254566E+03  0.00000000000E+00 0. -1.
        -14    1    6    6    0    0 -0.69314263484E+02  0.70501219368E+00  0.16618791992E+02  0.71282174573E+02  0.00000000000E+00 0.  1.
</event>
<event>
12    1  0.8462562E-002  0.2147902E+03  0.7818608E-02  0.1139196E+00
         21   -1    0    0  501  502  0.00000000000E+00  0.00000000000E+00  0.18587651491E+03  0.18587651491E+03  0.00000000000E+00 0.  1.
         21   -1    0    0  502  503 -0.00000000000E+00 -0.00000000000E+00 -0.24709540316E+03  0.24709540316E+03  0.00000000000E+00 0.  1.
         -6    2    1    2    0  503 -0.39262469568E+01 -0.13034799753E+03 -0.67290171412E+02  0.22508399273E+03  0.17067167527E+03 0.  0.
        -24    2    3    3    0    0 -0.16935154074E+02 -0.79435643761E+02  0.26407991143E+02  0.11755383372E+03  0.80775620597E+02 0.  0.
          6    2    1    2  501    0  0.39262469568E+01  0.13034799753E+03  0.60712831648E+01  0.20788792534E+03  0.16178539226E+03 0.  0.
         24    2    5    5    0    0 -0.28076110508E+02  0.13744269856E+03 -0.23992193702E+02  0.16316222459E+03  0.79796759370E+02 0.  0.
          5    1    5    5  501    0  0.32002357465E+02 -0.70947010332E+01  0.30063476867E+02  0.44725700748E+02  0.47000000000E+01 0. -1.
        -13    1    6    6    0    0 -0.52603176134E+02  0.63057937174E+02 -0.34573727633E+01  0.82190942362E+02  0.00000000000E+00 0.  1.
         14    1    6    6    0    0  0.24527065626E+02  0.74384761385E+02 -0.20534820939E+02  0.80971282227E+02  0.00000000000E+00 0. -1.
         -5    1    3    3    0  503  0.13008907118E+02 -0.50912353765E+02 -0.93698162555E+02  0.10753015901E+03  0.47000000000E+01 0.  1.
         11    1    4    4    0    0  0.21293944539E+02 -0.72732100999E+01 -0.13936846223E+02  0.26468232692E+02  0.00000000000E+00 0. -1.
        -12    1    4    4    0    0 -0.38229098613E+02 -0.72162433661E+02  0.40344837366E+02  0.91085601028E+02  0.00000000000E+00 0.  1.
</event>
<event>
12    1  0.8462562E-002  0.1878812E+03  0.7818608E-02  0.1160493E+00
         21   -1    0    0  501  502  0.00000000000E+00  0.00000000000E+00  0.85351528421E+02  0.85351528421E+02  0.00000000000E+00 0. -1.
         21   -1    0    0  502  503 -0.00000000000E+00 -0.00000000000E+00 -0.57672396944E+03  0.57672396944E+03  0.00000000000E+00 0. -1.
         -6    2    1    2    0  503  0.51053505263E+02 -0.53133173118E+02 -0.42209041421E+03  0.46182726962E+03  0.17232096421E+03 0.  0.
        -24    2    3    3    0    0  0.93637485230E+01 -0.92581245819E+02 -0.22238734773E+03  0.25398696789E+03  0.79964245546E+02 0.  0.
          6    2    1    2  501    0 -0.51053505263E+02  0.53133173118E+02 -0.69282026806E+02  0.20024822825E+03  0.17282869898E+03 0.  0.
         24    2    5    5    0    0 -0.27096723640E+02 -0.19667801976E+02  0.12892497955E+02  0.87782002737E+02  0.80114971350E+02 0.  0.
          5    1    5    5  501    0 -0.23956781623E+02  0.72800975094E+02 -0.82174524761E+02  0.11246622551E+03  0.47000000000E+01 0. -1.
        -13    1    6    6    0    0 -0.14211696329E+02  0.15390520635E+02 -0.26312239954E+02  0.33632936377E+02  0.00000000000E+00 0.  1.
         14    1    6    6    0    0 -0.12885027311E+02 -0.35058322611E+02  0.39204737909E+02  0.54149066360E+02  0.00000000000E+00 0. -1.
         -5    1    3    3    0  503  0.41689756740E+02  0.39448072701E+02 -0.19970306649E+03  0.20784030172E+03  0.47000000000E+01 0.  1.
         13    1    4    4    0    0  0.48882294337E+01 -0.85175235151E+02 -0.22815712093E+03  0.24358650887E+03  0.00000000000E+00 0. -1.
        -14    1    4    4    0    0  0.44755190893E+01 -0.74060106684E+01  0.57697732031E+01  0.10400459026E+02  0.00000000000E+00 0.  1.
</event>
<event>
12    1  0.8462562E-002  0.1893754E+03  0.7818608E-02  0.1162552E+00
         21   -1    0    0  503  502  0.00000000000E+00  0.00000000000E+00  0.15719961565E+03  0.15719961565E+03  0.00000000000E+00 0.  1.
         21   -1    0    0  501  503 -0.00000000000E+00 -0.00000000000E+00 -0.24038865274E+03  0.24038865274E+03  0.00000000000E+00 0.  1.
          6    2    1    2  501    0  0.15121554398E+02 -0.27170254706E+02 -0.11309280605E+03  0.22057430105E+03  0.18680512668E+03 0.  0.
         24    2    3    3    0    0  0.59004895555E+02  0.11215034612E+02 -0.12564445560E+03  0.16075112850E+03  0.80293470407E+02 0.  0.
         -6    2    1    2    0  502 -0.15121554398E+02  0.27170254706E+02  0.29903768953E+02  0.17701396734E+03  0.17167651292E+03 0.  0.
        -24    2    5    5    0    0 -0.45120349956E+02 -0.26770008976E+02  0.54922009119E+02  0.11024958970E+03  0.79912862430E+02 0.  0.
          5    1    3    3  501    0 -0.43883341157E+02 -0.38385289318E+02  0.12551649553E+02  0.59823172547E+02  0.47000000000E+01 0. -1.
        -13    1    4    4    0    0 -0.23289923847E+01 -0.26967225353E+02 -0.44672199780E+02  0.52232756791E+02  0.00000000000E+00 0.  1.
         14    1    4    4    0    0  0.61333887940E+02  0.38182259964E+02 -0.80972255820E+02  0.10851837171E+03  0.00000000000E+00 0. -1.
         -5    1    5    5    0  502  0.29998795558E+02  0.53940263683E+02 -0.25018240165E+02  0.66764377643E+02  0.47000000000E+01 0.  1.
         11    1    6    6    0    0 -0.49167931214E+02 -0.33201515398E+02  0.47638830504E+01  0.59519078171E+02  0.00000000000E+00 0. -1.
        -12    1    6    6    0    0  0.40475812587E+01  0.64315064214E+01  0.50158126068E+02  0.50730511525E+02  0.00000000000E+00 0.  1.
</event>
<event>
12    1  0.8462562E-002  0.1958485E+03  0.7818608E-02  0.1154382E+00
         21   -1    0    0  501  502  0.00000000000E+00  0.00000000000E+00  0.51091513506E+02  0.51091513506E+02  0.00000000000E+00 0.  1.
         21   -1    0    0  502  503 -0.00000000000E+00 -0.00000000000E+00 -0.10014499548E+04  0.10014499548E+04  0.00000000000E+00 0.  1.
         -6    2    1    2    0  503  0.82104242234E+02  0.79219611707E+01 -0.74377534891E+03  0.76787814489E+03  0.17213718857E+03 0.  0.
        -24    2    3    3    0    0  0.11491923803E+03 -0.14628301006E+01 -0.68989147790E+03  0.70392144226E+03  0.79665390573E+02 0.  0.
          6    2    1    2  501    0 -0.82104242234E+02 -0.79219611707E+01 -0.20658309237E+03  0.28466332340E+03  0.17763099273E+03 0.  0.
         24    2    5    5    0    0 -0.74151831198E+00  0.12725952931E+02 -0.17825176293E+03  0.19594476036E+03  0.80362667935E+02 0.  0.
          5    1    5    5  501    0 -0.81362723922E+02 -0.20647914101E+02 -0.28331329440E+02  0.88718563044E+02  0.47000000000E+01 0. -1.
        -13    1    6    6    0    0 -0.30731781282E+02  0.23763575308E+02 -0.47593894733E+02  0.61435565498E+02  0.00000000000E+00 0.  1.
         14    1    6    6    0    0  0.29990262970E+02 -0.11037622378E+02 -0.13065786820E+03  0.13450919486E+03  0.00000000000E+00 0. -1.
         -5    1    3    3    0  503 -0.32814995792E+02  0.93847912713E+01 -0.53883871013E+02  0.63956702630E+02  0.47000000000E+01 0.  1.
         13    1    4    4    0    0 -0.70790883222E+01 -0.66393626196E+01 -0.13677895340E+02  0.16771387790E+02  0.00000000000E+00 0. -1.
        -14    1    4    4    0    0  0.12199832635E+03  0.51765325190E+01 -0.67621358256E+03  0.68715005447E+03  0.00000000000E+00 0.  1.
</event>
<event>
12    1  0.8462562E-002  0.1738711E+03  0.7818608E-02  0.1173946E+00
         21   -1    0    0  503  502  0.00000000000E+00  0.00000000000E+00  0.20594205074E+03  0.20594205074E+03  0.00000000000E+00 0.  1.
         21   -1    0    0  501  503 -0.00000000000E+00 -0.00000000000E+00 -0.16118505453E+03  0.16118505453E+03  0.00000000000E+00 0.  1.
          6    2    1    2  501    0  0.20368848646E+02  0.30936602190E+01 -0.32934241120E+02  0.17696277477E+03  0.17264616615E+03 0.  0.
         24    2    3    3    0    0  0.18505769772E+02  0.36782317224E+01 -0.87798439529E+02  0.12186301929E+03  0.82377403352E+02 0.  0.
         -6    2    1    2    0  502 -0.20368848646E+02 -0.30936602190E+01  0.77691237336E+02  0.19016433050E+03  0.17234292416E+03 0.  0.
        -24    2    5    5    0    0 -0.11508825250E+02 -0.12112286602E+02  0.12000642933E+03  0.14575148202E+03  0.81011054097E+02 0.  0.
          5    1    3    3  501    0  0.18630788747E+01 -0.58457150337E+00  0.54864198409E+02  0.55099755478E+02  0.47000000000E+01 0. -1.
        -11    1    4    4    0    0  0.10579034963E+01  0.27745862859E+02 -0.87852906678E+02  0.92136232164E+02  0.00000000000E+00 0.  1.
         12    1    4    4    0    0  0.17447866275E+02 -0.24067631137E+02  0.54467148718E-01  0.29726787125E+02  0.00000000000E+00 0. -1.
         -5    1    5    5    0  502 -0.88600233968E+01  0.90186263830E+01 -0.42315191994E+02  0.44412848477E+02  0.47000000000E+01 0.  1.
         13    1    6    6    0    0 -0.37385520603E+02 -0.31360769278E+02  0.57496792772E+02  0.75412573087E+02  0.00000000000E+00 0. -1.
        -14    1    6    6    0    0  0.25876695353E+02  0.19248482676E+02  0.62509636557E+02  0.70338908935E+02  0.00000000000E+00 0.  1.
</event>
<event>
12    1  0.8462562E-002  0.1936413E+03  0.7818608E-02  0.1155764E+00
         21   -1    0    0  501  502  0.00000000000E+00  0.00000000000E+00  0.19875246661E+04  0.19875246661E+04  0.00000000000E+00 0.  1.
         21   -1    0    0  502  503 -0.00000000000E+00 -0.00000000000E+00 -0.27968629946E+02  0.27968629946E+02  0.00000000000E+00 0.  1.
         -6    2    1    2    0  503  0.14986522907E+02  0.81492909497E+02  0.40154890230E+03  0.44580091800E+03  0.17501784876E+03 0.  0.
        -24    2    3    3    0    0  0.10844579551E+02 -0.26365942865E+02  0.13812178404E+03  0.16107890556E+03  0.77820426266E+02 0.  0.
          6    2    1    2  501    0 -0.14986522907E+02 -0.81492909497E+02  0.15580071339E+04  0.15696923780E+04  0.17228535163E+03 0.  0.
         24    2    5    5    0    0 -0.71630165674E+02 -0.25920321021E+02  0.79667461181E+03  0.80422120682E+03  0.79237419944E+02 0.  0.
          5    1    5    5  501    0  0.56643642767E+02 -0.55572588477E+02  0.76133252205E+03  0.76547117123E+03  0.47000000000E+01 0. -1.
        -11    1    6    6    0    0 -0.76542047665E+02 -0.23475446591E+02  0.42320733657E+03  0.43071363036E+03  0.00000000000E+00 0.  1.
         12    1    6    6    0    0  0.49118819909E+01 -0.24448744295E+01  0.37346727523E+03  0.37350757645E+03  0.00000000000E+00 0. -1.
         -5    1    3    3    0  503  0.41419433562E+01  0.10785885236E+03  0.26342711827E+03  0.28472201244E+03  0.47000000000E+01 0.  1.
         11    1    4    4    0    0 -0.25297133770E+02  0.79089424268E+00  0.96031479037E+02  0.99310701623E+02  0.00000000000E+00 0. -1.
        -12    1    4    4    0    0  0.36141713321E+02 -0.27156837108E+02  0.42090304998E+02  0.61768203942E+02  0.00000000000E+00 0.  1.
</event>
<event>
12    1  0.8462562E-002  0.4441709E+03  0.7818608E-02  0.1029504E+00
         21   -1    0    0  501  502  0.00000000000E+00  0.00000000000E+00  0.70764373369E+03  0.70764373369E+03  0.00000000000E+00 0.  1.
         21   -1    0    0  502  503 -0.00000000000E+00 -0.00000000000E+00 -0.64311714042E+03  0.64311714042E+03  0.00000000000E+00 0. -1.
         -6    2    1    2    0  503 -0.23926703824E+03 -0.33184072686E+03  0.54075457073E+03  0.69954596977E+03  0.17199440245E+03 0.  0.
        -24    2    3    3    0    0 -0.10008543680E+03 -0.14881190482E+03  0.15502891322E+03  0.25046085453E+03  0.80836860660E+02 0.  0.
          6    2    1    2  501    0  0.23926703824E+03  0.33184072686E+03 -0.47622797746E+03  0.65121490434E+03  0.17297624556E+03 0.  0.
         24    2    5    5    0    0  0.73387001282E+02  0.19536682350E+03 -0.18973296930E+03  0.29310487563E+03  0.79737198342E+02 0.  0.
          5    1    5    5  501    0  0.16588003696E+03  0.13647390336E+03 -0.28649500817E+03  0.35811002871E+03  0.47000000000E+01 0. -1.
        -11    1    6    6    0    0  0.59410408890E+02  0.85885050941E+02 -0.13271692403E+03  0.16887753132E+03  0.00000000000E+00 0.  1.
         12    1    6    6    0    0  0.13976592392E+02  0.10948177256E+03 -0.57016045262E+02  0.12422734431E+03  0.00000000000E+00 0. -1.
         -5    1    3    3    0  503 -0.13918160144E+03 -0.18302882204E+03  0.38572565750E+03  0.44908511524E+03  0.47000000000E+01 0.  1.
         13    1    4    4    0    0 -0.13016142327E+02  0.56995460201E+01  0.30816616462E+02  0.33934770311E+02  0.00000000000E+00 0. -1.
        -14    1    4    4    0    0 -0.87069294469E+02 -0.15451145084E+03  0.12421229676E+03  0.21652608422E+03  0.00000000000E+00 0.  1.
</event>
<event>
12    1  0.8462562E-002  0.1977650E+03  0.7818608E-02  0.1151693E+00
         21   -1    0    0  501  502  0.00000000000E+00  0.00000000000E+00  0.25740685930E+03  0.25740685930E+03  0.00000000000E+00 0. -1.
         21   -1    0    0  502  503 -0.00000000000E+00 -0.00000000000E+00 -0.19239290199E+03  0.19239290199E+03  0.00000000000E+00 0.  1.
         -6    2    1    2    0  503 -0.90150536462E+02 -0.33874495364E+02 -0.70879581979E+02  0.20984551939E+03  0.17244311006E+03 0.  0.
        -24    2    3    3    0    0 -0.54709498856E+02  0.19307959537E+02  0.17857814669E+02  0.10038842177E+03  0.79956282515E+02 0.  0.
          6    2    1    2  501    0  0.90150536462E+02  0.33874495364E+02  0.13589353928E+03  0.23995424190E+03  0.17273211492E+03 0.  0.
         24    2    5    5    0    0  0.66042332220E+02  0.62859923425E+02  0.20878713781E+02  0.11882678573E+03  0.73286592909E+02 0.  0.
          5    1    5    5  501    0  0.24108204242E+02 -0.28985428060E+02  0.11501482550E+03  0.12112745617E+03  0.47000000000E+01 0. -1.
        -11    1    6    6    0    0  0.40148283767E+02  0.63195430823E+02  0.41608707727E+02  0.85655307629E+02  0.00000000000E+00 0.  1.
         12    1    6    6    0    0  0.25894048453E+02 -0.33550739784E+00 -0.20729993947E+02  0.33171478103E+02  0.00000000000E+00 0. -1.
         -5    1    3    3    0  503 -0.35441037606E+02 -0.53182454902E+02 -0.88737396648E+02  0.10945709762E+03  0.47000000000E+01 0.  1.
         11    1    4    4    0    0 -0.66705678877E+02 -0.95901392236E+01  0.10017803386E+02  0.68132039082E+02  0.00000000000E+00 0. -1.
        -12    1    4    4    0    0  0.11996180020E+02  0.28898098761E+02  0.78400112828E+01  0.32256382686E+02  0.00000000000E+00 0.  1.
</event>
<event>
12    1  0.8462562E-002  0.1895974E+03  0.7818608E-02  0.1160020E+00
         21   -1    0    0  503  502  0.00000000000E+00  0.00000000000E+00  0.50645027152E+03  0.50645027152E+03  0.00000000000E+00 0.  1.
         21   -1    0    0  501  503 -0.00000000000E+00 -0.00000000000E+00 -0.98093885748E+02  0.98093885748E+02  0.00000000000E+00 0.  1.
          6    2    1    2  501    0 -0.24546929789E+02 -0.60349315911E+02  0.37691911805E+02  0.18820374815E+03  0.17249747508E+03 0.  0.
         24    2    3    3    0    0  0.48759547256E+02 -0.60712626317E+02  0.22329410359E+02  0.11315664279E+03  0.79008270441E+02 0.  0.
         -6    2    1    2    0  502  0.24546929789E+02  0.60349315911E+02  0.37066447397E+03  0.41634040912E+03  0.17805221794E+03 0.  0.
        -24    2    5    5    0    0  0.53857430398E+02  0.91445224543E+02  0.33580685047E+03  0.36099418165E+03  0.79295059494E+02 0.  0.
          5    1    3    3  501    0 -0.73306477046E+02  0.36331040614E+00  0.15362501447E+02  0.75047105354E+02  0.47000000000E+01 0. -1.
        -13    1    4    4    0    0 -0.12257786579E+01 -0.54292041220E+02 -0.71456463516E+01  0.54773976804E+02  0.00000000000E+00 0.  1.
         14    1    4    4    0    0  0.49985325914E+02 -0.64205850963E+01  0.29475056710E+02  0.58382665987E+02  0.00000000000E+00 0. -1.
         -5    1    5    5    0  502 -0.29310500609E+02 -0.31095908632E+02  0.34857623490E+02  0.55346227469E+02  0.47000000000E+01 0.  1.
         11    1    6    6    0    0  0.69953473309E+01 -0.12880372625E+02  0.17865781492E+02  0.23108981621E+02  0.00000000000E+00 0. -1.
        -12    1    6    6    0    0  0.46862083067E+02  0.10432559717E+03  0.31794106898E+03  0.33788520003E+03  0.00000000000E+00 0.  1.
</event>
<event>
12    1  0.8462562E-002  0.2009404E+03  0.7818608E-02  0.1148990E+00
         21   -1    0    0  503  502  0.00000000000E+00  0.00000000000E+00  0.11061655420E+03  0.11061655420E+03  0.00000000000E+00 0. -1.
         21   -1    0    0  501  503 -0.00000000000E+00 -0.00000000000E+00 -0.37060709178E+03  0.37060709178E+03  0.00000000000E+00 0. -1.
          6    2    1    2  501    0  0.94467596580E+02 -0.40455348547E+02 -0.99567129898E+02  0.22425580518E+03  0.17267394352E+03 0.  0.
         24    2    3    3    0    0  0.10488618710E+03 -0.77193202600E+02 -0.10545925140E+03  0.18533249539E+03  0.79161716580E+02 0.  0.
         -6    2    1    2    0  502 -0.94467596580E+02  0.40455348547E+02 -0.16042340769E+03  0.25696784080E+03  0.17244140873E+03 0.  0.
        -24    2    5    5    0    0 -0.29156852207E+02  0.80480193020E+02 -0.12849163262E+03  0.17384618439E+03  0.79907525776E+02 0.  0.
          5    1    3    3  501    0 -0.10418590517E+02  0.36737854054E+02  0.58921214993E+01  0.38923309785E+02  0.47000000000E+01 0. -1.
        -13    1    4    4    0    0  0.31147653985E+02  0.14011795337E+02 -0.15430041011E+02  0.37477899127E+02  0.00000000000E+00 0.  1.
         14    1    4    4    0    0  0.73738533112E+02 -0.91204997938E+02 -0.90029210386E+02  0.14785459627E+03  0.00000000000E+00 0. -1.
         -5    1    5    5    0  502 -0.65310744373E+02 -0.40024844474E+02 -0.31931775072E+02  0.83121656414E+02  0.47000000000E+01 0.  1.
         11    1    6    6    0    0 -0.38388814806E+00  0.12937058305E+01 -0.72886740629E+02  0.72899231851E+02  0.00000000000E+00 0. -1.
        -12    1    6    6    0    0 -0.28772964059E+02  0.79186487190E+02 -0.55604891987E+02  0.10094695254E+03  0.00000000000E+00 0.  1.
</event>
<event>
12    1  0.8462562E-002  0.2345743E+03  0.7818608E-02  0.1123566E+00
         21   -1    0    0  501  502  0.00000000000E+00  0.00000000000E+00  0.45016374877E+03  0.45016374877E+03  0.00000000000E+00 0. -1.
         21   -1    0    0  502  503 -0.00000000000E+00 -0.00000000000E+00 -0.27216417802E+03  0.27216417802E+03  0.00000000000E+00 0.  1.
         -6    2    1    2    0  503 -0.15370704343E+03  0.38793771987E+02 -0.17939795364E+03  0.29482576020E+03  0.17206914645E+03 0.  0.
        -24    2    3    3    0    0 -0.77056701687E+02 -0.25430415756E+02 -0.15160704019E+03  0.19092943663E+03  0.82975380778E+02 0.  0.
          6    2    1    2  501    0  0.15370704343E+03 -0.38793771987E+02  0.35739752439E+03  0.42750216659E+03  0.17289968205E+03 0.  0.
         24    2    5    5    0    0  0.12184823632E+03 -0.36780438303E+02  0.13403062658E+03  0.20181677021E+03  0.81030898674E+02 0.  0.
          5    1    5    5  501    0  0.31858807119E+02 -0.20133336845E+01  0.22336689781E+03  0.22568539638E+03  0.47000000000E+01 0. -1.
        -11    1    6    6    0    0  0.10044534783E+03  0.78778881268E+01  0.98186123857E+02  0.14068348852E+03  0.00000000000E+00 0.  1.
         12    1    6    6    0    0  0.21402888482E+02 -0.44658326430E+02  0.35844502727E+02  0.61133281694E+02  0.00000000000E+00 0. -1.
         -5    1    3    3    0  503 -0.76650341748E+02  0.64224187744E+02 -0.27790913450E+02  0.10389632357E+03  0.47000000000E+01 0.  1.
         11    1    4    4    0    0  0.11616339136E+02 -0.22640183942E+02 -0.20752116294E+02  0.32835462454E+02  0.00000000000E+00 0. -1.
        -12    1    4    4    0    0 -0.88673040822E+02 -0.27902318140E+01 -0.13085492390E+03  0.15809397417E+03  0.00000000000E+00 0.  1.
</event>
<event>
12    1  0.8462562E-002  0.1880602E+03  0.7818608E-02  0.1160931E+00
         21   -1    0    0  501  502  0.00000000000E+00  0.00000000000E+00  0.18342014843E+03  0.18342014843E+03  0.00000000000E+00 0.  1.
         21   -1    0    0  502  503 -0.00000000000E+00 -0.00000000000E+00 -0.19951719351E+03  0.19951719351E+03  0.00000000000E+00 0.  1.
         -6    2    1    2    0  503 -0.56647791880E+02  0.46007375583E+02 -0.50627629257E+02  0.19475574228E+03  0.17332337227E+03 0.  0.
        -24    2    3    3    0    0  0.19086356651E+01  0.73474463601E+01 -0.85771528809E+02  0.11613876568E+03  0.77934779664E+02 0.  0.
          6    2    1    2  501    0  0.56647791880E+02 -0.46007375583E+02  0.34530584182E+02  0.18818159966E+03  0.16998324115E+03 0.  0.
         24    2    5    5    0    0  0.10136400383E+03 -0.51068575714E+02  0.18439386900E+02  0.14015898011E+03  0.80136558573E+02 0.  0.
          5    1    5    5  501    0 -0.44716211948E+02  0.50612001309E+01  0.16091197282E+02  0.48022619543E+02  0.47000000000E+01 0. -1.
        -11    1    6    6    0    0  0.28005129008E+02 -0.25798123606E+02 -0.30187232142E+02  0.48591145456E+02  0.00000000000E+00 0.  1.
         12    1    6    6    0    0  0.73358874821E+02 -0.25270452108E+02  0.48626619042E+02  0.91567834659E+02  0.00000000000E+00 0. -1.
         -5    1    3    3    0  503 -0.58556427546E+02  0.38659929223E+02  0.35143899552E+02  0.78616976602E+02  0.47000000000E+01 0.  1.
         13    1    4    4    0    0  0.29655382191E+02 -0.22467079381E+02 -0.46601142051E+02  0.59631181351E+02  0.00000000000E+00 0. -1.
        -14    1    4    4    0    0 -0.27746746526E+02  0.29814525742E+02 -0.39170386757E+02  0.56507584329E+02  0.00000000000E+00 0.  1.
</event>
<event>
12    1  0.8462562E-002  0.1887403E+03  0.7818608E-02  0.1160661E+00
         21   -1    0    0  503  502  0.00000000000E+00  0.00000000000E+00  0.10137882296E+03  0.10137882296E+03  0.00000000000E+00 0. -1.
         21   -1    0    0  501  503 -0.00000000000E+00 -0.00000000000E+00 -0.34558969827E+03  0.34558969827E+03  0.00000000000E+00 0. -1.
          6    2    1    2  501    0 -0.31339940235E+01  0.68762273310E+02 -0.14336456095E+03  0.23701536894E+03  0.17574076257E+03 0.  0.
         24    2    3    3    0    0 -0.28635560958E+02  0.10232249665E+03 -0.14411643471E+03  0.19459752104E+03  0.76215220040E+02 0.  0.
         -6    2    1    2    0  502  0.31339940235E+01 -0.68762273310E+02 -0.10084631437E+03  0.20995315229E+03  0.17079893116E+03 0.  0.
        -24    2    5    5    0    0 -0.72840934076E+01 -0.56710285924E+02 -0.13817857403E+03  0.16909272453E+03  0.78929820865E+02 0.  0.
          5    1    3    3  501    0  0.25501566935E+02 -0.33560223342E+02  0.75187376740E+00  0.42417847907E+02  0.47000000000E+01 0. -1.
        -11    1    4    4    0    0  0.72856835708E+01  0.41202057136E+02 -0.10632007123E+03  0.11425693958E+03  0.00000000000E+00 0.  1.
         12    1    4    4    0    0 -0.35921244529E+02  0.61120439516E+02 -0.37796363489E+02  0.80340581453E+02  0.00000000000E+00 0. -1.
         -5    1    5    5    0  502  0.10418087431E+02 -0.12051987386E+02  0.37332259661E+02  0.40860427764E+02  0.47000000000E+01 0.  1.
         11    1    6    6    0    0 -0.37352908708E+02 -0.46264854951E+02 -0.59046442951E+02  0.83798323478E+02  0.00000000000E+00 0. -1.
        -12    1    6    6    0    0  0.30068815300E+02 -0.10445430973E+02 -0.79132131076E+02  0.85294401050E+02  0.00000000000E+00 0.  1.
</event>
<event>
12    1  0.8462562E-002  0.1794099E+03  0.7818608E-02  0.1168572E+00
         21   -1    0    0  503  502  0.00000000000E+00  0.00000000000E+00  0.13469279333E+04  0.13469279333E+04  0.00000000000E+00 0.  1.
         21   -1    0    0  501  503 -0.00000000000E+00 -0.00000000000E+00 -0.25061702581E+02  0.25061702581E+02  0.00000000000E+00 0.  1.
          6    2    1    2  501    0  0.89630095098E+01 -0.49072626071E+02  0.50779977196E+03  0.53856151534E+03  0.17233525246E+03 0.  0.
         24    2    3    3    0    0 -0.60144232544E+02 -0.25489632409E+02  0.33727394659E+03  0.35299989320E+03  0.81167477993E+02 0.  0.
         -6    2    1    2    0  502 -0.89630095098E+01  0.49072626071E+02  0.81406645872E+03  0.83342812050E+03  0.17149278309E+03 0.  0.
        -24    2    5    5    0    0  0.52355780929E+02  0.17495685619E+02  0.29393373579E+03  0.30872131028E+03  0.76580543032E+02 0.  0.
          5    1    3    3  501    0  0.69107242054E+02 -0.23582993662E+02  0.17052582537E+03  0.18556162214E+03  0.47000000000E+01 0. -1.
        -13    1    4    4    0    0 -0.21284566133E+02  0.29463522544E+02  0.10171123294E+03  0.10801067921E+03  0.00000000000E+00 0.  1.
         14    1    4    4    0    0 -0.38859666411E+02 -0.54953154952E+02  0.23556271365E+03  0.24498921400E+03  0.00000000000E+00 0. -1.
         -5    1    5    5    0  502 -0.61318790438E+02  0.31576940451E+02  0.52013272293E+03  0.52470681022E+03  0.47000000000E+01 0.  1.
         11    1    6    6    0    0 -0.18781514495E+02  0.10578710247E+02  0.92656019882E+02  0.95130396917E+02  0.00000000000E+00 0. -1.
        -12    1    6    6    0    0  0.71137295423E+02  0.69169753720E+01  0.20127771591E+03  0.21359091336E+03  0.00000000000E+00 0.  1.
</event>
<event>
12    1  0.8462562E-002  0.3894038E+03  0.7818608E-02  0.1047547E+00
         21   -1    0    0  503  502  0.00000000000E+00  0.00000000000E+00  0.11712150392E+04  0.11712150392E+04  0.00000000000E+00 0.  1.
         21   -1    0    0  501  503 -0.00000000000E+00 -0.00000000000E+00 -0.14078776674E+03  0.14078776674E+03  0.00000000000E+00 0.  1.
          6    2    1    2  501    0  0.33945837052E+03 -0.83668076014E+02  0.32789428309E+03  0.50876690070E+03  0.17057774211E+03 0.  0.
         24    2    3    3    0    0  0.14214184405E+03 -0.79049006362E+02  0.10691357095E+03  0.21243986420E+03  0.85130106367E+02 0.  0.
         -6    2    1    2    0  502 -0.33945837052E+03  0.83668076014E+02  0.70253298941E+03  0.80323590528E+03  0.17147298932E+03 0.  0.
        -24    2    5    5    0    0 -0.22626435656E+03  0.92422777169E+02  0.36397586670E+03  0.44611891475E+03  0.82499247078E+02 0.  0.
          5    1    3    3  501    0  0.19731652647E+03 -0.46190696525E+01  0.22098071214E+03  0.29632703650E+03  0.47000000000E+01 0. -1.
        -13    1    4    4    0    0  0.30297598837E+02 -0.63835187619E+02  0.43366772196E+02  0.82906891175E+02  0.00000000000E+00 0.  1.
         14    1    4    4    0    0  0.11184424521E+03 -0.15213818743E+02  0.63546798751E+02  0.12953297302E+03  0.00000000000E+00 0. -1.
         -5    1    5    5    0  502 -0.11319401395E+03 -0.87547011549E+01  0.33855712270E+03  0.35711699052E+03  0.47000000000E+01 0.  1.
         11    1    6    6    0    0 -0.22136313627E+03  0.70870058807E+02  0.34938018069E+03  0.41963164084E+03  0.00000000000E+00 0. -1.
        -12    1    6    6    0    0 -0.49012202881E+01  0.21552718362E+02  0.14595686013E+02  0.26487273912E+02  0.00000000000E+00 0.  1.
</event>
<event>
12    1  0.8462562E-002  0.3198151E+03  0.7818608E-02  0.1075738E+00
         21   -1    0    0  501  502  0.00000000000E+00  0.00000000000E+00  0.76910350860E+03  0.76910350860E+03  0.00000000000E+00 0.  1.
         21   -1    0    0  502  503 -0.00000000000E+00 -0.00000000000E+00 -0.16514974311E+03  0.16514974311E+03  0.00000000000E+00 0. -1.
         -6    2    1    2    0  503  0.26688879947E+03 -0.37955625402E+02  0.50816793593E+03  0.60043011979E+03  0.17207968172E+03 0.  0.
        -24    2    3    3    0    0  0.17179046317E+03  0.38707743334E+02  0.35903161762E+03  0.40759677954E+03  0.78874454731E+02 0.  0.
          6    2    1    2  501    0 -0.26688879947E+03  0.37955625402E+02  0.95785829563E+02  0.33382313192E+03  0.17202528150E+03 0.  0.
         24    2    5    5    0    0 -0.20572916577E+03  0.32689162869E+02  0.13516864996E+03  0.26073870837E+03  0.79504962708E+02 0.  0.
          5    1    5    5  501    0 -0.61159633701E+02  0.52664625333E+01 -0.39382820399E+02  0.73084423543E+02  0.47000000000E+01 0. -1.
        -11    1    6    6    0    0 -0.11935184669E+03  0.48188030872E+02  0.48926031252E+02  0.13769788002E+03  0.00000000000E+00 0.  1.
         12    1    6    6    0    0 -0.86377319081E+02 -0.15498868003E+02  0.86242618710E+02  0.12304082836E+03  0.00000000000E+00 0. -1.
         -5    1    3    3    0  503  0.95098336298E+02 -0.76663368736E+02  0.14913631830E+03  0.19283334024E+03  0.47000000000E+01 0.  1.
         11    1    4    4    0    0  0.15737620229E+03  0.98172701511E+01  0.26722934914E+03  0.31028240827E+03  0.00000000000E+00 0. -1.
        -12    1    4    4    0    0  0.14414260885E+02  0.28890473183E+02  0.91802268484E+02  0.97314371274E+02  0.00000000000E+00 0.  1.
</event>
<event>
12    1  0.8462562E-002  0.1739452E+03  0.7818608E-02  0.1173801E+00
         21   -1    0    0  501  502  0.00000000000E+00  0.00000000000E+00  0.30483172213E+03  0.30483172213E+03  0.00000000000E+00 0.  1.
         21   -1    0    0  502  503 -0.00000000000E+00 -0.00000000000E+00 -0.13009012868E+03  0.13009012868E+03  0.00000000000E+00 0.  1.
         -6    2    1    2    0  503  0.71268296419E+01  0.25641720122E+02  0.19325645688E+03  0.25999409854E+03  0.17187374331E+03 0.  0.
        -24    2    3    3    0    0  0.41437729089E+02 -0.21229443494E+02  0.52594765041E+02  0.10773791525E+03  0.81691336197E+02 0.  0.
          6    2    1    2  501    0 -0.71268296419E+01 -0.25641720122E+02 -0.18514863427E+02  0.17492775227E+03  0.17189714609E+03 0.  0.
         24    2    5    5    0    0  0.24006268974E+02  0.16275482312E+02  0.42296140313E+02  0.94638339110E+02  0.79537786426E+02 0.  0.
          5    1    5    5  501    0 -0.31133098616E+02 -0.41917202434E+02 -0.60811003740E+02  0.80289413157E+02  0.47000000000E+01 0. -1.
        -13    1    6    6    0    0  0.44792172385E+02  0.34833385470E+02  0.29938592221E+02  0.64156237065E+02  0.00000000000E+00 0.  1.
         14    1    6    6    0    0 -0.20785903411E+02 -0.18557903158E+02  0.12357548093E+02  0.30482102045E+02  0.00000000000E+00 0. -1.
         -5    1    3    3    0  503 -0.34310899447E+02  0.46871163615E+02  0.14066169184E+03  0.15225618329E+03  0.47000000000E+01 0.  1.
         11    1    4    4    0    0  0.73507314839E+00  0.28672560493E+02  0.23473127399E+02  0.37062700490E+02  0.00000000000E+00 0. -1.
        -12    1    4    4    0    0  0.40702655940E+02 -0.49902003986E+02  0.29121637642E+02  0.70675214760E+02  0.00000000000E+00 0.  1.
</event>
<event>
12    1  0.8462562E-002  0.2491995E+03  0.7818608E-02  0.1113861E+00
         21   -1    0    0  503  502  0.00000000000E+00  0.00000000000E+00  0.61231740263E+02  0.61231740263E+02  0.00000000000E+00 0.  1.
         21   -1    0    0  501  503 -0.00000000000E+00 -0.00000000000E+00 -0.11476139895E+04  0.11476139895E+04  0.00000000000E+00 0.  1.
          6    2    1    2  501    0  0.10283677409E+03  0.14752066193E+03 -0.75055476686E+03  0.79084314017E+03  0.17251859750E+03 0.  0.
         24    2    3    3    0    0  0.15344319266E+02  0.10609476799E+03 -0.27738205273E+03  0.30784672015E+03  0.79606859043E+02 0.  0.
         -6    2    1    2    0  502 -0.10283677409E+03 -0.14752066193E+03 -0.33582748240E+03  0.41800258962E+03  0.17207068081E+03 0.  0.
        -24    2    5    5    0    0 -0.82293442544E+01 -0.80317440713E+02 -0.25089770820E+03  0.27412071006E+03  0.75325230236E+02 0.  0.
          5    1    3    3  501    0  0.87492454828E+02  0.41425893942E+02 -0.47317271414E+03  0.48299642001E+03  0.47000000000E+01 0. -1.
        -11    1    4    4    0    0  0.30294639087E+02  0.50044987368E+02 -0.21432510751E+03  0.22216551854E+03  0.00000000000E+00 0.  1.
         12    1    4    4    0    0 -0.14950319821E+02  0.56049780619E+02 -0.63056945215E+02  0.85681201614E+02  0.00000000000E+00 0. -1.
         -5    1    5    5    0  502 -0.94607429839E+02 -0.67203221216E+02 -0.84929774191E+02  0.14388187956E+03  0.47000000000E+01 0.  1.
         13    1    6    6    0    0  0.40599090394E+01 -0.57547458392E+02 -0.67014056693E+02  0.88425542821E+02  0.00000000000E+00 0. -1.
        -14    1    6    6    0    0 -0.12289253294E+02 -0.22769982321E+02 -0.18388365151E+03  0.18569516724E+03  0.00000000000E+00 0.  1.
</event>
<event>
12    1  0.8462562E-002  0.1927560E+03  0.7818608E-02  0.1156072E+00
         21   -1    0    0  501  502  0.00000000000E+00  0.00000000000E+00  0.21087608108E+03  0.21087608108E+03  0.00000000000E+00 0.  1.
         21   -1    0    0  502  503 -0.00000000000E+00 -0.00000000000E+00 -0.22287501217E+03  0.22287501217E+03  0.00000000000E+00 0.  1.
         -6    2    1    2    0  503 -0.83602485058E+02 -0.21408936442E+02 -0.10557740745E+03  0.21977595639E+03  0.17235766294E+03 0.  0.
        -24    2    3    3    0    0 -0.15310807052E+02  0.22492637940E+02  0.42796986617E+01  0.83094665490E+02  0.78396862425E+02 0.  0.
          6    2    1    2  501    0  0.83602485058E+02  0.21408936442E+02  0.93578476362E+02  0.21397513685E+03  0.17199043545E+03 0.  0.
         24    2    5    5    0    0  0.30812346706E+02  0.54770542961E+02 -0.15239921116E+00  0.10124819893E+03  0.79384894508E+02 0.  0.
          5    1    5    5  501    0  0.52790138352E+02 -0.33361606519E+02  0.93730875573E+02  0.11272693792E+03  0.47000000000E+01 0. -1.
        -13    1    6    6    0    0  0.10018254629E+02  0.20101576375E+02  0.38977638878E+02  0.44985499120E+02  0.00000000000E+00 0.  1.
         14    1    6    6    0    0  0.20794092076E+02  0.34668966587E+02 -0.39130038089E+02  0.56262699814E+02  0.00000000000E+00 0. -1.
         -5    1    3    3    0  503 -0.68291678006E+02 -0.43901574382E+02 -0.10985710611E+03  0.13668129090E+03  0.47000000000E+01 0.  1.
         11    1    4    4    0    0 -0.17689328024E+02  0.46820458153E+02 -0.14680719992E+02  0.52159286489E+02  0.00000000000E+00 0. -1.
        -12    1    4    4    0    0  0.23785209724E+01 -0.24327820213E+02  0.18960418654E+02  0.30935379000E+02  0.00000000000E+00 0.  1.
</event>
<event>
12    1  0.8462562E-002  0.1873670E+03  0.7818608E-02  0.1160875E+00
         21   -1    0    0  501  502  0.00000000000E+00  0.00000000000E+00  0.27472842664E+03  0.27472842664E+03  0.00000000000E+00 0.  1.
         21   -1    0    0  502  503 -0.00000000000E+00 -0.00000000000E+00 -0.27112146046E+03  0.27112146046E+03  0.00000000000E+00 0.  1.
         -6    2    1    2    0  503 -0.31983443183E+02 -0.65551309599E+02 -0.19667560454E+03  0.27163890779E+03  0.17258762405E+03 0.  0.
        -24    2    3    3    0    0  0.34603185122E+02 -0.22320380753E+02 -0.37505136308E+02  0.93706279426E+02  0.75356829397E+02 0.  0.
          6    2    1    2  501    0  0.31983443183E+02  0.65551309599E+02  0.20028257072E+03  0.27421097931E+03  0.17250692221E+03 0.  0.
         24    2    5    5    0    0 -0.42095107615E+02  0.69248741909E+02  0.11751327331E+03  0.16297182574E+03  0.78632437572E+02 0.  0.
          5    1    5    5  501    0  0.74078550798E+02 -0.36974323104E+01  0.82769297411E+02  0.11123915357E+03  0.47000000000E+01 0. -1.
        -11    1    6    6    0    0 -0.25847456998E+01  0.69975810270E+02  0.55111290100E+02  0.89109759453E+02  0.00000000000E+00 0.  1.
         12    1    6    6    0    0 -0.39510361915E+02 -0.72706836054E+00  0.62401983210E+02  0.73862066283E+02  0.00000000000E+00 0. -1.
         -5    1    3    3    0  503 -0.66586628306E+02 -0.43230928846E+02 -0.15917046823E+03  0.17793262836E+03  0.47000000000E+01 0.  1.
         13    1    4    4    0    0  0.67364760417E+01  0.21290473302E+02  0.90492825751E+01  0.24094685680E+02  0.00000000000E+00 0. -1.
        -14    1    4    4    0    0  0.27866709081E+02 -0.43610854054E+02 -0.46554418883E+02  0.69611593746E+02  0.00000000000E+00 0.  1.
</event>
<event>
12    1  0.8462562E-002  0.2235633E+03  0.7818608E-02  0.1131968E+00
         21   -1    0    0  503  502  0.00000000000E+00  0.00000000000E+00  0.45743094192E+03  0.45743094192E+03  0.00000000000E+00 0. -1.
         21   -1    0    0  501  503 -0.00000000000E+00 -0.00000000000E+00 -0.15081266436E+03  0.15081266436E+03  0.00000000000E+00 0. -1.
          6    2    1    2  501    0 -0.13133124961E+03  0.30204330721E+02 -0.89428519274E+01  0.22374212097E+03  0.17838263194E+03 0.  0.
         24    2    3    3    0    0 -0.88383560272E+02  0.51381917107E+02 -0.69405130548E+02  0.14647135469E+03  0.78644964667E+02 0.  0.
         -6    2    1    2    0  502  0.13133124961E+03 -0.30204330721E+02  0.31556112949E+03  0.38450148532E+03  0.17350033732E+03 0.  0.
        -24    2    5    5    0    0  0.54271926680E+02 -0.68852445801E+02  0.10620589043E+03  0.15804283088E+03  0.77535436494E+02 0.  0.
          5    1    3    3  501    0 -0.42947689334E+02 -0.21177586386E+02  0.60462278621E+02  0.77270766272E+02  0.47000000000E+01 0. -1.
        -11    1    4    4    0    0  0.32878041346E+01 -0.13524816801E+02 -0.18499926727E+02  0.23151190346E+02  0.00000000000E+00 0.  1.
         12    1    4    4    0    0 -0.91671364406E+02  0.64906733908E+02 -0.50905203821E+02  0.12332016435E+03  0.00000000000E+00 0. -1.
         -5    1    5    5    0  502  0.77059322925E+02  0.38648115079E+02  0.20935523906E+03  0.22645865444E+03  0.47000000000E+01 0.  1.
         13    1    6    6    0    0 -0.16500653230E+02 -0.20416233606E+02  0.46989435396E+02  0.53824726572E+02  0.00000000000E+00 0. -1.
        -14    1    6    6    0    0  0.70772579910E+02 -0.48436212194E+02  0.59216455034E+02  0.10421810431E+03  0.00000000000E+00 0.  1.
</event>
<event>
12    1  0.8462562E-002  0.2155317E+03  0.7818608E-02  0.1137349E+00
         21   -1    0    0  501  502  0.00000000000E+00  0.00000000000E+00  0.10054277769E+04  0.10054277769E+04  0.00000000000E+00 0. -1.
         21   -1    0    0  502  503 -0.00000000000E+00 -0.00000000000E+00 -0.49901441876E+02  0.49901441876E+02  0.00000000000E+00 0. -1.
         -6    2    1    2    0  503 -0.23147599145E+02  0.12696900456E+03  0.62384854884E+03  0.66003099618E+03  0.17261797290E+03 0.  0.
        -24    2    3    3    0    0 -0.11814105002E+02  0.20987098770E+02  0.43121536112E+03  0.43982598385E+03  0.83187601330E+02 0.  0.
          6    2    1    2  501    0  0.23147599145E+02 -0.12696900456E+03  0.33167778618E+03  0.39529822258E+03  0.17202787992E+03 0.  0.
         24    2    5    5    0    0  0.40421909875E+02 -0.11072531844E+03  0.34065263302E+03  0.36951262533E+03  0.81248611997E+02 0.  0.
          5    1    5    5  501    0 -0.17274310730E+02 -0.16243686124E+02 -0.89748468429E+01  0.25785597258E+02  0.47000000000E+01 0. -1.
        -11    1    6    6    0    0  0.52992088814E+01  0.78130186971E+01  0.85133277910E+02  0.85655121760E+02  0.00000000000E+00 0.  1.
         12    1    6    6    0    0  0.35122700993E+02 -0.11853833713E+03  0.25551935511E+03  0.28385750357E+03  0.00000000000E+00 0. -1.
         -5    1    3    3    0  503 -0.11333494143E+02  0.10598190579E+03  0.19263318772E+03  0.22020501233E+03  0.47000000000E+01 0.  1.
         13    1    4    4    0    0  0.32493989782E+02  0.11858343221E+02  0.27579155336E+03  0.27795226313E+03  0.00000000000E+00 0. -1.
        -14    1    4    4    0    0 -0.44308094785E+02  0.91287555494E+01  0.15542380776E+03  0.16187372072E+03  0.00000000000E+00 0.  1.
</event>
<event>
12    1  0.8462562E-002  0.1874357E+03  0.7818608E-02  0.1160924E+00
         21   -1    0    0  501  502  0.00000000000E+00  0.00000000000E+00  0.40586313906E+03  0.40586313906E+03  0.00000000000E+00 0. -1.
         21   -1    0    0  502  503 -0.00000000000E+00 -0.00000000000E+00 -0.88283739014E+02  0.88283739014E+02  0.00000000000E+00 0. -1.
         -6    2    1    2    0  503 -0.90785767542E+01 -0.72067401717E+02  0.12200018183E+03  0.22364299208E+03  0.17278892497E+03 0.  0.
        -24    2    3    3    0    0  0.40148432519E+02 -0.58603202353E+02  0.18374418177E+02  0.10803601997E+03  0.79296471601E+02 0.  0.
          6    2    1    2  501    0  0.90785767542E+01  0.72067401717E+02  0.19557921821E+03  0.27050388599E+03  0.17217720754E+03 0.  0.
         24    2    5    5    0    0 -0.33310179477E+02 -0.63585356826E+01  0.75936138603E+02  0.12122565312E+03  0.88200696116E+02 0.  0.
          5    1    5    5  501    0  0.42388756231E+02  0.78425937400E+02  0.11964307960E+03  0.14927823287E+03  0.47000000000E+01 0. -1.
        -13    1    6    6    0    0 -0.60820935252E+02  0.72718250684E+01  0.36707410690E+02  0.71410780729E+02  0.00000000000E+00 0.  1.
         14    1    6    6    0    0  0.27510755776E+02 -0.13630360751E+02  0.39228727912E+02  0.49814872389E+02  0.00000000000E+00 0. -1.
         -5    1    3    3    0  503 -0.49227009273E+02 -0.13464199365E+02  0.10362576366E+03  0.11560697211E+03  0.47000000000E+01 0.  1.
         13    1    4    4    0    0  0.19333466968E+02 -0.75534894245E+02  0.51965708765E+01  0.78142866229E+02  0.00000000000E+00 0. -1.
        -14    1    4    4    0    0  0.20814965551E+02  0.16931691892E+02  0.13177847301E+02  0.29893153743E+02  0.00000000000E+00 0.  1.
</event>
<event>
12    1  0.8462562E-002  0.2311415E+03  0.7818608E-02  0.1125858E+00
         21   -1    0    0  503  502  0.00000000000E+00  0.00000000000E+00  0.42548034366E+03  0.42548034366E+03  0.00000000000E+00 0.  1.
         21   -1    0    0  501  503 -0.00000000000E+00 -0.00000000000E+00 -0.41021210540E+03  0.41021210540E+03  0.00000000000E+00 0.  1.
          6    2    1    2  501    0 -0.28657462295E+02 -0.15044996784E+03 -0.34046890094E+03  0.41151607323E+03  0.17311834985E+03 0.  0.
         24    2    3    3    0    0  0.35078860725E+02 -0.81881532960E+02 -0.26465555671E+03  0.29096026750E+03  0.81732500593E+02 0.  0.
         -6    2    1    2    0  502  0.28657462295E+02  0.15044996784E+03  0.35573713920E+03  0.42417637583E+03  0.17297468784E+03 0.  0.
        -24    2    5    5    0    0  0.19155407496E+02  0.25145977387E+02  0.23265590779E+03  0.24821484994E+03  0.80514535848E+02 0.  0.
          5    1    3    3  501    0 -0.63736323020E+02 -0.68568434879E+02 -0.75813344223E+02  0.12055580573E+03  0.47000000000E+01 0. -1.
        -13    1    4    4    0    0  0.10394660423E+02 -0.74128927310E+02 -0.10344765684E+03  0.12768932820E+03  0.00000000000E+00 0.  1.
         14    1    4    4    0    0  0.24684200301E+02 -0.77526056502E+01 -0.16120789987E+03  0.16327093930E+03  0.00000000000E+00 0. -1.
         -5    1    5    5    0  502  0.95020547990E+01  0.12530399045E+03  0.12308123141E+03  0.17596152589E+03  0.47000000000E+01 0.  1.
         13    1    6    6    0    0  0.32557242880E+02  0.67180716310E+01  0.31579850305E+02  0.45851864692E+02  0.00000000000E+00 0. -1.
        -14    1    6    6    0    0 -0.13401835384E+02  0.18427905756E+02  0.20107605749E+03  0.20236298525E+03  0.00000000000E+00 0.  1.
</event>
<event>
12    1  0.8462562E-002  0.2026056E+03  0.7818608E-02  0.1147743E+00
         21   -1    0    0  501  502  0.00000000000E+00  0.00000000000E+00  0.43790165597E+03  0.43790165597E+03  0.00000000000E+00 0.  1.
         21   -1    0    0  502  503 -0.00000000000E+00 -0.00000000000E+00 -0.95620324954E+02  0.95620324954E+02  0.00000000000E+00 0. -1.
         -6    2    1    2    0  503 -0.99891848457E+02 -0.33565304006E+02  0.21278716725E+03  0.29381528735E+03  0.17304344400E+03 0.  0.
        -24    2    3    3    0    0 -0.78886239405E+02  0.43482844082E+02  0.10709922267E+03  0.16126460132E+03  0.80138827334E+02 0.  0.
          6    2    1    2  501    0  0.99891848457E+02  0.33565304006E+02  0.12949416376E+03  0.23970669358E+03  0.17200450423E+03 0.  0.
         24    2    5    5    0    0  0.11571356743E+03 -0.31905179539E+01  0.13959636548E+03  0.19816801619E+03  0.79897486150E+02 0.  0.
          5    1    5    5  501    0 -0.15821718971E+02  0.36755821960E+02 -0.10102201722E+02  0.41538677384E+02  0.47000000000E+01 0. -1.
        -11    1    6    6    0    0  0.39528816921E+02 -0.17168903312E+01  0.10917032822E+03  0.11611905805E+03  0.00000000000E+00 0.  1.
         12    1    6    6    0    0  0.76184750507E+02 -0.14736276227E+01  0.30426037267E+02  0.82048958141E+02  0.00000000000E+00 0. -1.
         -5    1    3    3    0  503 -0.21005609052E+02 -0.77048148088E+02  0.10568794458E+03  0.13255068603E+03  0.47000000000E+01 0.  1.
         13    1    4    4    0    0 -0.11096546490E+02  0.50916844793E+02  0.51639828212E+02  0.73364366592E+02  0.00000000000E+00 0. -1.
        -14    1    4    4    0    0 -0.67789692915E+02 -0.74340007109E+01  0.55459394457E+02  0.87900234730E+02  0.00000000000E+00 0.  1.
</event>
<event>
12    1  0.8462562E-002  0.2092638E+03  0.7818608E-02  0.1143073E+00
         21   -1    0    0  501  502  0.00000000000E+00  0.00000000000E+00  0.16993723829E+03  0.16993723829E+03  0.00000000000E+00 0.  1.
         21   -1    0    0  502  503 -0.00000000000E+00 -0.00000000000E+00 -0.33072432082E+03  0.33072432082E+03  0.00000000000E+00 0.  1.
         -6    2    1    2    0  503  0.80681022226E+02  0.77062672255E+02  0.42353608021E+02  0.20901540698E+03  0.17159699718E+03 0.  0.
        -24    2    3    3    0    0  0.10476296798E+03  0.21839157195E+02  0.57625891219E+02  0.14668636591E+03  0.82121363577E+02 0.  0.
          6    2    1    2  501    0 -0.80681022226E+02 -0.77062672255E+02 -0.20314069055E+03  0.29164615213E+03  0.17704026404E+03 0.  0.
         24    2    5    5    0    0 -0.11822698054E+03 -0.41747951004E+02 -0.18192864082E+03  0.23570985286E+03  0.82101120852E+02 0.  0.
          5    1    5    5  501    0  0.37545958311E+02 -0.35314721251E+02 -0.21212049737E+02  0.55936299275E+02  0.47000000000E+01 0. -1.
        -13    1    6    6    0    0 -0.49244449366E+02  0.66404590177E+01 -0.12364165153E+03  0.13325302804E+03  0.00000000000E+00 0.  1.
         14    1    6    6    0    0 -0.68982531171E+02 -0.48388410022E+02 -0.58286989285E+02  0.10245682482E+03  0.00000000000E+00 0. -1.
         -5    1    3    3    0  503 -0.24081945759E+02  0.55223515060E+02 -0.15272283198E+02  0.62329041074E+02  0.47000000000E+01 0.  1.
         13    1    4    4    0    0  0.11561552157E+03  0.12883222503E+02  0.37688714619E+02  0.12228395422E+03  0.00000000000E+00 0. -1.
        -14    1    4    4    0    0 -0.10852553582E+02  0.89559346917E+01  0.19937176600E+02  0.24402411689E+02  0.00000000000E+00 0.  1.
</event>
<event>
12    1  0.8462562E-002  0.1878820E+03  0.7818608E-02  0.1160576E+00
         21   -1    0    0  503  502  0.00000000000E+00  0.00000000000E+00  0.90707913680E+02  0.90707913680E+02  0.00000000000E+00 0.  1.
         21   -1    0    0  501  503 -0.00000000000E+00 -0.00000000000E+00 -0.28693674046E+04  0.28693674046E+04  0.00000000000E+00 0.  1.
          6    2    1    2  501    0  0.66787731361E+02  0.30579873757E+02 -0.27654078550E+04  0.27717266146E+04  0.17202352235E+03 0.  0.
         24    2    3    3    0    0 -0.51029788836E+01 -0.73278711736E+01 -0.20121756661E+04  0.20141079166E+04  0.87749929806E+02 0.  0.
         -6    2    1    2    0  502 -0.66787731361E+02 -0.30579873757E+02 -0.13251635908E+02  0.18834870360E+03  0.17292743725E+03 0.  0.
        -24    2    5    5    0    0 -0.63080139035E+02  0.15840392445E+02 -0.63024083997E+02  0.12002613087E+03  0.78766839181E+02 0.  0.
          5    1    3    3  501    0  0.71890710244E+02  0.37907744931E+02 -0.75323218887E+03  0.75761869809E+03  0.47000000000E+01 0. -1.
        -13    1    4    4    0    0  0.23587040228E+02 -0.17627869680E+02 -0.17369044982E+04  0.17371540882E+04  0.00000000000E+00 0.  1.
         14    1    4    4    0    0 -0.28690019111E+02  0.10299998507E+02 -0.27527116794E+03  0.27695382840E+03  0.00000000000E+00 0. -1.
         -5    1    5    5    0  502 -0.37075923261E+01 -0.46420266202E+02  0.49772448089E+02  0.68322572726E+02  0.47000000000E+01 0.  1.
         11    1    6    6    0    0  0.13669638711E+02 -0.14209197001E+02 -0.11562544458E+02  0.22857225033E+02  0.00000000000E+00 0. -1.
        -12    1    6    6    0    0 -0.76749777745E+02  0.30049589446E+02 -0.51461539540E+02  0.97168905837E+02  0.00000000000E+00 0.  1.
</event>
<event>
12    1  0.8462562E-002  0.1964450E+03  0.7818608E-02  0.1152790E+00
         21   -1    0    0  501  502  0.00000000000E+00  0.00000000000E+00  0.39367437762E+03  0.39367437762E+03  0.00000000000E+00 0.  1.
         21   -1    0    0  502  503 -0.00000000000E+00 -0.00000000000E+00 -0.42850988999E+03  0.42850988999E+03  0.00000000000E+00 0.  1.
         -6    2    1    2    0  503  0.15939923631E+02 -0.92722947765E+02 -0.37845978170E+03  0.42637082200E+03  0.17236196008E+03 0.  0.
        -24    2    3    3    0    0 -0.46180861828E+02 -0.85316750826E+02 -0.19272184599E+03  0.23032359682E+03  0.80595467367E+02 0.  0.
          6    2    1    2  501    0 -0.15939923631E+02  0.92722947765E+02  0.34362426933E+03  0.39581344561E+03  0.17245004797E+03 0.  0.
         24    2    5    5    0    0 -0.66573650772E+02  0.24573206992E+02  0.21754973245E+03  0.24374424971E+03  0.83949268600E+02 0.  0.
          5    1    5    5  501    0  0.50633727141E+02  0.68149740773E+02  0.12607453688E+03  0.15206919590E+03  0.47000000000E+01 0. -1.
        -11    1    6    6    0    0 -0.49599854508E+02  0.54003778199E+02  0.17150356336E+03  0.18652084568E+03  0.00000000000E+00 0.  1.
         12    1    6    6    0    0 -0.16973796264E+02 -0.29430571207E+02  0.46046169088E+02  0.57223404030E+02  0.00000000000E+00 0. -1.
         -5    1    3    3    0  503  0.62120785459E+02 -0.74061969397E+01 -0.18573793570E+03  0.19604722517E+03  0.47000000000E+01 0.  1.
         13    1    4    4    0    0  0.58440776936E+01 -0.27101467114E+02 -0.66138391621E+01  0.28502379415E+02  0.00000000000E+00 0. -1.
        -14    1    4    4    0    0 -0.52024939522E+02 -0.58215283711E+02 -0.18610800683E+03  0.20182121741E+03  0.00000000000E+00 0.  1.
</event>
<event>
12    1  0.8462562E-002  0.1813682E+03  0.7818608E-02  0.1166594E+00
         21   -1    0    0  501  502  0.00000000000E+00  0.00000000000E+00  0.12292463847E+03  0.12292463847E+03  0.00000000000E+00 0. -1.
         21   -1    0    0  502  503 -0.00000000000E+00 -0.00000000000E+00 -0.35400102193E+03  0.35400102193E+03  0.00000000000E+00 0. -1.
         -6    2    1    2    0  503  0.13166889616E+02 -0.59009203016E+02 -0.23390895626E+03  0.29598617436E+03  0.17099404250E+03 0.  0.
        -24    2    3    3    0    0  0.42598470982E+02 -0.18057712731E+02 -0.22754110958E+03  0.24493833396E+03  0.77968712776E+02 0.  0.
          6    2    1    2  501    0 -0.13166889616E+02  0.59009203016E+02  0.28325727954E+01  0.18093948605E+03  0.17051575036E+03 0.  0.
         24    2    5    5    0    0  0.63447905186E+02  0.59409854123E+02  0.15493887500E+02  0.10314240260E+03  0.53320982966E+02 0.  0.
          5    1    5    5  501    0 -0.76614794802E+02 -0.40065110716E+00 -0.12661314705E+02  0.77797083454E+02  0.47000000000E+01 0. -1.
        -13    1    6    6    0    0  0.29502848817E+02  0.40955210508E+02 -0.16367448858E+02  0.53062611490E+02  0.00000000000E+00 0.  1.
         14    1    6    6    0    0  0.33945056369E+02  0.18454643615E+02  0.31861336358E+02  0.50079791108E+02  0.00000000000E+00 0. -1.
         -5    1    3    3    0  503 -0.29431581366E+02 -0.40951490285E+02 -0.63678466757E+01  0.51047840400E+02  0.47000000000E+01 0.  1.
         13    1    4    4    0    0 -0.11414529905E+02 -0.25478134509E+02 -0.13214240330E+03  0.13505940019E+03  0.00000000000E+00 0. -1.
        -14    1    4    4    0    0  0.54013000887E+02  0.74204217781E+01 -0.95398706283E+02  0.10987893376E+03  0.00000000000E+00 0.  1.
</event>
<event>
12    1  0.8462562E-002  0.1749046E+03  0.7818608E-02  0.1173082E+00
         21   -1    0    0  503  502  0.00000000000E+00  0.00000000000E+00  0.38689751503E+03  0.38689751503E+03  0.00000000000E+00 0. -1.
         21   -1    0    0  501  503 -0.00000000000E+00 -0.00000000000E+00 -0.15448037346E+03  0.15448037346E+03  0.00000000000E+00 0. -1.
          6    2    1    2  501    0  0.12890027816E+02  0.25632448187E+02 -0.73660138493E+02  0.18885140451E+03  0.17151052961E+03 0.  0.
         24    2    3    3    0    0  0.35981950327E+01 -0.35458189099E+02 -0.88118538059E+02  0.12521541282E+03  0.81509463726E+02 0.  0.
         -6    2    1    2    0  502 -0.12890027816E+02 -0.25632448187E+02  0.30607728007E+03  0.35252648397E+03  0.17253534511E+03 0.  0.
        -24    2    5    5    0    0 -0.66071917555E+02  0.18280850892E+02  0.18146078648E+03  0.21002016234E+03  0.80503190989E+02 0.  0.
          5    1    3    3  501    0  0.92918327835E+01  0.61090637286E+02  0.14458399566E+02  0.63635991691E+02  0.47000000000E+01 0. -1.
        -11    1    4    4    0    0 -0.22695022644E+02  0.96201031120E+01 -0.22756980741E+01  0.24754580150E+02  0.00000000000E+00 0.  1.
         12    1    4    4    0    0  0.26293217677E+02 -0.45078292211E+02 -0.85842839985E+02  0.10046083267E+03  0.00000000000E+00 0. -1.
         -5    1    5    5    0  502  0.53181889739E+02 -0.43913299080E+02  0.12461649358E+03  0.14250632163E+03  0.47000000000E+01 0.  1.
         11    1    6    6    0    0 -0.51681815138E+01  0.14956080046E+02  0.12781538352E+03  0.12879117476E+03  0.00000000000E+00 0. -1.
        -12    1    6    6    0    0 -0.60903736041E+02  0.33247708462E+01  0.53645402964E+02  0.81228987585E+02  0.00000000000E+00 0.  1.
</event>
<event>
12    1  0.8462562E-002  0.1951015E+03  0.7818608E-02  0.1154003E+00
         21   -1    0    0  503  502  0.00000000000E+00  0.00000000000E+00  0.23757538561E+02  0.23757538561E+02  0.00000000000E+00 0. -1.
         21   -1    0    0  501  503 -0.00000000000E+00 -0.00000000000E+00 -0.16001044377E+04  0.16001044377E+04  0.00000000000E+00 0. -1.
          6    2    1    2  501    0  0.89894655914E+02 -0.10282496373E+02 -0.79885591926E+03  0.82226555134E+03  0.17251979099E+03 0.  0.
         24    2    3    3    0    0  0.12085324761E+03  0.26084409847E+02 -0.59181802699E+03  0.60973845870E+03  0.79034847099E+02 0.  0.
         -6    2    1    2    0  502 -0.89894655914E+02  0.10282496373E+02 -0.77749097987E+03  0.80159642492E+03  0.17285203431E+03 0.  0.
        -24    2    5    5    0    0 -0.33265352656E+02  0.51826994754E+01 -0.69908860414E+03  0.70463298626E+03  0.81543392291E+02 0.  0.
          5    1    3    3  501    0 -0.30958591695E+02 -0.36366906220E+02 -0.20703789228E+03  0.21252709264E+03  0.47000000000E+01 0. -1.
        -13    1    4    4    0    0  0.71449847646E+02 -0.24977506693E+02 -0.30518870305E+03  0.31443457354E+03  0.00000000000E+00 0.  1.
         14    1    4    4    0    0  0.49403399963E+02  0.51061916540E+02 -0.28662932393E+03  0.29530388516E+03  0.00000000000E+00 0. -1.
         -5    1    5    5    0  502 -0.56629303258E+02  0.50997968977E+01 -0.78402375732E+02  0.96963438658E+02  0.47000000000E+01 0.  1.
         13    1    6    6    0    0 -0.28476182239E+02 -0.10312267344E+02 -0.83365914846E+02  0.88696739347E+02  0.00000000000E+00 0. -1.
        -14    1    6    6    0    0 -0.47891704169E+01  0.15494966819E+02 -0.61572268930E+03  0.61593624691E+03  0.00000000000E+00 0.  1.
</event>
<event>
12    1  0.8462562E-002  0.3062455E+03  0.7818608E-02  0.1082347E+00
         21   -1    0    0  503  502  0.00000000000E+00  0.00000000000E+00  0.71774383131E+02  0.71774383131E+02  0.00000000000E+00 0.  1.
         21   -1    0    0  501  503 -0.00000000000E+00 -0.00000000000E+00 -0.13048606359E+04  0.13048606359E+04  0.00000000000E+00 0. -1.
          6    2    1    2  501    0  0.23767861297E+03 -0.88448273489E+02 -0.57663730266E+03  0.65291413340E+03  0.17167430393E+03 0.  0.
         24    2    3    3    0    0  0.13212203437E+03 -0.38473696583E+02 -0.18433661343E+03  0.24357128151E+03  0.80065753172E+02 0.  0.
         -6    2    1    2    0  502 -0.23767861297E+03  0.88448273489E+02 -0.65644895012E+03  0.72372088564E+03  0.16891558854E+03 0.  0.
        -24    2    5    5    0    0 -0.86319900143E+02  0.96749386373E+02 -0.30715426195E+03  0.34292272702E+03  0.80253891805E+02 0.  0.
          5    1    3    3  501    0  0.10555657860E+03 -0.49974576905E+02 -0.39230068923E+03  0.40934285189E+03  0.47000000000E+01 0. -1.
        -13    1    4    4    0    0 -0.95106480212E+01 -0.57466937245E+01 -0.37077032482E+01  0.11714263866E+02  0.00000000000E+00 0.  1.
         14    1    4    4    0    0  0.14163268239E+03 -0.32727002859E+02 -0.18062891018E+03  0.23185701765E+03  0.00000000000E+00 0. -1.
         -5    1    5    5    0  502 -0.15135871283E+03 -0.83011128839E+01 -0.34929468817E+03  0.38079815862E+03  0.47000000000E+01 0.  1.
         11    1    6    6    0    0 -0.85875963775E+02  0.46752043491E+02 -0.24036764286E+03  0.25949381198E+03  0.00000000000E+00 0. -1.
        -12    1    6    6    0    0 -0.44393636814E+00  0.49997342882E+02 -0.66786619096E+02  0.83428915042E+02  0.00000000000E+00 0.  1.
</event>
<event>
12    1  0.8462562E-002  0.1978247E+03  0.7818608E-02  0.1151989E+00
         21   -1    0    0  503  502  0.00000000000E+00  0.00000000000E+00  0.22619808347E+03  0.22619808347E+03  0.00000000000E+00 0. -1.
         21   -1    0    0  501  503 -0.00000000000E+00 -0.00000000000E+00 -0.19696338669E+03  0.19696338669E+03  0.00000000000E+00 0. -1.
          6    2    1    2  501    0 -0.24947806938E+02 -0.92097875489E+02 -0.61577038782E+02  0.20718670297E+03  0.17329219960E+03 0.  0.
         24    2    3    3    0    0 -0.51636478033E+02 -0.10414595599E+03 -0.43473826917E+01  0.14272923680E+03  0.82704469591E+02 0.  0.
         -6    2    1    2    0  502  0.24947806938E+02  0.92097875489E+02  0.90811735565E+02  0.21597476718E+03  0.17115465814E+03 0.  0.
        -24    2    5    5    0    0 -0.47982114244E+02  0.54338101398E+02  0.77551789983E+02  0.13265316074E+03  0.79546642762E+02 0.  0.
          5    1    3    3  501    0  0.26688671095E+02  0.12048080499E+02 -0.57229656090E+02  0.64457466167E+02  0.47000000000E+01 0. -1.
        -13    1    4    4    0    0 -0.41276672752E+02 -0.39483356610E+01 -0.65170949339E+01  0.41974106237E+02  0.00000000000E+00 0.  1.
         14    1    4    4    0    0 -0.10359805281E+02 -0.10019762033E+03  0.21697122421E+01  0.10075513057E+03  0.00000000000E+00 0. -1.
         -5    1    5    5    0  502  0.72929921183E+02  0.37759774091E+02  0.13259945582E+02  0.83321606441E+02  0.47000000000E+01 0.  1.
         11    1    6    6    0    0 -0.31018467237E+00  0.49456757441E+02  0.11038237630E+02  0.50674547468E+02  0.00000000000E+00 0. -1.
        -12    1    6    6    0    0 -0.47671929572E+02  0.48813439568E+01  0.66513552353E+02  0.81978613275E+02  0.00000000000E+00 0.  1.
</event>
<event>
12    1  0.8462562E-002  0.2073371E+03  0.7818608E-02  0.1143758E+00
         21   -1    0    0  501  502  0.00000000000E+00  0.00000000000E+00  0.16397749679E+04  0.16397749679E+04  0.00000000000E+00 0. -1.
         21   -1    0    0  502  503 -0.00000000000E+00 -0.00000000000E+00 -0.30696099631E+02  0.30696099631E+02  0.00000000000E+00 0. -1.
         -6    2    1    2    0  503  0.11371921235E+03 -0.21060050157E+02  0.11256335359E+04  0.11445695894E+04  0.17208458058E+03 0.  0.
        -24    2    3    3    0    0  0.62673867839E+02  0.80250848905E+01  0.10066470175E+04  0.10117861046E+04  0.79877956422E+02 0.  0.
          6    2    1    2  501    0 -0.11371921235E+03  0.21060050157E+02  0.48344533231E+03  0.52590147806E+03  0.17168980847E+03 0.  0.
         24    2    5    5    0    0 -0.89088773686E+02 -0.30494450857E+02  0.43078495526E+03  0.44805720792E+03  0.79453525788E+02 0.  0.
          5    1    5    5  501    0 -0.24630438666E+02  0.51554501014E+02  0.52660377043E+02  0.77844270143E+02  0.47000000000E+01 0. -1.
        -13    1    6    6    0    0 -0.50245920399E+02  0.16715544900E+02  0.28653305769E+03  0.29138506329E+03  0.00000000000E+00 0.  1.
         14    1    6    6    0    0 -0.38842853287E+02 -0.47209995757E+02  0.14425189757E+03  0.15667214463E+03  0.00000000000E+00 0. -1.
         -5    1    3    3    0  503  0.51045344514E+02 -0.29085135047E+02  0.11898651847E+03  0.13278348487E+03  0.47000000000E+01 0.  1.
         11    1    4    4    0    0 -0.62220656958E-01 -0.22296633129E+02  0.48418141351E+03  0.48469452742E+03  0.00000000000E+00 0. -1.
        -12    1    4    4    0    0  0.62736088496E+02  0.30321718019E+02  0.52246560397E+03  0.52709157716E+03  0.00000000000E+00 0.  1.
</event>
<event>
12    1  0.8462562E-002  0.2088649E+03  0.7818608E-02  0.1142585E+00
         21   -1    0    0  503  502  0.00000000000E+00  0.00000000000E+00  0.74163276717E+03  0.74163276717E+03  0.00000000000E+00 0. -1.
         21   -1    0    0  501  503 -0.00000000000E+00 -0.00000000000E+00 -0.59462167632E+03  0.59462167632E+03  0.00000000000E+00 0. -1.
          6    2    1    2  501    0 -0.68397593441E+02  0.94986620876E+02 -0.56080152094E+03  0.59843369627E+03  0.17298512654E+03 0.  0.
         24    2    3    3    0    0 -0.50584348510E+02  0.52352080810E+02 -0.53391111748E+03  0.54476620611E+03  0.80060110369E+02 0.  0.
         -6    2    1    2    0  502  0.68397593441E+02 -0.94986620876E+02  0.70781261179E+03  0.73782074723E+03  0.17227905473E+03 0.  0.
        -24    2    5    5    0    0  0.77678120116E+02 -0.27458636302E+01  0.45828447513E+03  0.47158613930E+03  0.79544934000E+02 0.  0.
          5    1    3    3  501    0 -0.17813244931E+02  0.42634540066E+02 -0.26890403463E+02  0.53667490159E+02  0.47000000000E+01 0. -1.
        -11    1    4    4    0    0 -0.39517336916E+02  0.34860710660E+02 -0.12929792983E+03  0.13962393679E+03  0.00000000000E+00 0.  1.
         12    1    4    4    0    0 -0.11067011594E+02  0.17491370150E+02 -0.40461318764E+03  0.40514226932E+03  0.00000000000E+00 0. -1.
         -5    1    5    5    0  502 -0.92805266751E+01 -0.92240757246E+02  0.24952813666E+03  0.26623460792E+03  0.47000000000E+01 0.  1.
         11    1    6    6    0    0  0.67200609839E+02 -0.16996166758E+02  0.18226968909E+03  0.19500520816E+03  0.00000000000E+00 0. -1.
        -12    1    6    6    0    0  0.10477510277E+02  0.14250303127E+02  0.27601478604E+03  0.27658093115E+03  0.00000000000E+00 0.  1.
</event>
<event>
12    1  0.8462562E-002  0.2875423E+03  0.7818608E-02  0.1091682E+00
         21   -1    0    0  501  502  0.00000000000E+00  0.00000000000E+00  0.30209121641E+03  0.30209121641E+03  0.00000000000E+00 0. -1.
         21   -1    0    0  502  503 -0.00000000000E+00 -0.00000000000E+00 -0.29956157529E+03  0.29956157529E+03  0.00000000000E+00 0. -1.
         -6    2    1    2    0  503  0.15299623805E+03  0.17204502890E+03 -0.87655190582E+02  0.30060610167E+03  0.17225926709E+03 0.  0.
        -24    2    3    3    0    0  0.36773632668E+02  0.12738829949E+03 -0.14407342809E+02  0.15607494694E+03  0.81066260738E+02 0.  0.
          6    2    1    2  501    0 -0.15299623805E+03 -0.17204502890E+03  0.90184831706E+02  0.30104669003E+03  0.17172205707E+03 0.  0.
         24    2    5    5    0    0 -0.86090309790E+02 -0.30802396632E+02  0.30062486804E+01  0.12202691531E+03  0.80753956248E+02 0.  0.
          5    1    5    5  501    0 -0.66905928260E+02 -0.14124263227E+03  0.87178583025E+02  0.17901977473E+03  0.47000000000E+01 0. -1.
        -11    1    6    6    0    0 -0.19624996418E+02  0.19408419247E+02  0.23492684025E+02  0.36245460747E+02  0.00000000000E+00 0.  1.
         12    1    6    6    0    0 -0.66465313372E+02 -0.50210815880E+02 -0.20486435344E+02  0.85781454558E+02  0.00000000000E+00 0. -1.
         -5    1    3    3    0  503  0.11622260538E+03  0.44656729411E+02 -0.73247847774E+02  0.14453115473E+03  0.47000000000E+01 0.  1.
         13    1    4    4    0    0 -0.52230609106E+01 -0.13347434553E+00  0.17342731002E+02  0.18112661298E+02  0.00000000000E+00 0. -1.
        -14    1    4    4    0    0  0.41996693579E+02  0.12752177383E+03 -0.31750073811E+02  0.13796228564E+03  0.00000000000E+00 0.  1.
</event>
<event>
12    1  0.8462562E-002  0.2147915E+03  0.7818608E-02  0.1139086E+00
         21   -1    0    0  503  502  0.00000000000E+00  0.00000000000E+00  0.63036175899E+02  0.63036175899E+02  0.00000000000E+00 0. -1.
         21   -1    0    0  501  503 -0.00000000000E+00 -0.00000000000E+00 -0.75916770065E+03  0.75916770065E+03  0.00000000000E+00 0. -1.
          6    2    1    2  501    0 -0.11407165711E+03  0.26530787923E+02 -0.44761849604E+03  0.49373150041E+03  0.17231439533E+03 0.  0.
         24    2    3    3    0    0 -0.13935601735E+03  0.50761816706E+02 -0.32851349249E+03  0.36949570244E+03  0.81296357619E+02 0.  0.
         -6    2    1    2    0  502  0.11407165711E+03 -0.26530787923E+02 -0.24851302871E+03  0.32847237614E+03  0.18005318876E+03 0.  0.
        -24    2    5    5    0    0  0.45498106567E+02  0.33264278181E+02 -0.20607598795E+03  0.22796976825E+03  0.79538119909E+02 0.  0.
          5    1    3    3  501    0  0.25284360241E+02 -0.24231028783E+02 -0.11910500354E+03  0.12423579797E+03  0.47000000000E+01 0. -1.
        -11    1    4    4    0    0 -0.14126641714E+02 -0.88663791323E+01 -0.10592123544E+03  0.10722631581E+03  0.00000000000E+00 0.  1.
         12    1    4    4    0    0 -0.12522937564E+03  0.59628195839E+02 -0.22259225705E+03  0.26226938662E+03  0.00000000000E+00 0. -1.
         -5    1    5    5    0  502  0.68573550543E+02 -0.59795066104E+02 -0.42437040757E+02  0.10050260789E+03  0.47000000000E+01 0.  1.
         11    1    6    6    0    0  0.55199459399E+02  0.34443292387E+02 -0.87745512360E+02  0.10923642088E+03  0.00000000000E+00 0. -1.
        -12    1    6    6    0    0 -0.97013528316E+01 -0.11790142057E+01 -0.11833047559E+03  0.11873334736E+03  0.00000000000E+00 0.  1.
</event>
<event>
12    1  0.8462562E-002  0.1934042E+03  0.7818608E-02  0.1156700E+00
         21   -1    0    0  503  502  0.00000000000E+00  0.00000000000E+00  0.28196890198E+02  0.28196890198E+02  0.00000000000E+00 0. -1.
         21   -1    0    0  501  503 -0.00000000000E+00 -0.00000000000E+00 -0.13392492521E+04  0.13392492521E+04  0.00000000000E+00 0.  1.
          6    2    1    2  501    0  0.69033499553E+02  0.33746757493E+02 -0.79889176005E+03  0.82196912522E+03  0.17748445238E+03 0.  0.
         24    2    3    3    0    0  0.92300124004E+02 -0.53292458525E+01 -0.72326986639E+03  0.73360040534E+03  0.80638336715E+02 0.  0.
         -6    2    1    2    0  502 -0.69033499553E+02 -0.33746757493E+02 -0.51216060185E+03  0.54547701707E+03  0.17126653605E+03 0.  0.
        -24    2    5    5    0    0 -0.10323184911E+03 -0.45320764102E+02 -0.46877822533E+03  0.48884129219E+03  0.80634968033E+02 0.  0.
          5    1    3    3  501    0 -0.23266624451E+02  0.39076003345E+02 -0.75621893663E+02  0.88368719873E+02  0.47000000000E+01 0. -1.
        -13    1    4    4    0    0  0.58766928929E+02  0.14332601599E+02 -0.62501752109E+03  0.62793779713E+03  0.00000000000E+00 0.  1.
         14    1    4    4    0    0  0.33533195076E+02 -0.19661847451E+02 -0.98252345299E+02  0.10566260821E+03  0.00000000000E+00 0. -1.
         -5    1    5    5    0  502  0.34198349559E+02  0.11574006609E+02 -0.43382376512E+02  0.56635724887E+02  0.47000000000E+01 0.  1.
         13    1    6    6    0    0 -0.74554368835E+02 -0.66212021519E+02 -0.29251872492E+03  0.30904625889E+03  0.00000000000E+00 0. -1.
        -14    1    6    6    0    0 -0.28677480277E+02  0.20891257416E+02 -0.17625950041E+03  0.17979503329E+03  0.00000000000E+00 0.  1.
</event>
<event>
12    1  0.8462562E-002  0.1849429E+03  0.7818608E-02  0.1164253E+00
         21   -1    0    0  503  502  0.00000000000E+00  0.00000000000E+00  0.47399000569E+02  0.47399000569E+02  0.00000000000E+00 0.  1.
         21   -1    0    0  501  503 -0.00000000000E+00 -0.00000000000E+00 -0.13114036348E+04  0.13114036348E+04  0.00000000000E+00 0.  1.
          6    2    1    2  501    0  0.40744934373E+02 -0.37915083682E+02 -0.10903092087E+04  0.11050823713E+04  0.17127513991E+03 0.  0.
         24    2    3    3    0    0  0.40825304258E+02  0.37807621698E+02 -0.75866640728E+03  0.76487218289E+03  0.79740936158E+02 0.  0.
         -6    2    1    2    0  502 -0.40744934373E+02  0.37915083682E+02 -0.17369542553E+03  0.25372026406E+03  0.17636940862E+03 0.  0.
        -24    2    5    5    0    0 -0.53041922999E+02 -0.23629808880E+02 -0.16239976777E+03  0.18977754271E+03  0.79183443227E+02 0.  0.
          5    1    3    3  501    0 -0.80369884668E-01 -0.75722705379E+02 -0.33164280144E+03  0.34021018843E+03  0.47000000000E+01 0. -1.
        -11    1    4    4    0    0  0.50612314193E+02  0.56089517590E+02 -0.54703336209E+03  0.55222562379E+03  0.00000000000E+00 0.  1.
         12    1    4    4    0    0 -0.97870099351E+01 -0.18281895892E+02 -0.21163304518E+03  0.21264655910E+03  0.00000000000E+00 0. -1.
         -5    1    5    5    0  502  0.12296988626E+02  0.61544892561E+02 -0.11295657759E+02  0.63942721352E+02  0.47000000000E+01 0.  1.
         13    1    6    6    0    0 -0.37197456155E+02 -0.51927579195E+02 -0.89172628172E+02  0.10968993500E+03  0.00000000000E+00 0. -1.
        -14    1    6    6    0    0 -0.15844466844E+02  0.28297770315E+02 -0.73227139599E+02  0.80087607707E+02  0.00000000000E+00 0.  1.
</event>
<event>
12    1  0.8462562E-002  0.1974823E+03  0.7818608E-02  0.1152848E+00
         21   -1    0    0  501  502  0.00000000000E+00  0.00000000000E+00  0.10085882645E+04  0.10085882645E+04  0.00000000000E+00 0.  1.
         21   -1    0    0  502  503 -0.00000000000E+00 -0.00000000000E+00 -0.40028773431E+02  0.40028773431E+02  0.00000000000E+00 0.  1.
         -6    2    1    2    0  503  0.40074034338E+02  0.77458057424E+02  0.36578419837E+03  0.41568898912E+03  0.17718232702E+03 0.  0.
        -24    2    3    3    0    0 -0.46576549504E+01 -0.12705182555E+02  0.24726644398E+03  0.26012909076E+03  0.79645050878E+02 0.  0.
          6    2    1    2  501    0 -0.40074034338E+02 -0.77458057424E+02  0.60277529265E+03  0.63292804876E+03  0.17220389832E+03 0.  0.
         24    2    5    5    0    0 -0.23470711650E+02 -0.46625031812E+01  0.49267614948E+03  0.49981616212E+03  0.80708081382E+02 0.  0.
          5    1    5    5  501    0 -0.16603322688E+02 -0.72795554243E+02  0.11009914316E+03  0.13311188665E+03  0.47000000000E+01 0. -1.
        -11    1    6    6    0    0 -0.50363991856E+02  0.11869150095E+02  0.33954105862E+03  0.34346111700E+03  0.00000000000E+00 0.  1.
         12    1    6    6    0    0  0.26893280206E+02 -0.16531653276E+02  0.15313509086E+03  0.15635504512E+03  0.00000000000E+00 0. -1.
         -5    1    3    3    0  503  0.44731689288E+02  0.90163239979E+02  0.11851775439E+03  0.15555989836E+03  0.47000000000E+01 0.  1.
         13    1    4    4    0    0 -0.37898317403E+02  0.58004942455E+01  0.81712049090E+02  0.90259554408E+02  0.00000000000E+00 0. -1.
        -14    1    4    4    0    0  0.33240662452E+02 -0.18505676800E+02  0.16555439489E+03  0.16986953636E+03  0.00000000000E+00 0.  1.
</event>
<event>
12    1  0.8462562E-002  0.1793993E+03  0.7818608E-02  0.1168446E+00
         21   -1    0    0  503  502  0.00000000000E+00  0.00000000000E+00  0.94983502370E+02  0.94983502370E+02  0.00000000000E+00 0. -1.
         21   -1    0    0  501  503 -0.00000000000E+00 -0.00000000000E+00 -0.33837050337E+03  0.33837050337E+03  0.00000000000E+00 0. -1.
          6    2    1    2  501    0  0.41636803367E+02  0.26861453827E+02 -0.12160095513E+03  0.21652238451E+03  0.17216268356E+03 0.  0.
         24    2    3    3    0    0 -0.30358672103E+02  0.40022614650E+02 -0.10477763674E+03  0.14127825727E+03  0.80360028381E+02 0.  0.
         -6    2    1    2    0  502 -0.41636803367E+02 -0.26861453827E+02 -0.12178604587E+03  0.21683162123E+03  0.17242085112E+03 0.  0.
        -24    2    5    5    0    0 -0.15693362022E+02 -0.43324649708E+02 -0.14887850303E+03  0.17559825850E+03  0.80911265210E+02 0.  0.
          5    1    3    3  501    0  0.71995475470E+02 -0.13161160824E+02 -0.16823318389E+02  0.75244127239E+02  0.47000000000E+01 0. -1.
        -11    1    4    4    0    0  0.13634739968E+02  0.16306052912E+02 -0.84851989833E+02  0.87473731338E+02  0.00000000000E+00 0.  1.
         12    1    4    4    0    0 -0.43993412071E+02  0.23716561738E+02 -0.19925646908E+02  0.53804525934E+02  0.00000000000E+00 0. -1.
         -5    1    5    5    0  502 -0.25943441345E+02  0.16463195881E+02  0.27092457161E+02  0.41233362735E+02  0.47000000000E+01 0.  1.
         11    1    6    6    0    0 -0.18110758270E+02 -0.59453347504E+02 -0.64168128938E+02  0.89332238671E+02  0.00000000000E+00 0. -1.
        -12    1    6    6    0    0  0.24173962483E+01  0.16128697796E+02 -0.84710374095E+02  0.86266019826E+02  0.00000000000E+00 0.  1.
</event>
<event>
12    1  0.8462562E-002  0.3317383E+03  0.7818608E-02  0.1070795E+00
         21   -1    0    0  501  502  0.00000000000E+00  0.00000000000E+00  0.84131187407E+03  0.84131187407E+03  0.00000000000E+00 0.  1.
         21   -1    0    0  502  503 -0.00000000000E+00 -0.00000000000E+00 -0.25815383531E+03  0.25815383531E+03  0.00000000000E+00 0.  1.
         -6    2    1    2    0  503 -0.26387037959E+03 -0.10371200159E+03 -0.95953198239E+02  0.34533654840E+03  0.17223982962E+03 0.  0.
        -24    2    3    3    0    0 -0.23798667060E+03 -0.13715798001E+03 -0.86152972187E+02  0.30167037964E+03  0.90181575020E+02 0.  0.
          6    2    1    2  501    0  0.26387037959E+03  0.10371200159E+03  0.67911123699E+03  0.75412916098E+03  0.16472693384E+03 0.  0.
         24    2    5    5    0    0  0.27822938969E+03  0.11208787404E+03  0.64695853384E+03  0.71762953454E+03  0.80383577606E+02 0.  0.
          5    1    5    5  501    0 -0.14359010094E+02 -0.83758724459E+01  0.32152703148E+02  0.36499626435E+02  0.47000000000E+01 0. -1.
        -13    1    6    6    0    0  0.11932303921E+03  0.91349767206E+02  0.31640069952E+03  0.35027442144E+03  0.00000000000E+00 0.  1.
         14    1    6    6    0    0  0.15890635047E+03  0.20738106832E+02  0.33055783432E+03  0.36735511311E+03  0.00000000000E+00 0. -1.
         -5    1    3    3    0  503 -0.25883708992E+02  0.33445978416E+02 -0.98002260514E+01  0.43666168759E+02  0.47000000000E+01 0.  1.
         13    1    4    4    0    0 -0.40587965258E+02  0.11145378424E+02 -0.95667845296E+01  0.43163940393E+02  0.00000000000E+00 0. -1.
        -14    1    4    4    0    0 -0.19739870534E+03 -0.14830335843E+03 -0.76586187658E+02  0.25850643925E+03  0.00000000000E+00 0.  1.
</event>
<event>
12    1  0.8462562E-002  0.1905388E+03  0.7818608E-02  0.1161348E+00
         21   -1    0    0  503  502  0.00000000000E+00  0.00000000000E+00  0.31323625333E+03  0.31323625333E+03  0.00000000000E+00 0.  1.
         21   -1    0    0  501  503 -0.00000000000E+00 -0.00000000000E+00 -0.18621763647E+03  0.18621763647E+03  0.00000000000E+00 0.  1.
          6    2    1    2  501    0  0.59816860762E+01 -0.64786138058E+02  0.22455589177E+03  0.28540124155E+03  0.16369329826E+03 0.  0.
         24    2    3    3    0    0  0.19163332243E+02 -0.10413909715E+03  0.18410010668E+03  0.22725339780E+03  0.80864532878E+02 0.  0.
         -6    2    1    2    0  502 -0.59816860762E+01  0.64786138058E+02 -0.97537274911E+02  0.21405264825E+03  0.17908654883E+03 0.  0.
        -24    2    5    5    0    0 -0.14719348342E+01 -0.14049117250E+01  0.18173123296E+02  0.80588873462E+02  0.78486710636E+02 0.  0.
          5    1    3    3  501    0 -0.13181646167E+02  0.39352959088E+02  0.40455785096E+02  0.58147843746E+02  0.47000000000E+01 0. -1.
        -13    1    4    4    0    0  0.27726583907E+02 -0.17027003046E+02  0.10266581825E+03  0.10769843325E+03  0.00000000000E+00 0.  1.
         14    1    4    4    0    0 -0.85632516634E+01 -0.87112094100E+02  0.81434288430E+02  0.11955496455E+03  0.00000000000E+00 0. -1.
         -5    1    5    5    0  502 -0.45097512420E+01  0.66191049783E+02 -0.11571039821E+03  0.13346377479E+03  0.47000000000E+01 0.  1.
         13    1    6    6    0    0  0.33952183111E+02  0.16620227751E+02  0.15159958888E+02  0.40728455187E+02  0.00000000000E+00 0. -1.
        -14    1    6    6    0    0 -0.35424117945E+02 -0.18025139476E+02  0.30131644079E+01  0.39860418275E+02  0.00000000000E+00 0.  1.
</event>
<event>
12    1  0.8462562E-002  0.1767929E+03  0.7818608E-02  0.1170978E+00
         21   -1    0    0  501  502  0.00000000000E+00  0.00000000000E+00  0.60891966069E+03  0.60891966069E+03  0.00000000000E+00 0.  1.
         21   -1    0    0  502  503 -0.00000000000E+00 -0.00000000000E+00 -0.57564878736E+02  0.57564878736E+02  0.00000000000E+00 0.  1.
         -6    2    1    2    0  503 -0.94490146342E+01 -0.36821201756E+02  0.38580642107E+03  0.42438464505E+03  0.17265760233E+03 0.  0.
        -24    2    3    3    0    0 -0.48905729661E+02 -0.66033834977E+02  0.18494597838E+03  0.21755810484E+03  0.79839065035E+02 0.  0.
          6    2    1    2  501    0  0.94490146342E+01  0.36821201756E+02  0.16554836088E+03  0.24209989437E+03  0.17251380898E+03 0.  0.
         24    2    5    5    0    0  0.11143529771E+02  0.91304113054E+02  0.12166840902E+03  0.17196574306E+03  0.79425409760E+02 0.  0.
          5    1    5    5  501    0 -0.16945151368E+01 -0.54482911298E+02  0.43879951861E+02  0.70134151312E+02  0.47000000000E+01 0. -1.
        -13    1    6    6    0    0 -0.84202866369E+00 -0.12989403519E+02  0.26854322659E+01  0.13290792396E+02  0.00000000000E+00 0.  1.
         14    1    6    6    0    0  0.11985558435E+02  0.10429351657E+03  0.11898297675E+03  0.15867495066E+03  0.00000000000E+00 0. -1.
         -5    1    3    3    0  503  0.39456715027E+02  0.29212633221E+02  0.20086044269E+03  0.20682654022E+03  0.47000000000E+01 0.  1.
         13    1    4    4    0    0 -0.61639029338E+02 -0.40954533455E+02  0.80310080049E+02  0.10920784178E+03  0.00000000000E+00 0. -1.
        -14    1    4    4    0    0  0.12733299676E+02 -0.25079301522E+02  0.10463589833E+03  0.10835026306E+03  0.00000000000E+00 0.  1.
</event>
<event>
12    1  0.8462562E-002  0.2948483E+03  0.7818608E-02  0.1087892E+00
         21   -1    0    0  503  502  0.00000000000E+00  0.00000000000E+00  0.31598301183E+03  0.31598301183E+03  0.00000000000E+00 0. -1.
         21   -1    0    0  501  503 -0.00000000000E+00 -0.00000000000E+00 -0.27591709049E+03  0.27591709049E+03  0.00000000000E+00 0.  1.
          6    2    1    2  501    0  0.22717086100E+03 -0.74965225668E+02  0.10424063133E+01  0.29448061942E+03  0.17173049659E+03 0.  0.
         24    2    3    3    0    0  0.80612693009E+02  0.20913549907E+02 -0.24254106592E+02  0.11746638334E+03  0.79210521301E+02 0.  0.
         -6    2    1    2    0  502 -0.22717086100E+03  0.74965225668E+02  0.39023515022E+02  0.29741948290E+03  0.17236336310E+03 0.  0.
        -24    2    5    5    0    0 -0.12677377042E+03  0.29118713045E+02  0.88060832481E+02  0.17655498431E+03  0.80606848047E+02 0.  0.
          5    1    3    3  501    0  0.14655816799E+03 -0.95878775575E+02  0.25296512905E+02  0.17701423608E+03  0.47000000000E+01 0. -1.
        -13    1    4    4    0    0 -0.81824801830E+01  0.36684582675E+01 -0.25471569556E+02  0.27003914969E+02  0.00000000000E+00 0.  1.
         14    1    4    4    0    0  0.88795173192E+02  0.17245091639E+02  0.12174629646E+01  0.90462468372E+02  0.00000000000E+00 0. -1.
         -5    1    5    5    0  502 -0.10039709058E+03  0.45846512624E+02 -0.49037317459E+02  0.12086449859E+03  0.47000000000E+01 0.  1.
         13    1    6    6    0    0 -0.13155329113E+03  0.17336760268E+02  0.59755360420E+02  0.14552503140E+03  0.00000000000E+00 0. -1.
        -14    1    6    6    0    0  0.47795207084E+01  0.11781952777E+02  0.28305472061E+02  0.31029952917E+02  0.00000000000E+00 0.  1.
</event>
<event>
12    1  0.8462562E-002  0.2416842E+03  0.7818608E-02  0.1118678E+00
         21   -1    0    0  503  502  0.00000000000E+00  0.00000000000E+00  0.44393280935E+03  0.44393280935E+03  0.00000000000E+00 0.  1.
         21   -1    0    0  501  503 -0.00000000000E+00 -0.00000000000E+00 -0.16847550997E+03  0.16847550997E+03  0.00000000000E+00 0.  1.
          6    2    1    2  501    0  0.16773161925E+03  0.27348295187E+02  0.28103854441E+03  0.37065971043E+03  0.17182587742E+03 0.  0.
         24    2    3    3    0    0  0.15151116283E+03  0.77763556809E+02  0.20688437181E+03  0.27941425507E+03  0.79173097748E+02 0.  0.
         -6    2    1    2    0  502 -0.16773161925E+03 -0.27348295187E+02 -0.55812450278E+01  0.24174860889E+03  0.17184124726E+03 0.  0.
        -24    2    5    5    0    0 -0.12543003376E+03  0.39334519316E+02 -0.35769104698E+02  0.15707618861E+03  0.78189528701E+02 0.  0.
          5    1    3    3  501    0  0.16220456416E+02 -0.50415261621E+02  0.74154172596E+02  0.91245455362E+02  0.47000000000E+01 0. -1.
        -13    1    4    4    0    0  0.78141929651E+02 -0.35721010993E+01  0.89210165460E+02  0.11864811291E+03  0.00000000000E+00 0.  1.
         14    1    4    4    0    0  0.73369233184E+02  0.81335657908E+02  0.11767420635E+03  0.16076614216E+03  0.00000000000E+00 0. -1.
         -5    1    5    5    0  502 -0.42301585491E+02 -0.66682814504E+02  0.30187859670E+02  0.84672420283E+02  0.47000000000E+01 0.  1.
         11    1    6    6    0    0 -0.10577818756E+02  0.35096878228E+02 -0.17800345428E+02  0.40749643045E+02  0.00000000000E+00 0. -1.
        -12    1    6    6    0    0 -0.11485221500E+03  0.42376410888E+01 -0.17968759270E+02  0.11632654556E+03  0.00000000000E+00 0.  1.
</event>
<event>
12    1  0.8462562E-002  0.1958362E+03  0.7818608E-02  0.1153349E+00
         21   -1    0    0  501  502  0.00000000000E+00  0.00000000000E+00  0.20653543160E+04  0.20653543160E+04  0.00000000000E+00 0.  1.
         21   -1    0    0  502  503 -0.00000000000E+00 -0.00000000000E+00 -0.18607964093E+02  0.18607964093E+02  0.00000000000E+00 0.  1.
         -6    2    1    2    0  503 -0.93036038589E+02  0.11507220367E+02  0.96478245226E+03  0.98445770945E+03  0.17194092274E+03 0.  0.
        -24    2    3    3    0    0 -0.65126571408E+02  0.64519382520E+02  0.42240480383E+03  0.43876106184E+03  0.75373934931E+02 0.  0.
          6    2    1    2  501    0  0.93036038589E+02 -0.11507220367E+02  0.10819638996E+04  0.10995045706E+04  0.17168663350E+03 0.  0.
         24    2    5    5    0    0  0.32729084594E+02  0.29189423545E+02  0.88084942218E+03  0.88558339691E+03  0.80243584734E+02 0.  0.
          5    1    5    5  501    0  0.60306953996E+02 -0.40696643912E+02  0.20111447744E+03  0.21392117371E+03  0.47000000000E+01 0. -1.
        -11    1    6    6    0    0  0.23376945635E+02 -0.15479208760E+02  0.11473920710E+03  0.11811508430E+03  0.00000000000E+00 0.  1.
         12    1    6    6    0    0  0.93521389587E+01  0.44668632304E+02  0.76611021508E+03  0.76746831261E+03  0.00000000000E+00 0. -1.
         -5    1    3    3    0  503 -0.27909467181E+02 -0.53012162152E+02  0.54237764843E+03  0.54569664761E+03  0.47000000000E+01 0.  1.
         13    1    4    4    0    0 -0.27878696088E+02  0.52338511458E+02  0.36154086057E+03  0.36637185391E+03  0.00000000000E+00 0. -1.
        -14    1    4    4    0    0 -0.37247875320E+02  0.12180871062E+02  0.60863943256E+02  0.72389207927E+02  0.00000000000E+00 0.  1.
</event>
<event>
12    1  0.8462562E-002  0.2427378E+03  0.7818608E-02  0.1118107E+00
         21   -1    0    0  501  502  0.00000000000E+00  0.00000000000E+00  0.46802236174E+03  0.46802236174E+03  0.00000000000E+00 0.  1.
         21   -1    0    0  502  503 -0.00000000000E+00 -0.00000000000E+00 -0.12579408350E+03  0.12579408350E+03  0.00000000000E+00 0. -1.
         -6    2    1    2    0  503  0.54993342519E+02  0.16251433514E+03  0.15705763634E+03  0.28911715070E+03  0.17171618692E+03 0.  0.
        -24    2    3    3    0    0  0.60809801249E+02  0.38387355630E+02  0.11831968607E+03  0.15887101055E+03  0.77903972172E+02 0.  0.
          6    2    1    2  501    0 -0.54993342519E+02 -0.16251433514E+03  0.18517064190E+03  0.30469929454E+03  0.17064089962E+03 0.  0.
         24    2    5    5    0    0 -0.15628865815E+02 -0.42602476081E+02  0.14326265581E+03  0.17163244943E+03  0.82911258191E+02 0.  0.
          5    1    5    5  501    0 -0.39364476704E+02 -0.11991185906E+03  0.41907986096E+02  0.13306684511E+03  0.47000000000E+01 0. -1.
        -11    1    6    6    0    0 -0.23439415396E+02  0.17366353166E+02  0.74786536282E+02  0.80274668641E+02  0.00000000000E+00 0.  1.
         12    1    6    6    0    0  0.78105495807E+01 -0.59968829247E+02  0.68476119524E+02  0.91357780791E+02  0.00000000000E+00 0. -1.
         -5    1    3    3    0  503 -0.58164587300E+01  0.12412697951E+03  0.38737950268E+02  0.13024614015E+03  0.47000000000E+01 0.  1.
         13    1    4    4    0    0  0.47365333035E+02  0.58437960900E+02  0.61596646990E+02  0.97224569776E+02  0.00000000000E+00 0. -1.
        -14    1    4    4    0    0  0.13444468214E+02 -0.20050605270E+02  0.56723039080E+02  0.61646440771E+02  0.00000000000E+00 0.  1.
</event>
<event>
12    1  0.8462562E-002  0.2692070E+03  0.7818608E-02  0.1102320E+00
         21   -1    0    0  503  502  0.00000000000E+00  0.00000000000E+00  0.40059671808E+03  0.40059671808E+03  0.00000000000E+00 0. -1.
         21   -1    0    0  501  503 -0.00000000000E+00 -0.00000000000E+00 -0.19609196820E+03  0.19609196820E+03  0.00000000000E+00 0.  1.
          6    2    1    2  501    0  0.20061815543E+03 -0.21426065945E+02  0.11441459306E+02  0.26540960946E+03  0.17205996981E+03 0.  0.
         24    2    3    3    0    0  0.11139050328E+03 -0.28633603911E+02  0.73171238096E+02  0.15656946016E+03  0.77021024884E+02 0.  0.
         -6    2    1    2    0  502 -0.20061815543E+03  0.21426065945E+02  0.19306329058E+03  0.33127907681E+03  0.17822926801E+03 0.  0.
        -24    2    5    5    0    0 -0.13362542294E+03 -0.17887932191E+02  0.19868340721E+03  0.25325797475E+03  0.80552924821E+02 0.  0.
          5    1    3    3  501    0  0.89227652150E+02  0.72075379657E+01 -0.61729778790E+02  0.10884014931E+03  0.47000000000E+01 0. -1.
        -11    1    4    4    0    0  0.11736119567E+03 -0.13379542824E+02  0.75254181083E+02  0.14005661065E+03  0.00000000000E+00 0.  1.
         12    1    4    4    0    0 -0.59706923917E+01 -0.15254061087E+02 -0.20829429872E+01  0.16512849505E+02  0.00000000000E+00 0. -1.
         -5    1    5    5    0  502 -0.66992732497E+02  0.39313998136E+02 -0.56201166356E+01  0.78021102068E+02  0.47000000000E+01 0.  1.
         13    1    6    6    0    0 -0.11526712770E+03  0.17863667184E+02  0.14182792247E+03  0.18363218924E+03  0.00000000000E+00 0. -1.
        -14    1    6    6    0    0 -0.18358295240E+02 -0.35751599375E+02  0.56855484744E+02  0.69625785507E+02  0.00000000000E+00 0.  1.
</event>
<event>
12    1  0.8462562E-002  0.2010847E+03  0.7818608E-02  0.1148974E+00
         21   -1    0    0  501  502  0.00000000000E+00  0.00000000000E+00  0.29806592368E+03  0.29806592368E+03  0.00000000000E+00 0. -1.
         21   -1    0    0  502  503 -0.00000000000E+00 -0.00000000000E+00 -0.18658500030E+03  0.18658500030E+03  0.00000000000E+00 0. -1.
         -6    2    1    2    0  503 -0.20091875310E+02  0.10297874402E+03 -0.71517484422E+02  0.21276220814E+03  0.17071819312E+03 0.  0.
        -24    2    3    3    0    0  0.14650741301E+02  0.13135544269E+03 -0.44758215516E+02  0.16031761921E+03  0.78927464342E+02 0.  0.
          6    2    1    2  501    0  0.20091875310E+02 -0.10297874402E+03  0.18299840780E+03  0.27188871585E+03  0.17154227285E+03 0.  0.
         24    2    5    5    0    0  0.22960170510E+02 -0.12072075415E+02  0.21051263501E+02  0.86089854007E+02  0.79343574618E+02 0.  0.
          5    1    5    5  501    0 -0.28682951995E+01 -0.90906668603E+02  0.16194714430E+03  0.18579886184E+03  0.47000000000E+01 0. -1.
        -11    1    6    6    0    0  0.18237660274E+02  0.32357892630E+02  0.11063021642E+01  0.37160050756E+02  0.00000000000E+00 0.  1.
         12    1    6    6    0    0  0.47225102356E+01 -0.44429968045E+02  0.19944961337E+02  0.48929803250E+02  0.00000000000E+00 0. -1.
         -5    1    3    3    0  503 -0.34742616611E+02 -0.28376698670E+02 -0.26759268906E+02  0.52444588937E+02  0.47000000000E+01 0.  1.
         13    1    4    4    0    0 -0.19709371214E+02  0.56650762532E+02 -0.49764445296E+02  0.77937591859E+02  0.00000000000E+00 0. -1.
        -14    1    4    4    0    0  0.34360112515E+02  0.74704680155E+02  0.50062297803E+01  0.82380027347E+02  0.00000000000E+00 0.  1.
</event>
<event>
12    1  0.8462562E-002  0.2003448E+03  0.7818608E-02  0.1149905E+00
         21   -1    0    0  503  502  0.00000000000E+00  0.00000000000E+00  0.72913823411E+02  0.72913823411E+02  0.00000000000E+00 0. -1.
         21   -1    0    0  501  503 -0.00000000000E+00 -0.00000000000E+00 -0.56156612376E+03  0.56156612376E+03  0.00000000000E+00 0.  1.
          6    2    1    2  501    0 -0.42197749723E+02 -0.92552163173E+02 -0.30078830020E+03  0.36140233974E+03  0.17260213395E+03 0.  0.
         24    2    3    3    0    0 -0.32798214986E+02 -0.41339146405E+02 -0.29536502342E+03  0.30884164843E+03  0.73198489180E+02 0.  0.
         -6    2    1    2    0  502  0.42197749723E+02  0.92552163173E+02 -0.18786400015E+03  0.27307760743E+03  0.17009392740E+03 0.  0.
        -24    2    5    5    0    0  0.36853808286E+02  0.10003737178E+02 -0.17012268154E+03  0.18834482316E+03  0.71230384610E+02 0.  0.
          5    1    3    3  501    0 -0.93995347366E+01 -0.51213016767E+02 -0.54232767847E+01  0.52560691308E+02  0.47000000000E+01 0. -1.
        -13    1    4    4    0    0  0.20896493003E+02 -0.10686107456E+02 -0.42736135396E+02  0.48756882396E+02  0.00000000000E+00 0.  1.
         14    1    4    4    0    0 -0.53694707989E+02 -0.30653038949E+02 -0.25262888802E+03  0.26008476604E+03  0.00000000000E+00 0. -1.
         -5    1    5    5    0  502  0.53439414370E+01  0.82548425995E+02 -0.17741318603E+02  0.84732784269E+02  0.47000000000E+01 0.  1.
         13    1    6    6    0    0 -0.16923456738E+02 -0.95691578417E+01 -0.73670574340E+02  0.76192687925E+02  0.00000000000E+00 0. -1.
        -14    1    6    6    0    0  0.53777265024E+02  0.19572895020E+02 -0.96452107203E+02  0.11215213523E+03  0.00000000000E+00 0.  1.
</event>
<event>
12    1  0.8462562E-002  0.3147429E+03  0.7818608E-02  0.1078230E+00
         21   -1    0    0  501  502  0.00000000000E+00  0.00000000000E+00  0.82134594814E+03  0.82134594814E+03  0.00000000000E+00 0. -1.
         21   -1    0    0  502  503 -0.00000000000E+00 -0.00000000000E+00 -0.12338741461E+03  0.12338741461E+03  0.00000000000E+00 0. -1.
         -6    2    1    2    0  503 -0.32624460137E+02  0.26115857996E+03  0.42589602980E+03  0.52957580003E+03  0.17261210994E+03 0.  0.
        -24    2    3    3    0    0 -0.87066693913E+02  0.14828856748E+03  0.25756034418E+03  0.31966489134E+03  0.79235114860E+02 0.  0.
          6    2    1    2  501    0  0.32624460137E+02 -0.26115857996E+03  0.27206250373E+03  0.41515756272E+03  0.17049820135E+03 0.  0.
         24    2    5    5    0    0  0.33655488335E+02 -0.14744176999E+03  0.73715944390E+02  0.18647432440E+03  0.80416825160E+02 0.  0.
          5    1    5    5  501    0 -0.10310281981E+01 -0.11371680997E+03  0.19834655934E+03  0.22868323833E+03  0.47000000000E+01 0. -1.
        -13    1    6    6    0    0 -0.82830174366E+01  0.24704280751E+01  0.20019079440E+02  0.21805387737E+02  0.00000000000E+00 0.  1.
         14    1    6    6    0    0  0.41938505771E+02 -0.14991219806E+03  0.53696864950E+02  0.16466893666E+03  0.00000000000E+00 0. -1.
         -5    1    3    3    0  503  0.54442233776E+02  0.11287001248E+03  0.16833568562E+03  0.20991090870E+03  0.47000000000E+01 0.  1.
         13    1    4    4    0    0 -0.38823272261E+02  0.10610340899E+03  0.10520707207E+03  0.15438169543E+03  0.00000000000E+00 0. -1.
        -14    1    4    4    0    0 -0.48243421651E+02  0.42185158487E+02  0.15235327210E+03  0.16528319591E+03  0.00000000000E+00 0.  1.
</event>
<event>
12    1  0.8462562E-002  0.1741186E+03  0.7818608E-02  0.1173712E+00
         21   -1    0    0  501  502  0.00000000000E+00  0.00000000000E+00  0.43560922484E+03  0.43560922484E+03  0.00000000000E+00 0.  1.
         21   -1    0    0  502  503 -0.00000000000E+00 -0.00000000000E+00 -0.14151047521E+03  0.14151047521E+03  0.00000000000E+00 0.  1.
         -6    2    1    2    0  503  0.15507481625E+02 -0.16182426551E+02 -0.58788536055E+02  0.18377535094E+03  0.17267001688E+03 0.  0.
        -24    2    3    3    0    0 -0.14106285507E+02  0.23199475538E+02  0.24235386582E+02  0.87116305087E+02  0.79149818024E+02 0.  0.
          6    2    1    2  501    0 -0.15507481625E+02  0.16182426551E+02  0.35288728568E+03  0.39334434910E+03  0.17230202454E+03 0.  0.
         24    2    5    5    0    0 -0.93310536178E+01 -0.43987717728E+01  0.36104154167E+03  0.36988553673E+03  0.79736426516E+02 0.  0.
          5    1    5    5  501    0 -0.61764280069E+01  0.20581198324E+02 -0.81542559898E+01  0.23458812376E+02  0.47000000000E+01 0. -1.
        -13    1    6    6    0    0  0.31607661189E+02 -0.18274483554E+02  0.14192289094E+03  0.14654387728E+03  0.00000000000E+00 0.  1.
         14    1    6    6    0    0 -0.40938714807E+02  0.13875711781E+02  0.21911865073E+03  0.22334165944E+03  0.00000000000E+00 0. -1.
         -5    1    3    3    0  503  0.29613767132E+02 -0.39381902089E+02 -0.83023922637E+02  0.96659045857E+02  0.47000000000E+01 0.  1.
         11    1    4    4    0    0 -0.17718071306E+02 -0.36807959643E+01 -0.25025321221E+02  0.30882762376E+02  0.00000000000E+00 0. -1.
        -12    1    4    4    0    0  0.36117857992E+01  0.26880271503E+02  0.49260707803E+02  0.56233542712E+02  0.00000000000E+00 0.  1.
</event>
<event>
12    1  0.8462562E-002  0.1777573E+03  0.7818608E-02  0.1171034E+00
         21   -1    0    0  501  502  0.00000000000E+00  0.00000000000E+00  0.10811439828E+03  0.10811439828E+03  0.00000000000E+00 0.  1.
         21   -1    0    0  502  503 -0.00000000000E+00 -0.00000000000E+00 -0.30890262094E+03  0.30890262094E+03  0.00000000000E+00 0.  1.
         -6    2    1    2    0  503 -0.21326024655E+02  0.40955346054E+02 -0.15898534414E+03  0.23848270810E+03  0.17165524377E+03 0.  0.
        -24    2    3    3    0    0 -0.53138697565E+02  0.48845063599E+02 -0.38438866667E+02  0.11347136049E+03  0.78667920805E+02 0.  0.
          6    2    1    2  501    0  0.21326024655E+02 -0.40955346054E+02 -0.41802878523E+02  0.17853431112E+03  0.16731670537E+03 0.  0.
         24    2    5    5    0    0  0.28720571517E+02 -0.39624066532E+00 -0.84077752701E+02  0.11929770639E+03  0.79610589848E+02 0.  0.
          5    1    5    5  501    0 -0.73945468619E+01 -0.40559105389E+02  0.42274874178E+02  0.59236604731E+02  0.47000000000E+01 0. -1.
        -11    1    6    6    0    0 -0.11209423431E+02  0.24991340944E+02 -0.60601118662E+01  0.28052508830E+02  0.00000000000E+00 0.  1.
         12    1    6    6    0    0  0.39929994948E+02 -0.25387581609E+02 -0.78017640835E+02  0.91245197561E+02  0.00000000000E+00 0. -1.
         -5    1    3    3    0  503  0.31812672909E+02 -0.78897175452E+01 -0.12054647747E+03  0.12501134761E+03  0.47000000000E+01 0.  1.
         11    1    4    4    0    0 -0.16867320269E+02  0.50496243524E+02 -0.52277665310E+02  0.74614552155E+02  0.00000000000E+00 0. -1.
        -12    1    4    4    0    0 -0.36271377295E+02 -0.16511799242E+01  0.13838798643E+02  0.38856808334E+02  0.00000000000E+00 0.  1.
</event>
<event>
12    1  0.8462562E-002  0.2114001E+03  0.7818608E-02  0.1140626E+00
         21   -1    0    0  501  502  0.00000000000E+00  0.00000000000E+00  0.60547598665E+02  0.60547598665E+02  0.00000000000E+00 0. -1.
         21   -1    0    0  502  503 -0.00000000000E+00 -0.00000000000E+00 -0.80031731742E+03  0.80031731742E+03  0.00000000000E+00 0.  1.
         -6    2    1    2    0  503 -0.97101418671E+02  0.75138322524E+02 -0.49200336287E+03  0.53516849674E+03  0.17106594577E+03 0.  0.
        -24    2    3    3    0    0 -0.33080111645E+01  0.28493012855E+02 -0.11903976238E+03  0.14774505205E+03  0.82676119023E+02 0.  0.
          6    2    1    2  501    0  0.97101418671E+02 -0.75138322524E+02 -0.24776635589E+03  0.32569641935E+03  0.17209165421E+03 0.  0.
         24    2    5    5    0    0  0.25928553042E+02 -0.10385613797E+03 -0.16757991678E+03  0.21460076353E+03  0.80697409769E+02 0.  0.
          5    1    5    5  501    0  0.71172865629E+02  0.28717815443E+02 -0.80186439107E+02  0.11109565582E+03  0.47000000000E+01 0. -1.
        -11    1    6    6    0    0  0.25608659326E+02 -0.95657224350E+02 -0.17656159982E+03  0.20243543794E+03  0.00000000000E+00 0.  1.
         12    1    6    6    0    0  0.31989371627E+00 -0.81989136173E+01  0.89816830402E+01  0.12165325591E+02  0.00000000000E+00 0. -1.
         -5    1    3    3    0  503 -0.93793407507E+02  0.46645309669E+02 -0.37296360049E+03  0.38742344469E+03  0.47000000000E+01 0.  1.
         13    1    4    4    0    0 -0.32672194038E+02 -0.10826245932E+02 -0.28196359603E+02  0.44493983403E+02  0.00000000000E+00 0. -1.
        -14    1    4    4    0    0  0.29364182874E+02  0.39319258787E+02 -0.90843402779E+02  0.10325106864E+03  0.00000000000E+00 0.  1.
</event>
<event>
12    1  0.8462562E-002  0.1869286E+03  0.7818608E-02  0.1161343E+00
         21   -1    0    0  503  502  0.00000000000E+00  0.00000000000E+00  0.19388609966E+03  0.19388609966E+03  0.00000000000E+00 0.  1.
         21   -1    0    0  501  503 -0.00000000000E+00 -0.00000000000E+00 -0.18846995842E+03  0.18846995842E+03  0.00000000000E+00 0.  1.
          6    2    1    2  501    0  0.25816712770E+02  0.68002367199E+02  0.43531323157E+02  0.19193039067E+03  0.17219603411E+03 0.  0.
         24    2    3    3    0    0 -0.50510408584E+02  0.21626778619E+02  0.17294665419E+02  0.98726437533E+02  0.80179704959E+02 0.  0.
         -6    2    1    2    0  502 -0.25816712770E+02 -0.68002367199E+02 -0.38115181920E+02  0.19042566742E+03  0.17180903095E+03 0.  0.
        -24    2    5    5    0    0 -0.89653556686E+01 -0.37015478238E+02  0.47118002255E+02  0.98062573015E+02  0.77107968838E+02 0.  0.
          5    1    3    3  501    0  0.76327121354E+02  0.46375588580E+02  0.26236657738E+02  0.93203953133E+02  0.47000000000E+01 0. -1.
        -11    1    4    4    0    0 -0.60683748607E+01  0.40732075252E+02  0.27192797579E+02  0.49349522469E+02  0.00000000000E+00 0.  1.
         12    1    4    4    0    0 -0.44442033723E+02 -0.19105296634E+02 -0.98981321602E+01  0.49376915063E+02  0.00000000000E+00 0. -1.
         -5    1    5    5    0  502 -0.16851357102E+02 -0.30986888961E+02 -0.85233184175E+02  0.92363094406E+02  0.47000000000E+01 0.  1.
         11    1    6    6    0    0  0.15467702492E+02 -0.29090057277E+02 -0.10826585520E+02  0.34679910709E+02  0.00000000000E+00 0. -1.
        -12    1    6    6    0    0 -0.24433058160E+02 -0.79254209609E+01  0.57944587776E+02  0.63382662306E+02  0.00000000000E+00 0.  1.
</event>
<event>
12    1  0.8462562E-002  0.1772679E+03  0.7818608E-02  0.1170476E+00
         21   -1    0    0  501  502  0.00000000000E+00  0.00000000000E+00  0.33023264579E+03  0.33023264579E+03  0.00000000000E+00 0. -1.
         21   -1    0    0  502  503 -0.00000000000E+00 -0.00000000000E+00 -0.99717033990E+02  0.99717033990E+02  0.00000000000E+00 0. -1.
         -6    2    1    2    0  503  0.32265176656E+02  0.29087112441E+02  0.69259170822E+02  0.19030925145E+03  0.17185364910E+03 0.  0.
        -24    2    3    3    0    0  0.36652157245E+02  0.23446245446E+02 -0.25227565475E+02  0.95436187225E+02  0.81108129777E+02 0.  0.
          6    2    1    2  501    0 -0.32265176656E+02 -0.29087112441E+02  0.16125644098E+03  0.23964042833E+03  0.17186271672E+03 0.  0.
         24    2    5    5    0    0  0.38984760496E+02  0.12275472581E+02  0.87055696994E+02  0.12866629895E+03  0.85474109113E+02 0.  0.
          5    1    5    5  501    0 -0.71249937151E+02 -0.41362585022E+02  0.74200743981E+02  0.11097412938E+03  0.47000000000E+01 0. -1.
        -13    1    6    6    0    0  0.36372867773E+02  0.37595567559E+02  0.88896332332E+02  0.10314538338E+03  0.00000000000E+00 0.  1.
         14    1    6    6    0    0  0.26118927224E+01 -0.25320094978E+02 -0.18406353373E+01  0.25520915574E+02  0.00000000000E+00 0. -1.
         -5    1    3    3    0  503 -0.43869805896E+01  0.56408669944E+01  0.94486736297E+02  0.94873064224E+02  0.47000000000E+01 0.  1.
         13    1    4    4    0    0  0.24908442957E+02  0.53628151662E+02 -0.11388680006E+02  0.60217200313E+02  0.00000000000E+00 0. -1.
        -14    1    4    4    0    0  0.11743714288E+02 -0.30181906216E+02 -0.13838885470E+02  0.35218986912E+02  0.00000000000E+00 0.  1.
</event>
<event>
12    1  0.8462562E-002  0.1878043E+03  0.7818608E-02  0.1162702E+00
         21   -1    0    0  501  502  0.00000000000E+00  0.00000000000E+00  0.35600549273E+02  0.35600549273E+02  0.00000000000E+00 0. -1.
         21   -1    0    0  502  503 -0.00000000000E+00 -0.00000000000E+00 -0.12672574809E+04  0.12672574809E+04  0.00000000000E+00 0. -1.
         -6    2    1    2    0  503  0.39174605753E+02  0.26824554219E+02 -0.93433923221E+03  0.95119300757E+03  0.17182587220E+03 0.  0.
        -24    2    3    3    0    0 -0.23792178491E+02  0.51684761358E+02 -0.71108958228E+03  0.71785775089E+03  0.80212057502E+02 0.  0.
          6    2    1    2  501    0 -0.39174605753E+02 -0.26824554219E+02 -0.29731769940E+03  0.35166502258E+03  0.18170378997E+03 0.  0.
         24    2    5    5    0    0 -0.74070069797E+02  0.17260866196E+02 -0.26425574701E+03  0.28627083019E+03  0.79596329333E+02 0.  0.
          5    1    5    5  501    0  0.34895464044E+02 -0.44085420415E+02 -0.33061952383E+02  0.65394192398E+02  0.47000000000E+01 0. -1.
        -13    1    6    6    0    0 -0.53469988419E+02  0.34566434681E+02 -0.91739122693E+02  0.11166890660E+03  0.00000000000E+00 0.  1.
         14    1    6    6    0    0 -0.20600081378E+02 -0.17305568485E+02 -0.17251662432E+03  0.17460192359E+03  0.00000000000E+00 0. -1.
         -5    1    3    3    0  503  0.62966784244E+02 -0.24860207139E+02 -0.22324964993E+03  0.23333525668E+03  0.47000000000E+01 0.  1.
         11    1    4    4    0    0 -0.39764931189E+02  0.84235083682E+01 -0.16938648553E+03  0.17419525460E+03  0.00000000000E+00 0. -1.
        -12    1    4    4    0    0  0.15972752698E+02  0.43261252990E+02 -0.54170309675E+03  0.54366249629E+03  0.00000000000E+00 0.  1.
</event>
<event>
12    1  0.8462562E-002  0.2114297E+03  0.7818608E-02  0.1141261E+00
         21   -1    0    0  501  502  0.00000000000E+00  0.00000000000E+00  0.38989679794E+03  0.38989679794E+03  0.00000000000E+00 0. -1.
         21   -1    0    0  502  503 -0.00000000000E+00 -0.00000000000E+00 -0.17088853654E+03  0.17088853654E+03  0.00000000000E+00 0. -1.
         -6    2    1    2    0  503 -0.98640118980E+02  0.64040180534E+02 -0.53795606859E+02  0.21816619831E+03  0.17570288834E+03 0.  0.
        -24    2    3    3    0    0 -0.16981921929E+01  0.75330191832E+02 -0.44618931404E+02  0.12002597772E+03  0.82084496892E+02 0.  0.
          6    2    1    2  501    0  0.98640118980E+02 -0.64040180534E+02  0.27280386826E+03  0.34261913618E+03  0.17068949629E+03 0.  0.
         24    2    5    5    0    0  0.37197376363E+02 -0.45684830608E+01  0.20416945892E+03  0.23287003338E+03  0.10554036499E+03 0.  0.
          5    1    5    5  501    0  0.61442742618E+02 -0.59471697474E+02  0.68634409336E+02  0.10974910280E+03  0.47000000000E+01 0. -1.
        -11    1    6    6    0    0 -0.34290953059E+02 -0.11091554373E+02  0.40881856941E+02  0.54499708871E+02  0.00000000000E+00 0.  1.
         12    1    6    6    0    0  0.71488329421E+02  0.65230713126E+01  0.16328760198E+03  0.17837032451E+03  0.00000000000E+00 0. -1.
         -5    1    3    3    0  503 -0.96941926788E+02 -0.11290011297E+02 -0.91766754551E+01  0.98140220587E+02  0.47000000000E+01 0.  1.
         11    1    4    4    0    0 -0.34460432793E+02  0.69674895405E+02 -0.26259170747E+02  0.82046672853E+02  0.00000000000E+00 0. -1.
        -12    1    4    4    0    0  0.32762240600E+02  0.56552964270E+01 -0.18359760657E+02  0.37979304868E+02  0.00000000000E+00 0.  1.
</event>
<event>
12    1  0.8462562E-002  0.2067879E+03  0.7818608E-02  0.1144249E+00
         21   -1    0    0  501  502  0.00000000000E+00  0.00000000000E+00  0.27648285849E+03  0.27648285849E+03  0.00000000000E+00 0. -1.
         21   -1    0    0  502  503 -0.00000000000E+00 -0.00000000000E+00 -0.15739261127E+03  0.15739261127E+03  0.00000000000E+00 0.  1.
         -6    2    1    2    0  503  0.11469959973E+03  0.11314931838E+00  0.28919795943E+02  0.20880035385E+03  0.17206168136E+03 0.  0.
        -24    2    3    3    0    0  0.85964105943E+02  0.59522080762E+02 -0.78389151627E+01  0.13311387831E+03  0.82007014324E+02 0.  0.
          6    2    1    2  501    0 -0.11469959973E+03 -0.11314931838E+00  0.90170451285E+02  0.22507511591E+03  0.17138286535E+03 0.  0.
         24    2    5    5    0    0 -0.91823373822E+02 -0.61193878188E+02  0.84702813480E+02  0.15945376104E+03  0.77940442590E+02 0.  0.
          5    1    5    5  501    0 -0.22876225908E+02  0.61080728869E+02  0.54676378043E+01  0.65621354864E+02  0.47000000000E+01 0. -1.
        -13    1    6    6    0    0 -0.19359574883E+01 -0.39320360857E+01 -0.13707316639E+02  0.14390947453E+02  0.00000000000E+00 0.  1.
         14    1    6    6    0    0 -0.89887416334E+02 -0.57261842102E+02  0.98410130119E+02  0.14506281359E+03  0.00000000000E+00 0. -1.
         -5    1    3    3    0  503  0.28735493787E+02 -0.59408931443E+02  0.36758711106E+02  0.75686475546E+02  0.47000000000E+01 0.  1.
         13    1    4    4    0    0 -0.14519602822E+02  0.20065269888E+02 -0.40343188326E+01  0.25094016223E+02  0.00000000000E+00 0. -1.
        -14    1    4    4    0    0  0.10048370877E+03  0.39456810874E+02 -0.38045963301E+01  0.10801986208E+03  0.00000000000E+00 0.  1.
</event>
<event>
12    1  0.8462562E-002  0.2980670E+03  0.7818608E-02  0.1086278E+00
         21   -1    0    0  503  502  0.00000000000E+00  0.00000000000E+00  0.13864578505E+04  0.13864578505E+04  0.00000000000E+00 0.  1.
         21   -1    0    0  501  503 -0.00000000000E+00 -0.00000000000E+00 -0.65809062267E+02  0.65809062267E+02  0.00000000000E+00 0. -1.
          6    2    1    2  501    0  0.21236793500E+03  0.11846592792E+03  0.53937959203E+03  0.61625829469E+03  0.17236480378E+03 0.  0.
         24    2    3    3    0    0  0.10158331300E+03  0.12495875918E+03  0.26663988879E+03  0.32176818441E+03  0.80647834624E+02 0.  0.
         -6    2    1    2    0  502 -0.21236793500E+03 -0.11846592792E+03  0.78126919625E+03  0.83600861812E+03  0.17144834988E+03 0.  0.
        -24    2    5    5    0    0 -0.19582132932E+03 -0.38727624624E+02  0.52875425766E+03  0.57064495938E+03  0.78795829490E+02 0.  0.
          5    1    3    3  501    0  0.11078462200E+03 -0.64928312558E+01  0.27273970323E+03  0.29449011027E+03  0.47000000000E+01 0. -1.
        -11    1    4    4    0    0  0.79006109614E+01  0.70098637338E+02  0.88789796274E+02  0.11340135155E+03  0.00000000000E+00 0.  1.
         12    1    4    4    0    0  0.93682702043E+02  0.54860121839E+02  0.17785009252E+03  0.20836683287E+03  0.00000000000E+00 0. -1.
         -5    1    5    5    0  502 -0.16546605682E+02 -0.79738303297E+02  0.25251493858E+03  0.26536365874E+03  0.47000000000E+01 0.  1.
         11    1    6    6    0    0 -0.65210933470E+02 -0.40133958404E+02  0.12814374347E+03  0.14927832881E+03  0.00000000000E+00 0. -1.
        -12    1    6    6    0    0 -0.13061039585E+03  0.14063337795E+01  0.40061051419E+03  0.42136663057E+03  0.00000000000E+00 0.  1.
</event>
<event>
12    1  0.8462562E-002  0.2411753E+03  0.7818608E-02  0.1119059E+00
         21   -1    0    0  503  502  0.00000000000E+00  0.00000000000E+00  0.18566335087E+03  0.18566335087E+03  0.00000000000E+00 0.  1.
         21   -1    0    0  501  503 -0.00000000000E+00 -0.00000000000E+00 -0.34115589947E+03  0.34115589947E+03  0.00000000000E+00 0. -1.
          6    2    1    2  501    0 -0.97459096689E+02  0.13758838243E+03 -0.20038742783E+01  0.24118365375E+03  0.17244332639E+03 0.  0.
         24    2    3    3    0    0 -0.10526047972E+03  0.36034437191E+02  0.17802897582E+02  0.13731612474E+03  0.78489016406E+02 0.  0.
         -6    2    1    2    0  502  0.97459096689E+02 -0.13758838243E+03 -0.15348867432E+03  0.28563559659E+03  0.17204674478E+03 0.  0.
        -24    2    5    5    0    0  0.13670009548E+03 -0.10077026981E+03 -0.13173078851E+03  0.22740394714E+03  0.74283182159E+02 0.  0.
          5    1    3    3  501    0  0.78013830309E+01  0.10155394524E+03 -0.19806771860E+02  0.10386752901E+03  0.47000000000E+01 0. -1.
        -11    1    4    4    0    0 -0.95314922682E+02  0.56284093019E+02  0.37883655068E+01  0.11075732629E+03  0.00000000000E+00 0.  1.
         12    1    4    4    0    0 -0.99455570375E+01 -0.20249655828E+02  0.14014532075E+02  0.26558798452E+02  0.00000000000E+00 0. -1.
         -5    1    5    5    0  502 -0.39240998790E+02 -0.36818112615E+02 -0.21757885804E+02  0.58231649446E+02  0.47000000000E+01 0.  1.
         11    1    6    6    0    0  0.79262357937E+02 -0.15084647476E+02 -0.43510532220E+02  0.91669157241E+02  0.00000000000E+00 0. -1.
        -12    1    6    6    0    0  0.57437737541E+02 -0.85685622338E+02 -0.88220256294E+02  0.13573478990E+03  0.00000000000E+00 0.  1.
</event>
<event>
12    1  0.8462562E-002  0.2715936E+03  0.7818608E-02  0.1100382E+00
         21   -1    0    0  503  502  0.00000000000E+00  0.00000000000E+00  0.14099118359E+04  0.14099118359E+04  0.00000000000E+00 0.  1.
         21   -1    0    0  501  503 -0.00000000000E+00 -0.00000000000E+00 -0.52334598585E+02  0.52334598585E+02  0.00000000000E+00 0.  1.
          6    2    1    2  501    0  0.14214917425E+03  0.15535924107E+03  0.69679632650E+03  0.74785572363E+03  0.17152312151E+03 0.  0.
         24    2    3    3    0    0  0.15580672008E+03  0.14652294060E+03  0.69411863027E+03  0.73071312111E+03  0.79976786263E+02 0.  0.
         -6    2    1    2    0  502 -0.14214917425E+03 -0.15535924107E+03  0.66078091080E+03  0.71439071084E+03  0.17140535037E+03 0.  0.
        -24    2    5    5    0    0 -0.11690776442E+03 -0.45118851697E+02  0.28049177249E+03  0.31761370681E+03  0.80620693087E+02 0.  0.
          5    1    3    3  501    0 -0.13657545826E+02  0.88363004647E+01  0.26776962382E+01  0.17142602516E+02  0.47000000000E+01 0. -1.
        -11    1    4    4    0    0  0.10189108932E+03  0.54002207182E+02  0.27648895093E+03  0.29957331732E+03  0.00000000000E+00 0.  1.
         12    1    4    4    0    0  0.53915630753E+02  0.92520733420E+02  0.41762967934E+03  0.43113980379E+03  0.00000000000E+00 0. -1.
         -5    1    5    5    0  502 -0.25241409828E+02 -0.11024038937E+03  0.38028913830E+03  0.39677700403E+03  0.47000000000E+01 0.  1.
         11    1    6    6    0    0 -0.64353567483E+02  0.67014553009E+01  0.73834966795E+02  0.98172773581E+02  0.00000000000E+00 0. -1.
        -12    1    6    6    0    0 -0.52554196941E+02 -0.51820306998E+02  0.20665680570E+03  0.21944093323E+03  0.00000000000E+00 0.  1.
</event>
<event>
12    1  0.8462562E-002  0.2142779E+03  0.7818608E-02  0.1140313E+00
         21   -1    0    0  501  502  0.00000000000E+00  0.00000000000E+00  0.19671056396E+03  0.19671056396E+03  0.00000000000E+00 0.  1.
         21   -1    0    0  502  503 -0.00000000000E+00 -0.00000000000E+00 -0.22213274726E+03  0.22213274726E+03  0.00000000000E+00 0.  1.
         -6    2    1    2    0  503 -0.64795747310E+02 -0.11217584529E+03 -0.16046007766E+02  0.20436035652E+03  0.15723794649E+03 0.  0.
        -24    2    3    3    0    0  0.46598557338E+01 -0.76934549401E+02 -0.46740631111E+02  0.12051359372E+03  0.79988752508E+02 0.  0.
          6    2    1    2  501    0  0.64795747310E+02  0.11217584529E+03 -0.93761755320E+01  0.21448295470E+03  0.17068425837E+03 0.  0.
         24    2    5    5    0    0  0.92493355357E+02  0.25895267994E+02 -0.56163190139E+01  0.12366598475E+03  0.77692644800E+02 0.  0.
          5    1    5    5  501    0 -0.27697608047E+02  0.86280577294E+02 -0.37598565181E+01  0.90816969949E+02  0.47000000000E+01 0. -1.
        -13    1    6    6    0    0  0.20028951759E+02  0.28966337564E+02  0.26768119086E+02  0.44235051937E+02  0.00000000000E+00 0.  1.
         14    1    6    6    0    0  0.72464403598E+02 -0.30710695692E+01 -0.32384438100E+02  0.79430932817E+02  0.00000000000E+00 0. -1.
         -5    1    3    3    0  503 -0.69455603044E+02 -0.35241295887E+02  0.30694623345E+02  0.83846762802E+02  0.47000000000E+01 0.  1.
         11    1    4    4    0    0  0.32847874321E+02 -0.12395557080E+02 -0.34135992374E+02  0.48968343429E+02  0.00000000000E+00 0. -1.
        -12    1    4    4    0    0 -0.28188018587E+02 -0.64538992321E+02 -0.12604638736E+02  0.71545250292E+02  0.00000000000E+00 0.  1.
</event>
<event>
12    1  0.8462562E-002  0.1740015E+03  0.7818608E-02  0.1174113E+00
         21   -1    0    0  501  502  0.00000000000E+00  0.00000000000E+00  0.47109638062E+02  0.47109638062E+02  0.00000000000E+00 0. -1.
         21   -1    0    0  502  503 -0.00000000000E+00 -0.00000000000E+00 -0.88457791625E+03  0.88457791625E+03  0.00000000000E+00 0. -1.
         -6    2    1    2    0  503 -0.78674985105E+01  0.12249934099E+02 -0.66634987049E+03  0.68869346387E+03  0.17339140363E+03 0.  0.
        -24    2    3    3    0    0  0.50824219674E+01  0.74358864671E+02 -0.46532313316E+03  0.47784029500E+03  0.79061099845E+02 0.  0.
          6    2    1    2  501    0  0.78674985105E+01 -0.12249934099E+02 -0.17111840769E+03  0.24299409044E+03  0.17190887156E+03 0.  0.
         24    2    5    5    0    0 -0.45361048096E+02 -0.52080929939E+02 -0.96730525621E+02  0.14311699896E+03  0.79722223107E+02 0.  0.
          5    1    5    5  501    0  0.53228546607E+02  0.39830995839E+02 -0.74387882074E+02  0.99877091482E+02  0.47000000000E+01 0. -1.
        -13    1    6    6    0    0 -0.32320333339E+01 -0.33307176038E+02 -0.90607609859E+02  0.96589611136E+02  0.00000000000E+00 0.  1.
         14    1    6    6    0    0 -0.42129014762E+02 -0.18773753901E+02 -0.61229157615E+01  0.46527387825E+02  0.00000000000E+00 0. -1.
         -5    1    3    3    0  503 -0.12949920478E+02 -0.62108930572E+02 -0.20102673733E+03  0.21085316886E+03  0.47000000000E+01 0.  1.
         11    1    4    4    0    0 -0.34590640019E+02  0.22570400658E+02 -0.13666669371E+03  0.14277156767E+03  0.00000000000E+00 0. -1.
        -12    1    4    4    0    0  0.39673061986E+02  0.51788464014E+02 -0.32865643944E+03  0.33506872734E+03  0.00000000000E+00 0.  1.
</event>
<event>
12    1  0.8462562E-002  0.2077640E+03  0.7818608E-02  0.1143511E+00
         21   -1    0    0  501  502  0.00000000000E+00  0.00000000000E+00  0.25253659708E+03  0.25253659708E+03  0.00000000000E+00 0. -1.
         21   -1    0    0  502  503 -0.00000000000E+00 -0.00000000000E+00 -0.17157141638E+03  0.17157141638E+03  0.00000000000E+00 0. -1.
         -6    2    1    2    0  503 -0.11000158079E+03  0.34249055678E+02  0.21923503423E+02  0.20811777777E+03  0.17192737952E+03 0.  0.
        -24    2    3    3    0    0 -0.12031850837E+03  0.45406461503E+02 -0.28794544767E+02  0.15496387752E+03  0.81525378402E+02 0.  0.
          6    2    1    2  501    0  0.11000158079E+03 -0.34249055678E+02  0.59041677276E+02  0.21599023570E+03  0.17289452470E+03 0.  0.
         24    2    5    5    0    0  0.78957070797E+01  0.22101248463E+02 -0.42340745699E+01  0.83223986242E+02  0.79733914520E+02 0.  0.
          5    1    5    5  501    0  0.10210587371E+03 -0.56350304141E+02  0.63275751846E+02  0.13276624945E+03  0.47000000000E+01 0. -1.
        -11    1    6    6    0    0  0.41355600918E+02  0.67295534138E+01 -0.15566374365E+02  0.44697702707E+02  0.00000000000E+00 0.  1.
         12    1    6    6    0    0 -0.33459893838E+02  0.15371695049E+02  0.11332299795E+02  0.38526283535E+02  0.00000000000E+00 0. -1.
         -5    1    3    3    0  503  0.10316927585E+02 -0.11157405825E+02  0.50718048190E+02  0.53153900249E+02  0.47000000000E+01 0.  1.
         13    1    4    4    0    0 -0.75218091062E+02  0.60912202301E+02  0.43493503295E+01  0.96886399770E+02  0.00000000000E+00 0. -1.
        -14    1    4    4    0    0 -0.45100417312E+02 -0.15505740798E+02 -0.33143895097E+02  0.58077477748E+02  0.00000000000E+00 0.  1.
</event>
<event>
12    1  0.8462562E-002  0.2063820E+03  0.7818608E-02  0.1144628E+00
         21   -1    0    0  503  502  0.00000000000E+00  0.00000000000E+00  0.18555053119E+03  0.18555053119E+03  0.00000000000E+00 0.  1.
         21   -1    0    0  501  503 -0.00000000000E+00 -0.00000000000E+00 -0.23075882023E+03  0.23075882023E+03  0.00000000000E+00 0. -1.
          6    2    1    2  501    0  0.11157751988E+03 -0.16141724500E+02 -0.27597655419E+01  0.20640047993E+03  0.17286828395E+03 0.  0.
         24    2    3    3    0    0  0.33682572808E+02  0.48219214186E+02  0.28317262510E+02  0.10058070445E+03  0.76517987590E+02 0.  0.
         -6    2    1    2    0  502 -0.11157751988E+03  0.16141724500E+02 -0.42448523502E+02  0.20990887149E+03  0.17190043330E+03 0.  0.
        -24    2    5    5    0    0 -0.10172537123E+03  0.38249956068E+02  0.25569864259E+02  0.13755951206E+03  0.80359760505E+02 0.  0.
          5    1    3    3  501    0  0.77894947075E+02 -0.64360938687E+02 -0.31077028052E+02  0.10581977547E+03  0.47000000000E+01 0. -1.
        -13    1    4    4    0    0  0.43877240850E+02  0.48335352253E+02  0.46214581736E+02  0.79983161397E+02  0.00000000000E+00 0.  1.
         14    1    4    4    0    0 -0.10194668042E+02 -0.11613806677E+00 -0.17897319226E+02  0.20597543057E+02  0.00000000000E+00 0. -1.
         -5    1    5    5    0  502 -0.98521486513E+01 -0.22108231567E+02 -0.68018387761E+02  0.72349359428E+02  0.47000000000E+01 0.  1.
         11    1    6    6    0    0 -0.48638463320E+02  0.37087327873E+02 -0.23243296718E+02  0.65432567160E+02  0.00000000000E+00 0. -1.
        -12    1    6    6    0    0 -0.53086907911E+02  0.11626281950E+01  0.48813160977E+02  0.72126944899E+02  0.00000000000E+00 0.  1.
</event>
<event>
12    1  0.8462562E-002  0.1826099E+03  0.7818608E-02  0.1165711E+00
         21   -1    0    0  503  502  0.00000000000E+00  0.00000000000E+00  0.12964827517E+03  0.12964827517E+03  0.00000000000E+00 0. -1.
         21   -1    0    0  501  503 -0.00000000000E+00 -0.00000000000E+00 -0.26770316171E+03  0.26770316171E+03  0.00000000000E+00 0. -1.
          6    2    1    2  501    0 -0.22300982292E+02 -0.56515170412E+02 -0.11296695886E+03  0.21472751038E+03  0.17220647962E+03 0.  0.
         24    2    3    3    0    0 -0.29705464692E+02 -0.25974229131E+01 -0.13043018526E+03  0.15737767053E+03  0.82864568520E+02 0.  0.
         -6    2    1    2    0  502  0.22300982292E+02  0.56515170412E+02 -0.25087927679E+02  0.18262392649E+03  0.17038426017E+03 0.  0.
        -24    2    5    5    0    0  0.49095008520E+02 -0.19657145523E+02  0.51944945764E+01  0.96256938273E+02  0.80260153003E+02 0.  0.
          5    1    3    3  501    0  0.74044823997E+01 -0.53917747499E+02  0.17463226396E+02  0.57349839852E+02  0.47000000000E+01 0. -1.
        -13    1    4    4    0    0 -0.30881761259E+02  0.91154716071E+01 -0.64484748433E+01  0.32838359107E+02  0.00000000000E+00 0.  1.
         14    1    4    4    0    0  0.11762965668E+01 -0.11712894520E+02 -0.12398171042E+03  0.12453931142E+03  0.00000000000E+00 0. -1.
         -5    1    5    5    0  502 -0.26794026228E+02  0.76172315935E+02 -0.30282422255E+02  0.86366988219E+02  0.47000000000E+01 0.  1.
         11    1    6    6    0    0  0.45786545231E+02  0.11070185606E+02 -0.24760778734E+02  0.53217035778E+02  0.00000000000E+00 0. -1.
        -12    1    6    6    0    0  0.33084632896E+01 -0.30727331129E+02  0.29955273311E+02  0.43039902495E+02  0.00000000000E+00 0.  1.
</event>
<event>
12    1  0.8462562E-002  0.2185559E+03  0.7818608E-02  0.1134974E+00
         21   -1    0    0  503  502  0.00000000000E+00  0.00000000000E+00  0.11126627410E+03  0.11126627410E+03  0.00000000000E+00 0.  1.
         21   -1    0    0  501  503 -0.00000000000E+00 -0.00000000000E+00 -0.49224686115E+03  0.49224686115E+03  0.00000000000E+00 0. -1.
          6    2    1    2  501    0  0.49675268291E+02  0.12507313384E+03 -0.29850618283E+03  0.36996301171E+03  0.17220850083E+03 0.  0.
         24    2    3    3    0    0  0.90578126956E+02  0.11413741676E+03 -0.28026601681E+03  0.32362266847E+03  0.70362236913E+02 0.  0.
         -6    2    1    2    0  502 -0.49675268291E+02 -0.12507313384E+03 -0.82474404226E+02  0.23355012354E+03  0.17214154572E+03 0.  0.
        -24    2    5    5    0    0 -0.56086806984E+02 -0.13360624073E+03 -0.11300545863E+03  0.20086745191E+03  0.81124238543E+02 0.  0.
          5    1    3    3  501    0 -0.40902858665E+02  0.10935717078E+02 -0.18240166020E+02  0.46340343238E+02  0.47000000000E+01 0. -1.
        -13    1    4    4    0    0  0.21951425633E+02 -0.64360353782E+01 -0.34314407527E+02  0.41240346781E+02  0.00000000000E+00 0.  1.
         14    1    4    4    0    0  0.68626701323E+02  0.12057345214E+03 -0.24595160928E+03  0.28238232169E+03  0.00000000000E+00 0. -1.
         -5    1    5    5    0  502  0.64115386925E+01  0.85331068951E+01  0.30531054399E+02  0.32682671623E+02  0.47000000000E+01 0.  1.
         13    1    6    6    0    0  0.38211168762E+00 -0.46035958894E+02 -0.78683086101E+02  0.91161853639E+02  0.00000000000E+00 0. -1.
        -14    1    6    6    0    0 -0.56468918671E+02 -0.87570281838E+02 -0.34322372524E+02  0.10970559827E+03  0.00000000000E+00 0.  1.
</event>
<event>
12    1  0.8462562E-002  0.1786811E+03  0.7818608E-02  0.1169897E+00
         21   -1    0    0  503  502  0.00000000000E+00  0.00000000000E+00  0.55478012933E+02  0.55478012933E+02  0.00000000000E+00 0.  1.
         21   -1    0    0  501  503 -0.00000000000E+00 -0.00000000000E+00 -0.10368114846E+04  0.10368114846E+04  0.00000000000E+00 0.  1.
          6    2    1    2  501    0  0.18729504724E+02 -0.27093041163E+02 -0.86158332799E+03  0.87991633188E+03  0.17561916980E+03 0.  0.
         24    2    3    3    0    0  0.41964949935E+02  0.32105622187E+02 -0.68950103484E+03  0.69639855815E+03  0.82264492647E+02 0.  0.
         -6    2    1    2    0  502 -0.18729504724E+02  0.27093041163E+02 -0.11975014366E+03  0.21237316564E+03  0.17227140608E+03 0.  0.
        -24    2    5    5    0    0 -0.34710592932E+02  0.13749870690E+02 -0.44075164568E+01  0.95072496296E+02  0.87323932258E+02 0.  0.
          5    1    3    3  501    0 -0.23235445211E+02 -0.59198663350E+02 -0.17208229316E+03  0.18351777373E+03  0.47000000000E+01 0. -1.
        -13    1    4    4    0    0  0.13784232867E+02  0.56768295458E+02 -0.48405879312E+03  0.48757108163E+03  0.00000000000E+00 0.  1.
         14    1    4    4    0    0  0.28180717068E+02 -0.24662673270E+02 -0.20544224171E+03  0.20882747652E+03  0.00000000000E+00 0. -1.
         -5    1    5    5    0  502  0.15981088208E+02  0.13343170473E+02 -0.11534262721E+03  0.11730066935E+03  0.47000000000E+01 0.  1.
         11    1    6    6    0    0  0.27491913560E+01 -0.13362888601E+02 -0.36379694823E+02  0.38853661865E+02  0.00000000000E+00 0. -1.
        -12    1    6    6    0    0 -0.37459784288E+02  0.27112759291E+02  0.31972178367E+02  0.56218834431E+02  0.00000000000E+00 0.  1.
</event>
<event>
12    1  0.8462562E-002  0.1999269E+03  0.7818608E-02  0.1150287E+00
         21   -1    0    0  503  502  0.00000000000E+00  0.00000000000E+00  0.39953590349E+02  0.39953590349E+02  0.00000000000E+00 0.  1.
         21   -1    0    0  501  503 -0.00000000000E+00 -0.00000000000E+00 -0.17416963644E+04  0.17416963644E+04  0.00000000000E+00 0.  1.
          6    2    1    2  501    0 -0.22636659554E+02  0.94090226159E+02 -0.14337032927E+04  0.14472610898E+04  0.17231988168E+03 0.  0.
         24    2    3    3    0    0 -0.93142035431E+01  0.43332867980E+02 -0.13047178938E+04  0.13079301156E+04  0.80174267184E+02 0.  0.
         -6    2    1    2    0  502  0.22636659554E+02 -0.94090226159E+02 -0.26803948142E+03  0.33438886498E+03  0.17494387790E+03 0.  0.
        -24    2    5    5    0    0 -0.53663652321E+02 -0.64800187477E+02 -0.17736420150E+03  0.21222610328E+03  0.80641224348E+02 0.  0.
          5    1    3    3  501    0 -0.13322456010E+02  0.50757358179E+02 -0.12898539888E+03  0.13933097418E+03  0.47000000000E+01 0. -1.
        -11    1    4    4    0    0  0.17276936498E+02  0.57936050879E+02 -0.78270196811E+03  0.78503340656E+03  0.00000000000E+00 0.  1.
         12    1    4    4    0    0 -0.26591140041E+02 -0.14603182899E+02 -0.52201592568E+03  0.52289670906E+03  0.00000000000E+00 0. -1.
         -5    1    5    5    0  502  0.76300311875E+02 -0.29290038682E+02 -0.90675279917E+02  0.12216276170E+03  0.47000000000E+01 0.  1.
         13    1    6    6    0    0 -0.55656986040E+02 -0.63287767285E+02 -0.18548184523E+03  0.20373157952E+03  0.00000000000E+00 0. -1.
        -14    1    6    6    0    0  0.19933337189E+01 -0.15124201923E+01  0.81176437348E+01  0.84945237629E+01  0.00000000000E+00 0.  1.
</event>
<event>
12    1  0.8462562E-002  0.2529023E+03  0.7818608E-02  0.1111916E+00
         21   -1    0    0  503  502  0.00000000000E+00  0.00000000000E+00  0.10130708334E+03  0.10130708334E+03  0.00000000000E+00 0. -1.
         21   -1    0    0  501  503 -0.00000000000E+00 -0.00000000000E+00 -0.11407721766E+04  0.11407721766E+04  0.00000000000E+00 0.  1.
          6    2    1    2  501    0 -0.12574512114E+03  0.13006782444E+03 -0.93596873881E+03  0.96881920008E+03  0.17275325748E+03 0.  0.
         24    2    3    3    0    0 -0.91013759327E+02  0.12529380947E+03 -0.90494704997E+03  0.92177141702E+03  0.82166531556E+02 0.  0.
         -6    2    1    2    0  502  0.12574512114E+03 -0.13006782444E+03 -0.10349635448E+03  0.27326005988E+03  0.17672037372E+03 0.  0.
        -24    2    5    5    0    0  0.12514020175E+03 -0.10891969937E+03 -0.13949995312E+03  0.23123675400E+03  0.80539608120E+02 0.  0.
          5    1    3    3  501    0 -0.34731361814E+02  0.47740149730E+01 -0.31021688839E+02  0.47047783060E+02  0.47000000000E+01 0. -1.
        -13    1    4    4    0    0 -0.82040428726E+02  0.10248714715E+03 -0.52972403096E+03  0.54574883990E+03  0.00000000000E+00 0.  1.
         14    1    4    4    0    0 -0.89733306008E+01  0.22806662316E+02 -0.37522301901E+03  0.37602257712E+03  0.00000000000E+00 0. -1.
         -5    1    5    5    0  502  0.60491939578E+00 -0.21148125067E+02  0.36003598645E+02  0.42023305876E+02  0.47000000000E+01 0.  1.
         11    1    6    6    0    0  0.34379201234E+02 -0.42677729678E+01 -0.26929591327E-02  0.34643085470E+02  0.00000000000E+00 0. -1.
        -12    1    6    6    0    0  0.90761000511E+02 -0.10465192641E+03 -0.13949726016E+03  0.19659366853E+03  0.00000000000E+00 0.  1.
</event>
<event>
12    1  0.8462562E-002  0.2766565E+03  0.7818608E-02  0.1097771E+00
         21   -1    0    0  501  502  0.00000000000E+00  0.00000000000E+00  0.88073631149E+03  0.88073631149E+03  0.00000000000E+00 0. -1.
         21   -1    0    0  502  503 -0.00000000000E+00 -0.00000000000E+00 -0.86505256083E+02  0.86505256083E+02  0.00000000000E+00 0.  1.
         -6    2    1    2    0  503  0.20221342907E+03  0.78658485363E+02  0.37846545979E+03  0.46880160562E+03  0.17164327240E+03 0.  0.
        -24    2    3    3    0    0  0.11405829218E+03  0.72219609785E+02  0.33445579552E+03  0.36994955543E+03  0.82322708573E+02 0.  0.
          6    2    1    2  501    0 -0.20221342907E+03 -0.78658485363E+02  0.41576559562E+03  0.49843996196E+03  0.16883109003E+03 0.  0.
         24    2    5    5    0    0 -0.66598547922E+02 -0.46392339960E+02  0.10134038774E+03  0.15446641432E+03  0.83680243618E+02 0.  0.
          5    1    5    5  501    0 -0.13561488115E+03 -0.32266145403E+02  0.31442520787E+03  0.34397354764E+03  0.47000000000E+01 0. -1.
        -11    1    6    6    0    0 -0.37628943328E+02 -0.20790929448E+02 -0.30977604999E+01  0.43102160542E+02  0.00000000000E+00 0.  1.
         12    1    6    6    0    0 -0.28969604594E+02 -0.25601410512E+02  0.10443814824E+03  0.11136425378E+03  0.00000000000E+00 0. -1.
         -5    1    3    3    0  503  0.88155136888E+02  0.64388755779E+01  0.44009664269E+02  0.98852050194E+02  0.47000000000E+01 0.  1.
         13    1    4    4    0    0  0.12383803242E+03  0.50156669285E+02  0.27352051063E+03  0.30440929598E+03  0.00000000000E+00 0. -1.
        -14    1    4    4    0    0 -0.97797402322E+01  0.22062940500E+02  0.60935284894E+02  0.65540259441E+02  0.00000000000E+00 0.  1.
</event>
<event>
12    1  0.8462562E-002  0.2159287E+03  0.7818608E-02  0.1137236E+00
         21   -1    0    0  503  502  0.00000000000E+00  0.00000000000E+00  0.11780136417E+03  0.11780136417E+03  0.00000000000E+00 0. -1.
         21   -1    0    0  501  503 -0.00000000000E+00 -0.00000000000E+00 -0.42426861868E+03  0.42426861868E+03  0.00000000000E+00 0. -1.
          6    2    1    2  501    0  0.12896527928E+03 -0.17551939469E+02 -0.22619099138E+03  0.31170187879E+03  0.17045698231E+03 0.  0.
         24    2    3    3    0    0  0.59418447214E+02  0.13308480174E+02 -0.21058192572E+03  0.23388889605E+03  0.81557346346E+02 0.  0.
         -6    2    1    2    0  502 -0.12896527928E+03  0.17551939469E+02 -0.80276263128E+02  0.23036810406E+03  0.17229356084E+03 0.  0.
        -24    2    5    5    0    0 -0.64158910667E+01  0.24695769071E+02 -0.20748666075E+01  0.84742092403E+02  0.80782872475E+02 0.  0.
          5    1    3    3  501    0  0.69546832069E+02 -0.30860419643E+02 -0.15609065658E+02  0.77812982735E+02  0.47000000000E+01 0. -1.
        -13    1    4    4    0    0 -0.85668791014E+01  0.41894046217E+01 -0.11943285840E+03  0.11981298007E+03  0.00000000000E+00 0.  1.
         14    1    4    4    0    0  0.67985326315E+02  0.91190755523E+01 -0.91149067320E+02  0.11407591598E+03  0.00000000000E+00 0. -1.
         -5    1    5    5    0  502 -0.12254938822E+03 -0.71438296018E+01 -0.78201396520E+02  0.14562601166E+03  0.47000000000E+01 0.  1.
         11    1    6    6    0    0 -0.17711881874E+02  0.22197801290E+02 -0.37749493363E+02  0.47238515967E+02  0.00000000000E+00 0. -1.
        -12    1    6    6    0    0  0.11295990807E+02  0.24979677811E+01  0.35674626756E+02  0.37503576436E+02  0.00000000000E+00 0.  1.
</event>
<event>
12    1  0.8462562E-002  0.2396377E+03  0.7818608E-02  0.1120302E+00
         21   -1    0    0  501  502  0.00000000000E+00  0.00000000000E+00  0.76554167051E+03  0.76554167051E+03  0.00000000000E+00 0.  1.
         21   -1    0    0  502  503 -0.00000000000E+00 -0.00000000000E+00 -0.76338705821E+02  0.76338705821E+02  0.00000000000E+00 0. -1.
         -6    2    1    2    0  503  0.16617861291E+03  0.10662788124E+02  0.41079183715E+03  0.47557980298E+03  0.17232872394E+03 0.  0.
        -24    2    3    3    0    0  0.91337458659E+02 -0.41581290046E+02  0.32802454339E+03  0.35227872030E+03  0.80178929110E+02 0.  0.
          6    2    1    2  501    0 -0.16617861291E+03 -0.10662788124E+02  0.27841112754E+03  0.36630057335E+03  0.17010093373E+03 0.  0.
         24    2    5    5    0    0 -0.93881685348E+02  0.46898667780E+02  0.21849604055E+03  0.25606412479E+03  0.82553379013E+02 0.  0.
          5    1    5    5  501    0 -0.72296927566E+02 -0.57561455904E+02  0.59915086990E+02  0.11023644856E+03  0.47000000000E+01 0. -1.
        -11    1    6    6    0    0 -0.66756088873E+02  0.39573171742E+02  0.68663654856E+02  0.10362002134E+03  0.00000000000E+00 0.  1.
         12    1    6    6    0    0 -0.27125596476E+02  0.73254960378E+01  0.14983238569E+03  0.15244410345E+03  0.00000000000E+00 0. -1.
         -5    1    3    3    0  503  0.74841154256E+02  0.52244078171E+02  0.82767293758E+02  0.12330108268E+03  0.47000000000E+01 0.  1.
         13    1    4    4    0    0 -0.11938946738E+02 -0.20747246130E+01  0.10439555703E+02  0.15994600799E+02  0.00000000000E+00 0. -1.
        -14    1    4    4    0    0  0.10327640540E+03 -0.39506565433E+02  0.31758498769E+03  0.33628411950E+03  0.00000000000E+00 0.  1.
</event>
<event>
12    1  0.8462562E-002  0.2030617E+03  0.7818608E-02  0.1147832E+00
         21   -1    0    0  501  502  0.00000000000E+00  0.00000000000E+00  0.15892595363E+04  0.15892595363E+04  0.00000000000E+00 0. -1.
         21   -1    0    0  502  503 -0.00000000000E+00 -0.00000000000E+00 -0.35209112598E+02  0.35209112598E+02  0.00000000000E+00 0. -1.
         -6    2    1    2    0  503 -0.93286623800E+01 -0.10445358128E+03  0.34719664788E+03  0.40065081444E+03  0.17022922261E+03 0.  0.
        -24    2    3    3    0    0 -0.64498876032E+02 -0.98467805799E+02  0.27351139486E+03  0.30828638138E+03  0.79849834292E+02 0.  0.
          6    2    1    2  501    0  0.93286623800E+01  0.10445358128E+03  0.12068537759E+04  0.12238178345E+04  0.17388640298E+03 0.  0.
         24    2    5    5    0    0  0.53091515141E+02  0.12495842271E+03  0.89433847835E+03  0.90755285543E+03  0.73331815473E+02 0.  0.
          5    1    5    5  501    0 -0.43762852761E+02 -0.20504841437E+02  0.31251529751E+03  0.31626497906E+03  0.47000000000E+01 0. -1.
        -11    1    6    6    0    0  0.43277734207E+02  0.92751246573E+02  0.43073417972E+03  0.44272755685E+03  0.00000000000E+00 0.  1.
         12    1    6    6    0    0  0.98137809347E+01  0.32207176142E+02  0.46360429863E+03  0.46482529858E+03  0.00000000000E+00 0. -1.
         -5    1    3    3    0  503  0.55170213652E+02 -0.59857754788E+01  0.73685253027E+02  0.92364433069E+02  0.47000000000E+01 0.  1.
         11    1    4    4    0    0  0.16019412603E+02 -0.36172594715E+02  0.61931076455E+02  0.73488342065E+02  0.00000000000E+00 0. -1.
        -12    1    4    4    0    0 -0.80518288636E+02 -0.62295211084E+02  0.21158031840E+03  0.23479803931E+03  0.00000000000E+00 0.  1.
</event>
<event>
12    1  0.8462562E-002  0.1792061E+03  0.7818608E-02  0.1169713E+00
         21   -1    0    0  501  502  0.00000000000E+00  0.00000000000E+00  0.27680331517E+03  0.27680331517E+03  0.00000000000E+00 0. -1.
         21   -1    0    0  502  503 -0.00000000000E+00 -0.00000000000E+00 -0.17488093420E+03  0.17488093420E+03  0.00000000000E+00 0. -1.
         -6    2    1    2    0  503 -0.32266192692E+02 -0.17943623344E+02 -0.83747041183E+02  0.19363780801E+03  0.17064276421E+03 0.  0.
        -24    2    3    3    0    0 -0.75893259270E+01 -0.80733179795E+01 -0.12597409750E+03  0.14352209225E+03  0.67870033103E+02 0.  0.
          6    2    1    2  501    0  0.32266192692E+02  0.17943623344E+02  0.18566942216E+03  0.25804644136E+03  0.17536177110E+03 0.  0.
         24    2    5    5    0    0 -0.15001721607E+02  0.15607350741E+02  0.20734578283E+02  0.86391827039E+02  0.81024588825E+02 0.  0.
          5    1    5    5  501    0  0.47267914299E+02  0.23362726034E+01  0.16493484388E+03  0.17165461432E+03  0.47000000000E+01 0. -1.
        -11    1    6    6    0    0 -0.14097430029E+02 -0.31059468518E+02 -0.26006994979E+01  0.34208065656E+02  0.00000000000E+00 0.  1.
         12    1    6    6    0    0 -0.90429157771E+00  0.46666819259E+02  0.23335277781E+02  0.52183761383E+02  0.00000000000E+00 0. -1.
         -5    1    3    3    0  503 -0.24676866765E+02 -0.98703053648E+01  0.42227056313E+02  0.50115715761E+02  0.47000000000E+01 0.  1.
         11    1    4    4    0    0  0.33119431523E+00  0.20872067400E+02 -0.10464058694E+03  0.10670241479E+03  0.00000000000E+00 0. -1.
        -12    1    4    4    0    0 -0.79205202423E+01 -0.28945385379E+02 -0.21333510556E+02  0.36819677460E+02  0.00000000000E+00 0.  1.
</event>
<event>
12    1  0.8462562E-002  0.1828303E+03  0.7818608E-02  0.1165912E+00
         21   -1    0    0  503  502  0.00000000000E+00  0.00000000000E+00  0.80879441905E+03  0.80879441905E+03  0.00000000000E+00 0. -1.
         21   -1    0    0  501  503 -0.00000000000E+00 -0.00000000000E+00 -0.16298296250E+03  0.16298296250E+03  0.00000000000E+00 0. -1.
          6    2    1    2  501    0 -0.26125474490E+02 -0.51714708719E+02 -0.97443446640E+02  0.20717661634E+03  0.17340695935E+03 0.  0.
         24    2    3    3    0    0 -0.43033493215E+02 -0.42079590184E+02  0.99110212024E+01  0.97971358355E+02  0.76665411160E+02 0.  0.
         -6    2    1    2    0  502  0.26125474490E+02  0.51714708719E+02  0.74325490319E+03  0.76460076521E+03  0.16979260153E+03 0.  0.
        -24    2    5    5    0    0  0.40367987043E+02 -0.21999045124E+02  0.27393495010E+03  0.28929047179E+03  0.80839890008E+02 0.  0.
          5    1    3    3  501    0  0.16908018725E+02 -0.96351185350E+01 -0.10735446784E+03  0.10920525799E+03  0.47000000000E+01 0. -1.
        -13    1    4    4    0    0 -0.34155669903E+02  0.82654988862E+01  0.26731767747E+02  0.44153319980E+02  0.00000000000E+00 0.  1.
         14    1    4    4    0    0 -0.88778233126E+01 -0.50345089070E+02 -0.16820746545E+02  0.53818038376E+02  0.00000000000E+00 0. -1.
         -5    1    5    5    0  502 -0.14242512553E+02  0.73713753843E+02  0.46931995308E+03  0.47531029342E+03  0.47000000000E+01 0.  1.
         13    1    6    6    0    0  0.39004701594E+01 -0.11237290665E+02  0.23344003989E+03  0.23374289849E+03  0.00000000000E+00 0. -1.
        -14    1    6    6    0    0  0.36467516884E+02 -0.10761754459E+02  0.40494910210E+02  0.55547573301E+02  0.00000000000E+00 0.  1.
</event>
<event>
12    1  0.8462562E-002  0.2609015E+03  0.7818608E-02  0.1106742E+00
         21   -1    0    0  501  502  0.00000000000E+00  0.00000000000E+00  0.22551942177E+04  0.22551942177E+04  0.00000000000E+00 0.  1.
         21   -1    0    0  502  503 -0.00000000000E+00 -0.00000000000E+00 -0.62391502258E+02  0.62391502258E+02  0.00000000000E+00 0.  1.
         -6    2    1    2    0  503  0.26703161534E+01 -0.19523980095E+03  0.26337907867E+03  0.37072649875E+03  0.17304302161E+03 0.  0.
        -24    2    3    3    0    0 -0.16792674855E+02 -0.12426437390E+03  0.25732473150E+03  0.29673282075E+03  0.78171100277E+02 0.  0.
          6    2    1    2  501    0 -0.26703161534E+01  0.19523980095E+03  0.19294236368E+04  0.19468592212E+04  0.17163783567E+03 0.  0.
         24    2    5    5    0    0 -0.63136560985E+02  0.15758667438E+03  0.13451401976E+04  0.13582310262E+04  0.81052970291E+02 0.  0.
          5    1    5    5  501    0  0.60466244832E+02  0.37653126573E+02  0.58428343920E+03  0.58862819507E+03  0.47000000000E+01 0. -1.
        -13    1    6    6    0    0 -0.23399935435E+02  0.11802381705E+03  0.11097770322E+04  0.11162805381E+04  0.00000000000E+00 0.  1.
         14    1    6    6    0    0 -0.39736625550E+02  0.39562857326E+02  0.23536316535E+03  0.24195048810E+03  0.00000000000E+00 0. -1.
         -5    1    3    3    0  503  0.19462991009E+02 -0.70975427050E+02  0.60543471729E+01  0.73993677997E+02  0.47000000000E+01 0.  1.
         13    1    4    4    0    0 -0.31393279155E+02 -0.19777389733E+02  0.10563194519E+03  0.11195888069E+03  0.00000000000E+00 0. -1.
        -14    1    4    4    0    0  0.14600604299E+02 -0.10448698417E+03  0.15169278631E+03  0.18477394006E+03  0.00000000000E+00 0.  1.
</event>
<event>
12    1  0.8462562E-002  0.2345177E+03  0.7818608E-02  0.1123602E+00
         21   -1    0    0  503  502  0.00000000000E+00  0.00000000000E+00  0.14351631226E+03  0.14351631226E+03  0.00000000000E+00 0. -1.
         21   -1    0    0  501  503 -0.00000000000E+00 -0.00000000000E+00 -0.38482334516E+03  0.38482334516E+03  0.00000000000E+00 0.  1.
          6    2    1    2  501    0 -0.68220218526E+02 -0.14444918557E+03 -0.98915651639E+02  0.25397886008E+03  0.17088414146E+03 0.  0.
         24    2    3    3    0    0 -0.10174792091E+03 -0.12281489924E+03 -0.11330167491E+03  0.21130337722E+03  0.79848035674E+02 0.  0.
         -6    2    1    2    0  502  0.68220218526E+02  0.14444918557E+03 -0.14239138126E+03  0.27436079733E+03  0.17169442690E+03 0.  0.
        -24    2    5    5    0    0  0.66047426823E+02  0.12340715383E+03 -0.23894007902E+02  0.15389833174E+03  0.59347996525E+02 0.  0.
          5    1    3    3  501    0  0.33527702388E+02 -0.21634286330E+02  0.14386023270E+02  0.42675482867E+02  0.47000000000E+01 0. -1.
        -11    1    4    4    0    0 -0.96471378563E+02 -0.12867553220E+03 -0.84960879578E+02  0.18188587226E+03  0.00000000000E+00 0.  1.
         12    1    4    4    0    0 -0.52765423503E+01  0.58606329623E+01 -0.28340795332E+02  0.29417504958E+02  0.00000000000E+00 0. -1.
         -5    1    5    5    0  502  0.21727917025E+01  0.21042031740E+02 -0.11849737336E+03  0.12046246560E+03  0.47000000000E+01 0.  1.
         11    1    6    6    0    0  0.14471724431E+02 -0.20637158058E+01  0.45118967201E+01  0.15298592842E+02  0.00000000000E+00 0. -1.
        -12    1    6    6    0    0  0.51575702392E+02  0.12547086963E+03 -0.28405904622E+02  0.13859973889E+03  0.00000000000E+00 0.  1.
</event>
<event>
12    1  0.8462562E-002  0.2066317E+03  0.7818608E-02  0.1146204E+00
         21   -1    0    0  503  502  0.00000000000E+00  0.00000000000E+00  0.88183257859E+02  0.88183257859E+02  0.00000000000E+00 0.  1.
         21   -1    0    0  501  503 -0.00000000000E+00 -0.00000000000E+00 -0.47574534678E+03  0.47574534678E+03  0.00000000000E+00 0. -1.
          6    2    1    2  501    0  0.55850537861E+02 -0.77973910143E+02 -0.24523910952E+03  0.32068502282E+03  0.18302308536E+03 0.  0.
         24    2    3    3    0    0 -0.21047141357E+01 -0.41638907280E+02 -0.31838179685E+02  0.96539778558E+02  0.81043387992E+02 0.  0.
         -6    2    1    2    0  502 -0.55850537861E+02  0.77973910143E+02 -0.14232297940E+03  0.24324358183E+03  0.17237284123E+03 0.  0.
        -24    2    5    5    0    0  0.21688524419E+02  0.84855392687E+02 -0.72644148327E+02  0.13866399261E+03  0.79244563225E+02 0.  0.
          5    1    3    3  501    0  0.57955251996E+02 -0.36335002863E+02 -0.21340092984E+03  0.22414524426E+03  0.47000000000E+01 0. -1.
        -11    1    4    4    0    0  0.12672622199E+02 -0.63245321232E+02 -0.18186214429E+02  0.67017194857E+02  0.00000000000E+00 0.  1.
         12    1    4    4    0    0 -0.14777336335E+02  0.21606413952E+02 -0.13651965256E+02  0.29522583701E+02  0.00000000000E+00 0. -1.
         -5    1    5    5    0  502 -0.77539062280E+02 -0.68814825439E+01 -0.69678831071E+02  0.10457958922E+03  0.47000000000E+01 0.  1.
         11    1    6    6    0    0  0.40319468318E+01  0.21407153682E+01 -0.51208693339E+02  0.51411764520E+02  0.00000000000E+00 0. -1.
        -12    1    6    6    0    0  0.17656577587E+02  0.82714677319E+02 -0.21435454987E+02  0.87252228089E+02  0.00000000000E+00 0.  1.
</event>
<event>
12    1  0.8462562E-002  0.1888513E+03  0.7818608E-02  0.1160346E+00
         21   -1    0    0  501  502  0.00000000000E+00  0.00000000000E+00  0.11140440036E+03  0.11140440036E+03  0.00000000000E+00 0. -1.
         21   -1    0    0  502  503 -0.00000000000E+00 -0.00000000000E+00 -0.10892073677E+04  0.10892073677E+04  0.00000000000E+00 0. -1.
         -6    2    1    2    0  503  0.49457173905E+02  0.46178050480E+02 -0.99673870244E+03  0.10144717091E+04  0.17631330986E+03 0.  0.
        -24    2    3    3    0    0  0.43886220941E+02  0.31232261022E+02 -0.99276206715E+03  0.99737446465E+03  0.79232860941E+02 0.  0.
          6    2    1    2  501    0 -0.49457173905E+02 -0.46178050480E+02  0.18935735093E+02  0.18614005897E+03  0.17236918254E+03 0.  0.
         24    2    5    5    0    0 -0.74394602989E+02 -0.81303205273E+02  0.34613312702E+02  0.14005830218E+03  0.79205293081E+02 0.  0.
          5    1    5    5  501    0  0.24937429084E+02  0.35125154793E+02 -0.15677577609E+02  0.46081756784E+02  0.47000000000E+01 0. -1.
        -11    1    6    6    0    0 -0.58534943249E+02 -0.60499035181E+02 -0.13534943583E+02  0.85262345363E+02  0.00000000000E+00 0.  1.
         12    1    6    6    0    0 -0.15859659740E+02 -0.20804170092E+02  0.48148256285E+02  0.54795956818E+02  0.00000000000E+00 0. -1.
         -5    1    3    3    0  503  0.55709529643E+01  0.14945789458E+02 -0.39766352851E+01  0.17097244446E+02  0.47000000000E+01 0.  1.
         13    1    4    4    0    0  0.43493220902E+02 -0.14692325171E+02 -0.35414252432E+03  0.35710565974E+03  0.00000000000E+00 0. -1.
        -14    1    4    4    0    0  0.39300003843E+00  0.45924586193E+02 -0.63861954283E+03  0.64026880492E+03  0.00000000000E+00 0.  1.
</event>
<event>
12    1  0.8462562E-002  0.1798821E+03  0.7818608E-02  0.1168353E+00
         21   -1    0    0  503  502  0.00000000000E+00  0.00000000000E+00  0.17976194384E+02  0.17976194384E+02  0.00000000000E+00 0.  1.
         21   -1    0    0  501  503 -0.00000000000E+00 -0.00000000000E+00 -0.18447247496E+04  0.18447247496E+04  0.00000000000E+00 0.  1.
          6    2    1    2  501    0 -0.14471543276E+01  0.45401034614E+02 -0.74624200645E+03  0.76761625782E+03  0.17405240271E+03 0.  0.
         24    2    3    3    0    0  0.19291472923E+01 -0.22569295393E+02 -0.14880017819E+03  0.16629255688E+03  0.70700967028E+02 0.  0.
         -6    2    1    2    0  502  0.14471543276E+01 -0.45401034614E+02 -0.10805065487E+04  0.10950846861E+04  0.17219965077E+03 0.  0.
        -24    2    5    5    0    0  0.30902980045E+02  0.34164851115E+02 -0.62110824552E+03  0.62789386126E+03  0.79705816154E+02 0.  0.
          5    1    3    3  501    0 -0.33763016199E+01  0.67970330007E+02 -0.59744182825E+03  0.60132370095E+03  0.47000000000E+01 0. -1.
        -13    1    4    4    0    0 -0.14080138278E+02 -0.18697453657E+02 -0.83059435123E+01  0.24836138283E+02  0.00000000000E+00 0.  1.
         14    1    4    4    0    0  0.16009285570E+02 -0.38718417356E+01 -0.14049423468E+03  0.14145641860E+03  0.00000000000E+00 0. -1.
         -5    1    5    5    0  502 -0.29455825717E+02 -0.79565885729E+02 -0.45939830321E+03  0.46719082486E+03  0.47000000000E+01 0.  1.
         13    1    6    6    0    0 -0.65995449131E+00  0.23578960943E+02 -0.44849142074E+02  0.50673942849E+02  0.00000000000E+00 0. -1.
        -14    1    6    6    0    0  0.31562934536E+02  0.10585890172E+02 -0.57625910344E+03  0.57721991841E+03  0.00000000000E+00 0.  1.
</event>
<event>
12    1  0.8462562E-002  0.2019452E+03  0.7818608E-02  0.1148390E+00
         21   -1    0    0  503  502  0.00000000000E+00  0.00000000000E+00  0.17145145185E+02  0.17145145185E+02  0.00000000000E+00 0.  1.
         21   -1    0    0  501  503 -0.00000000000E+00 -0.00000000000E+00 -0.24853608502E+04  0.24853608502E+04  0.00000000000E+00 0.  1.
          6    2    1    2  501    0  0.10314745025E+03 -0.35416621442E+02 -0.95225755829E+03  0.97315614298E+03  0.16835880657E+03 0.  0.
         24    2    3    3    0    0  0.10643992607E+03  0.26101337888E+02 -0.70544132835E+03  0.71872414603E+03  0.83103505553E+02 0.  0.
         -6    2    1    2    0  502 -0.10314745025E+03  0.35416621442E+02 -0.15159581467E+04  0.15293498524E+04  0.16996509887E+03 0.  0.
        -24    2    5    5    0    0 -0.11226700192E+03 -0.25083602223E+02 -0.10428664223E+04  0.10522950201E+04  0.80754986032E+02 0.  0.
          5    1    3    3  501    0 -0.32924758127E+01 -0.61517959330E+02 -0.24681622994E+03  0.25443199696E+03  0.47000000000E+01 0. -1.
        -13    1    4    4    0    0  0.52794857928E+02  0.26617635790E+02 -0.15868247194E+03  0.16933966594E+03  0.00000000000E+00 0.  1.
         14    1    4    4    0    0  0.53645068140E+02 -0.51629790229E+00 -0.54675885641E+03  0.54938448009E+03  0.00000000000E+00 0. -1.
         -5    1    5    5    0  502  0.91195516700E+01  0.60500223665E+02 -0.47309172443E+03  0.47705483228E+03  0.47000000000E+01 0.  1.
         13    1    6    6    0    0 -0.70625630646E+02  0.12797705008E+02 -0.35833501119E+03  0.36545278929E+03  0.00000000000E+00 0. -1.
        -14    1    6    6    0    0 -0.41641371279E+02 -0.37881307231E+02 -0.68453141108E+03  0.68684223079E+03  0.00000000000E+00 0.  1.
</event>
<event>
12    1  0.8462562E-002  0.1831548E+03  0.7818608E-02  0.1165440E+00
         21   -1    0    0  501  502  0.00000000000E+00  0.00000000000E+00  0.18908621126E+03  0.18908621126E+03  0.00000000000E+00 0. -1.
         21   -1    0    0  502  503 -0.00000000000E+00 -0.00000000000E+00 -0.48495905236E+03  0.48495905236E+03  0.00000000000E+00 0. -1.
         -6    2    1    2    0  503 -0.51403534681E+02 -0.32680421767E+02 -0.41788087707E+03  0.45625662385E+03  0.17272911174E+03 0.  0.
        -24    2    3    3    0    0  0.26745186904E+02  0.15462639412E+02 -0.16954062265E+03  0.19145490749E+03  0.83405998771E+02 0.  0.
          6    2    1    2  501    0  0.51403534681E+02  0.32680421767E+02  0.12200803597E+03  0.21778863977E+03  0.16981047502E+03 0.  0.
         24    2    5    5    0    0  0.19318628237E+02 -0.45143908373E+02  0.49326105771E+02  0.10647457704E+03  0.80576603212E+02 0.  0.
          5    1    5    5  501    0  0.32084906444E+02  0.77824330140E+02  0.72681930200E+02  0.11131406273E+03  0.47000000000E+01 0. -1.
        -11    1    6    6    0    0 -0.28054114342E+02  0.11859312788E+01  0.15656658235E+02  0.32149194572E+02  0.00000000000E+00 0.  1.
         12    1    6    6    0    0  0.47372742579E+02 -0.46329839652E+02  0.33669447536E+02  0.74325382468E+02  0.00000000000E+00 0. -1.
         -5    1    3    3    0  503 -0.78148721586E+02 -0.48143061179E+02 -0.24834025442E+03  0.26480171637E+03  0.47000000000E+01 0.  1.
         13    1    4    4    0    0  0.14602554559E+02  0.11466145089E+02 -0.17610746603E+03  0.17708344552E+03  0.00000000000E+00 0. -1.
        -14    1    4    4    0    0  0.12142632345E+02  0.39964943238E+01  0.65668433819E+01  0.14371461970E+02  0.00000000000E+00 0.  1.
</event>
<event>
12    1  0.8462562E-002  0.1932841E+03  0.7818608E-02  0.1155637E+00
         21   -1    0    0  503  502  0.00000000000E+00  0.00000000000E+00  0.23160143933E+03  0.23160143933E+03  0.00000000000E+00 0. -1.
         21   -1    0    0  501  503 -0.00000000000E+00 -0.00000000000E+00 -0.62821262604E+03  0.62821262604E+03  0.00000000000E+00 0. -1.
          6    2    1    2  501    0  0.25027274366E+02  0.85118546771E+02 -0.56915039852E+03  0.60107479574E+03  0.17171838128E+03 0.  0.
         24    2    3    3    0    0  0.51831332498E+02  0.49638515587E+02 -0.18010220075E+03  0.20946544915E+03  0.79300078282E+02 0.  0.
         -6    2    1    2    0  502 -0.25027274366E+02 -0.85118546771E+02  0.17253921182E+03  0.25873926963E+03  0.17118615180E+03 0.  0.
        -24    2    5    5    0    0  0.79221295361E+01  0.19323481651E+02  0.92021198092E+02  0.12272808975E+03  0.78473728317E+02 0.  0.
          5    1    3    3  501    0 -0.26804058131E+02  0.35480031185E+02 -0.38904819777E+03  0.39160934659E+03  0.47000000000E+01 0. -1.
        -13    1    4    4    0    0  0.13335038563E+02  0.64305112690E+02 -0.10659564030E+03  0.12520224160E+03  0.00000000000E+00 0.  1.
         14    1    4    4    0    0  0.38496293935E+02 -0.14666597103E+02 -0.73506560450E+02  0.84263207549E+02  0.00000000000E+00 0. -1.
         -5    1    5    5    0  502 -0.32949403902E+02 -0.10444202842E+03  0.80518013725E+02  0.13601117988E+03  0.47000000000E+01 0.  1.
         13    1    6    6    0    0  0.16221683619E+02 -0.22801028621E+02  0.92286131162E+01  0.29465186672E+02  0.00000000000E+00 0. -1.
        -14    1    6    6    0    0 -0.82995540828E+01  0.42124510271E+02  0.82792584976E+02  0.93262903078E+02  0.00000000000E+00 0.  1.
</event>
<event>
12    1  0.8462562E-002  0.2788629E+03  0.7818608E-02  0.1096733E+00
         21   -1    0    0  501  502  0.00000000000E+00  0.00000000000E+00  0.15477306973E+04  0.15477306973E+04  0.00000000000E+00 0. -1.
         21   -1    0    0  502  503 -0.00000000000E+00 -0.00000000000E+00 -0.49702869174E+02  0.49702869174E+02  0.00000000000E+00 0.  1.
         -6    2    1    2    0  503  0.10223809207E+03 -0.19226338287E+03  0.74339298870E+03  0.79397583723E+03  0.17420292364E+03 0.  0.
        -24    2    3    3    0    0  0.50059598278E+02 -0.15885500261E+03  0.35144234762E+03  0.39713064056E+03  0.80375037998E+02 0.  0.
          6    2    1    2  501    0 -0.10223809207E+03  0.19226338287E+03  0.75463483939E+03  0.80345772920E+03  0.16927122003E+03 0.  0.
         24    2    5    5    0    0 -0.34572557004E+02  0.18909257887E+03  0.60335089808E+03  0.63763372753E+03  0.74787694061E+02 0.  0.
          5    1    5    5  501    0 -0.67665535062E+02  0.31708040014E+01  0.15128394131E+03  0.16582400168E+03  0.47000000000E+01 0. -1.
        -11    1    6    6    0    0 -0.47076999902E+02  0.75480711576E+02  0.31898286549E+03  0.33115502445E+03  0.00000000000E+00 0.  1.
         12    1    6    6    0    0  0.12504442898E+02  0.11361186729E+03  0.28436803259E+03  0.30647870308E+03  0.00000000000E+00 0. -1.
         -5    1    3    3    0  503  0.52178493788E+02 -0.33408380259E+02  0.39195064108E+03  0.39684519668E+03  0.47000000000E+01 0.  1.
         11    1    4    4    0    0  0.33610542642E+02 -0.80688586871E+02  0.26677571952E+03  0.28073047778E+03  0.00000000000E+00 0. -1.
        -12    1    4    4    0    0  0.16449055636E+02 -0.78166415741E+02  0.84666628102E+02  0.11640016278E+03  0.00000000000E+00 0.  1.
</event>
<event>
12    1  0.8462562E-002  0.1960304E+03  0.7818608E-02  0.1153344E+00
         21   -1    0    0  503  502  0.00000000000E+00  0.00000000000E+00  0.53795038344E+02  0.53795038344E+02  0.00000000000E+00 0.  1.
         21   -1    0    0  501  503 -0.00000000000E+00 -0.00000000000E+00 -0.71111977244E+03  0.71111977244E+03  0.00000000000E+00 0.  1.
          6    2    1    2  501    0  0.87322814059E+02  0.35087521245E+02 -0.33782678193E+03  0.39058270591E+03  0.17196368096E+03 0.  0.
         24    2    3    3    0    0  0.81722624621E+02  0.57852831391E+02 -0.13957501254E+03  0.19089425975E+03  0.83270023441E+02 0.  0.
         -6    2    1    2    0  502 -0.87322814059E+02 -0.35087521245E+02 -0.31949795217E+03  0.37433210487E+03  0.17084839857E+03 0.  0.
        -24    2    5    5    0    0 -0.87658419538E+02 -0.83564178896E+02 -0.25547436647E+03  0.29388828290E+03  0.80225933394E+02 0.  0.
          5    1    3    3  501    0  0.56001894375E+01 -0.22765310146E+02 -0.19825176939E+03  0.19968844617E+03  0.47000000000E+01 0. -1.
        -11    1    4    4    0    0 -0.37582117173E+01  0.14543990694E+02  0.63578821530E+01  0.16311789788E+02  0.00000000000E+00 0.  1.
         12    1    4    4    0    0  0.85480836339E+02  0.43308840697E+02 -0.14593289469E+03  0.17458246996E+03  0.00000000000E+00 0. -1.
         -5    1    5    5    0  502  0.33560547900E+00  0.48476657651E+02 -0.64023585696E+02  0.80443821972E+02  0.47000000000E+01 0.  1.
         13    1    6    6    0    0 -0.43136629825E+02  0.45912894790E+01 -0.10813238503E+03  0.11650949087E+03  0.00000000000E+00 0. -1.
        -14    1    6    6    0    0 -0.44521789713E+02 -0.88155468375E+02 -0.14734198144E+03  0.17737879202E+03  0.00000000000E+00 0.  1.
</event>
<event>
12    1  0.8462562E-002  0.2073320E+03  0.7818608E-02  0.1143808E+00
         21   -1    0    0  503  502  0.00000000000E+00  0.00000000000E+00  0.40804989472E+03  0.40804989472E+03  0.00000000000E+00 0. -1.
         21   -1    0    0  501  503 -0.00000000000E+00 -0.00000000000E+00 -0.10591260095E+03  0.10591260095E+03  0.00000000000E+00 0.  1.
          6    2    1    2  501    0 -0.10404675530E+03 -0.49380132421E+02  0.17386297728E+03  0.27015755153E+03  0.17173422201E+03 0.  0.
         24    2    3    3    0    0 -0.60806136850E+01  0.13199202198E+02  0.11395506055E+03  0.13929660811E+03  0.78781954811E+02 0.  0.
         -6    2    1    2    0  502  0.10404675530E+03  0.49380132421E+02  0.12827431649E+03  0.24380494414E+03  0.17240193081E+03 0.  0.
        -24    2    5    5    0    0 -0.49551127118E+01  0.55100366729E+02  0.56394474159E+02  0.11302677301E+03  0.80833849004E+02 0.  0.
          5    1    3    3  501    0 -0.97966141617E+02 -0.62579334619E+02  0.59907916731E+02  0.13086094342E+03  0.47000000000E+01 0. -1.
        -13    1    4    4    0    0 -0.30469334055E+02  0.18680122780E+02  0.17764663187E+02  0.39911283655E+02  0.00000000000E+00 0.  1.
         14    1    4    4    0    0  0.24388720370E+02 -0.54809205822E+01  0.96190397365E+02  0.99385324454E+02  0.00000000000E+00 0. -1.
         -5    1    5    5    0  502  0.10900186801E+03 -0.57202343082E+01  0.71879842328E+02  0.13077817113E+03  0.47000000000E+01 0.  1.
         11    1    6    6    0    0  0.30769030069E+01  0.51482370091E+02  0.75819331837E+02  0.91697725395E+02  0.00000000000E+00 0. -1.
        -12    1    6    6    0    0 -0.80320157188E+01  0.36179966380E+01 -0.19424857678E+02  0.21329047611E+02  0.00000000000E+00 0.  1.
</event>
<event>
12    1  0.8462562E-002  0.1826644E+03  0.7818608E-02  0.1166655E+00
         21   -1    0    0  501  502  0.00000000000E+00  0.00000000000E+00  0.82327477191E+02  0.82327477191E+02  0.00000000000E+00 0.  1.
         21   -1    0    0  502  503 -0.00000000000E+00 -0.00000000000E+00 -0.39385370041E+03  0.39385370041E+03  0.00000000000E+00 0. -1.
         -6    2    1    2    0  503  0.44433572683E+02 -0.14735044894E+02 -0.13917286376E+03  0.22503984912E+03  0.17053557914E+03 0.  0.
        -24    2    3    3    0    0  0.66797276723E+02 -0.61309210309E+02 -0.73001212533E+02  0.14095616718E+03  0.79490682392E+02 0.  0.
          6    2    1    2  501    0 -0.44433572683E+02  0.14735044894E+02 -0.17235335945E+03  0.25114132848E+03  0.17656393297E+03 0.  0.
         24    2    5    5    0    0  0.23836427927E+02 -0.25909923032E+02 -0.38954784838E+02  0.95802743091E+02  0.80132333763E+02 0.  0.
          5    1    5    5  501    0 -0.68270000610E+02  0.40644967926E+02 -0.13339857462E+03  0.15533858539E+03  0.47000000000E+01 0. -1.
        -11    1    6    6    0    0  0.19539612108E+02  0.98771395676E+01  0.18038687342E+02  0.28368090673E+02  0.00000000000E+00 0.  1.
         12    1    6    6    0    0  0.42968158187E+01 -0.35787062599E+02 -0.56993472180E+02  0.67434652419E+02  0.00000000000E+00 0. -1.
         -5    1    3    3    0  503 -0.22363704039E+02  0.46574165416E+02 -0.66171651228E+02  0.84083681941E+02  0.47000000000E+01 0.  1.
         13    1    4    4    0    0  0.13572204055E+02 -0.57710003070E+02 -0.63314175159E+02  0.86737154400E+02  0.00000000000E+00 0. -1.
        -14    1    4    4    0    0  0.53225072668E+02 -0.35992072393E+01 -0.96870373736E+01  0.54219012776E+02  0.00000000000E+00 0.  1.
</event>
<event>
12    1  0.8462562E-002  0.2063782E+03  0.7818608E-02  0.1144518E+00
         21   -1    0    0  503  502  0.00000000000E+00  0.00000000000E+00  0.46442731560E+03  0.46442731560E+03  0.00000000000E+00 0.  1.
         21   -1    0    0  501  503 -0.00000000000E+00 -0.00000000000E+00 -0.26692897624E+03  0.26692897624E+03  0.00000000000E+00 0. -1.
          6    2    1    2  501    0  0.84393923173E+01  0.11312325892E+03 -0.19764096022E+03  0.28556820716E+03  0.17210216947E+03 0.  0.
         24    2    3    3    0    0  0.71673991193E+02  0.90158806412E+02 -0.14138569391E+03  0.19774608260E+03  0.76471088372E+02 0.  0.
         -6    2    1    2    0  502 -0.84393923173E+01 -0.11312325892E+03  0.39513929958E+03  0.44578808468E+03  0.17240607681E+03 0.  0.
        -24    2    5    5    0    0 -0.48309098859E+02 -0.18004333430E+02  0.12130208297E+03  0.15313451015E+03  0.77961899744E+02 0.  0.
          5    1    3    3  501    0 -0.63234598876E+02  0.22964452504E+02 -0.56255266312E+02  0.87822124556E+02  0.47000000000E+01 0. -1.
        -11    1    4    4    0    0  0.66955010315E+02  0.58380670512E+02 -0.52393966028E+02  0.10313294222E+03  0.00000000000E+00 0.  1.
         12    1    4    4    0    0  0.47189808781E+01  0.31778135900E+02 -0.88991727878E+02  0.94613140380E+02  0.00000000000E+00 0. -1.
         -5    1    5    5    0  502  0.39869706542E+02 -0.95118925486E+02  0.27383721661E+03  0.29265357453E+03  0.47000000000E+01 0.  1.
         11    1    6    6    0    0 -0.77233811779E+00 -0.61688709635E+01 -0.10678039436E+02  0.12356051203E+02  0.00000000000E+00 0. -1.
        -12    1    6    6    0    0 -0.47536760742E+02 -0.11835462466E+02  0.13198012241E+03  0.14077845895E+03  0.00000000000E+00 0.  1.
</event>
<event>
12    1  0.8462562E-002  0.2023073E+03  0.7818608E-02  0.1147838E+00
         21   -1    0    0  501  502  0.00000000000E+00  0.00000000000E+00  0.37543455186E+03  0.37543455186E+03  0.00000000000E+00 0.  1.
         21   -1    0    0  502  503 -0.00000000000E+00 -0.00000000000E+00 -0.13937439401E+03  0.13937439401E+03  0.00000000000E+00 0.  1.
         -6    2    1    2    0  503  0.97872390068E+02 -0.40633459735E+02 -0.22300419734E+01  0.20231960620E+03  0.17233156176E+03 0.  0.
        -24    2    3    3    0    0  0.11692491994E+01 -0.62924489712E+02 -0.14171443660E+02  0.10225425483E+03  0.79336273326E+02 0.  0.
          6    2    1    2  501    0 -0.97872390068E+02  0.40633459735E+02  0.23829019982E+03  0.31248933967E+03  0.17215482940E+03 0.  0.
         24    2    5    5    0    0 -0.13190699482E+03  0.74338568301E+01  0.17807375848E+03  0.23562141553E+03  0.79702386956E+02 0.  0.
          5    1    5    5  501    0  0.34034604748E+02  0.33199602905E+02  0.60216441345E+02  0.76867924141E+02  0.47000000000E+01 0. -1.
        -11    1    6    6    0    0 -0.52109752703E+02 -0.31678773733E+02  0.45797576274E+02  0.76265254374E+02  0.00000000000E+00 0.  1.
         12    1    6    6    0    0 -0.79797242113E+02  0.39112630563E+02  0.13227618220E+03  0.15935616115E+03  0.00000000000E+00 0. -1.
         -5    1    3    3    0  503  0.96703140868E+02  0.22291029977E+02  0.11941401686E+02  0.10006535137E+03  0.47000000000E+01 0.  1.
         11    1    4    4    0    0  0.13347693044E+02 -0.79518615664E+02 -0.12615910420E+02  0.81612084537E+02  0.00000000000E+00 0. -1.
        -12    1    4    4    0    0 -0.12178443845E+02  0.16594125952E+02 -0.15555332394E+01  0.20642170289E+02  0.00000000000E+00 0.  1.
</event>
<event>
12    1  0.8462562E-002  0.1838784E+03  0.7818608E-02  0.1164197E+00
         21   -1    0    0  501  502  0.00000000000E+00  0.00000000000E+00  0.22986365972E+03  0.22986365972E+03  0.00000000000E+00 0.  1.
         21   -1    0    0  502  503 -0.00000000000E+00 -0.00000000000E+00 -0.25634602101E+03  0.25634602101E+03  0.00000000000E+00 0.  1.
         -6    2    1    2    0  503 -0.13996987049E+02  0.55115902942E+02 -0.17219314705E+03  0.25191614461E+03  0.17486447787E+03 0.  0.
        -24    2    3    3    0    0  0.60250191671E+02  0.14010158206E+02 -0.95465617600E+02  0.13741055709E+03  0.77081819692E+02 0.  0.
          6    2    1    2  501    0  0.13996987049E+02 -0.55115902942E+02  0.14571078576E+03  0.23429353612E+03  0.17443666351E+03 0.  0.
         24    2    5    5    0    0  0.59587423307E+02 -0.49922745864E+02  0.37829335374E+02  0.11696513335E+03  0.78783514990E+02 0.  0.
          5    1    5    5  501    0 -0.45590436258E+02 -0.51931570786E+01  0.10788145039E+03  0.11732840277E+03  0.47000000000E+01 0. -1.
        -11    1    6    6    0    0  0.24049439569E+02  0.16591795639E+02  0.28779047452E+02  0.41010935107E+02  0.00000000000E+00 0.  1.
         12    1    6    6    0    0  0.35537983738E+02 -0.66514541503E+02  0.90502879224E+01  0.75954198245E+02  0.00000000000E+00 0. -1.
         -5    1    3    3    0  503 -0.74247178720E+02  0.41105744737E+02 -0.76727529445E+02  0.11450558752E+03  0.47000000000E+01 0.  1.
         13    1    4    4    0    0  0.19382087165E+02  0.31602525588E+02 -0.60863990337E+01  0.37568992262E+02  0.00000000000E+00 0. -1.
        -14    1    4    4    0    0  0.40868104506E+02 -0.17592367382E+02 -0.89379218567E+02  0.99841564829E+02  0.00000000000E+00 0.  1.
</event>
<event>
12    1  0.8462562E-002  0.3295465E+03  0.7818608E-02  0.1071928E+00
         21   -1    0    0  501  502  0.00000000000E+00  0.00000000000E+00  0.14504206137E+03  0.14504206137E+03  0.00000000000E+00 0. -1.
         21   -1    0    0  502  503 -0.00000000000E+00 -0.00000000000E+00 -0.97720544638E+03  0.97720544638E+03  0.00000000000E+00 0.  1.
         -6    2    1    2    0  503  0.27990470113E+03 -0.28492008012E+02 -0.69185756573E+03  0.76407633855E+03  0.16120584242E+03 0.  0.
        -24    2    3    3    0    0  0.26013139645E+03  0.15999005398E+02 -0.54798914150E+03  0.61212026810E+03  0.80466215473E+02 0.  0.
          6    2    1    2  501    0 -0.27990470113E+03  0.28492008012E+02 -0.14030581928E+03  0.35817116921E+03  0.17158795788E+03 0.  0.
         24    2    5    5    0    0 -0.17842057756E+03  0.69663001429E+02 -0.13621934420E+03  0.24847674221E+03  0.80611075035E+02 0.  0.
          5    1    5    5  501    0 -0.10148412357E+03 -0.41170993417E+02 -0.40864750843E+01  0.10969442700E+03  0.47000000000E+01 0. -1.
        -13    1    6    6    0    0 -0.80509553455E+01  0.24492874836E+02 -0.40216691576E+02  0.47771341629E+02  0.00000000000E+00 0.  1.
         14    1    6    6    0    0 -0.17036962222E+03  0.45170126593E+02 -0.96002652623E+02  0.20070540058E+03  0.00000000000E+00 0. -1.
         -5    1    3    3    0  503  0.19773304681E+02 -0.44491013410E+02 -0.14386842423E+03  0.15195607044E+03  0.47000000000E+01 0.  1.
         13    1    4    4    0    0  0.19027330251E+03  0.10985604762E+02 -0.47068056060E+03  0.50780390239E+03  0.00000000000E+00 0. -1.
        -14    1    4    4    0    0  0.69858093938E+02  0.50134006358E+01 -0.77308580899E+02  0.10431636571E+03  0.00000000000E+00 0.  1.
</event>
<event>
12    1  0.8462562E-002  0.1967959E+03  0.7818608E-02  0.1153184E+00
         21   -1    0    0  503  502  0.00000000000E+00  0.00000000000E+00  0.40927730813E+02  0.40927730813E+02  0.00000000000E+00 0. -1.
         21   -1    0    0  501  503 -0.00000000000E+00 -0.00000000000E+00 -0.23340305333E+04  0.23340305333E+04  0.00000000000E+00 0. -1.
          6    2    1    2  501    0  0.43063699022E+01  0.89504083560E+02 -0.20711963957E+04  0.20805247243E+04  0.17521156694E+03 0.  0.
         24    2    3    3    0    0 -0.53098937107E+02  0.58433638618E+02 -0.81845024340E+03  0.82607035931E+03  0.79356476487E+02 0.  0.
         -6    2    1    2    0  502 -0.43063699022E+01 -0.89504083560E+02 -0.22190640685E+03  0.29443353985E+03  0.17152005769E+03 0.  0.
        -24    2    5    5    0    0 -0.18749423242E+02 -0.20565360041E+02 -0.30062268661E+02  0.90013842294E+02  0.80151587020E+02 0.  0.
          5    1    3    3  501    0  0.57405307009E+02  0.31070444942E+02 -0.12527461523E+04  0.12544543650E+04  0.47000000000E+01 0. -1.
        -13    1    4    4    0    0 -0.38300936439E+02  0.63895325462E+02 -0.79028951598E+03  0.79379285297E+03  0.00000000000E+00 0.  1.
         14    1    4    4    0    0 -0.14798000668E+02 -0.54616868442E+01 -0.28160727421E+02  0.32277506345E+02  0.00000000000E+00 0. -1.
         -5    1    5    5    0  502  0.14443053340E+02 -0.68938723518E+02 -0.19184413819E+03  0.20441969756E+03  0.47000000000E+01 0.  1.
         11    1    6    6    0    0 -0.44103787484E+02 -0.30639166601E+02 -0.67432260762E+01  0.54123688884E+02  0.00000000000E+00 0. -1.
        -12    1    6    6    0    0  0.25354364242E+02  0.10073806560E+02 -0.23319042585E+02  0.35890153410E+02  0.00000000000E+00 0.  1.
</event>
<event>
12    1  0.8462562E-002  0.2710792E+03  0.7818608E-02  0.1101062E+00
         21   -1    0    0  501  502  0.00000000000E+00  0.00000000000E+00  0.50508634077E+03  0.50508634077E+03  0.00000000000E+00 0.  1.
         21   -1    0    0  502  503 -0.00000000000E+00 -0.00000000000E+00 -0.19360079453E+03  0.19360079453E+03  0.00000000000E+00 0.  1.
         -6    2    1    2    0  503  0.11480217483E+03 -0.17096422958E+03 -0.21681816786E+02  0.26917061984E+03  0.17197213223E+03 0.  0.
        -24    2    3    3    0    0  0.35541195085E+02 -0.53284001605E+02 -0.64581660693E+02  0.12086881414E+03  0.79599735923E+02 0.  0.
          6    2    1    2  501    0 -0.11480217483E+03  0.17096422958E+03  0.33316736303E+03  0.42951651546E+03  0.17628283560E+03 0.  0.
         24    2    5    5    0    0 -0.10976225057E+03  0.45028352115E+02  0.15550656622E+03  0.21163880941E+03  0.80829384312E+02 0.  0.
          5    1    5    5  501    0 -0.50399242552E+01  0.12593587747E+03  0.17766079682E+03  0.21787770605E+03  0.47000000000E+01 0. -1.
        -13    1    6    6    0    0 -0.12289887606E+03  0.42158648083E+02  0.13764797449E+03  0.18928404641E+03  0.00000000000E+00 0.  1.
         14    1    6    6    0    0  0.13136625486E+02  0.28697040320E+01  0.17858591725E+02  0.22354763000E+02  0.00000000000E+00 0. -1.
         -5    1    3    3    0  503  0.79260979742E+02 -0.11768022798E+03  0.42899843906E+02  0.14830180570E+03  0.47000000000E+01 0.  1.
         13    1    4    4    0    0 -0.23859997799E+02 -0.31712011900E+01 -0.10950306797E+02  0.26443623635E+02  0.00000000000E+00 0. -1.
        -14    1    4    4    0    0  0.59401192885E+02 -0.50112800415E+02 -0.53631353896E+02  0.94425190507E+02  0.00000000000E+00 0.  1.
</event>
<event>
12    1  0.8462562E-002  0.1829252E+03  0.7818608E-02  0.1165104E+00
         21   -1    0    0  501  502  0.00000000000E+00  0.00000000000E+00  0.11290325936E+03  0.11290325936E+03  0.00000000000E+00 0.  1.
         21   -1    0    0  502  503 -0.00000000000E+00 -0.00000000000E+00 -0.29750638196E+03  0.29750638196E+03  0.00000000000E+00 0. -1.
         -6    2    1    2    0  503  0.50431931252E+02 -0.37312010444E+02 -0.10829594264E+03  0.21220664219E+03  0.17137118189E+03 0.  0.
        -24    2    3    3    0    0 -0.18911339074E+02 -0.37788221371E+00 -0.10569455369E+03  0.13345719017E+03  0.79257185098E+02 0.  0.
          6    2    1    2  501    0 -0.50431931252E+02  0.37312010444E+02 -0.76307179958E+02  0.19820299913E+03  0.17183153767E+03 0.  0.
         24    2    5    5    0    0 -0.94056406450E+02  0.60403476267E+02 -0.53615163459E+02  0.14367476568E+03  0.72613118660E+02 0.  0.
          5    1    5    5  501    0  0.43624475198E+02 -0.23091465823E+02 -0.22692016499E+02  0.54528233448E+02  0.47000000000E+01 0. -1.
        -13    1    6    6    0    0  0.65405539338E+01  0.20964175639E+01  0.92295602524E+01  0.11504720545E+02  0.00000000000E+00 0.  1.
         14    1    6    6    0    0 -0.10059696038E+03  0.58307058703E+02 -0.62844723712E+02  0.13217004514E+03  0.00000000000E+00 0. -1.
         -5    1    3    3    0  503  0.69343270326E+02 -0.36934128230E+02 -0.26013889574E+01  0.78749452011E+02  0.47000000000E+01 0.  1.
         11    1    4    4    0    0 -0.22417948353E+02 -0.21530114651E+02 -0.10753542537E+03  0.11193738408E+03  0.00000000000E+00 0. -1.
        -12    1    4    4    0    0  0.35066092789E+01  0.21152232437E+02  0.18408716844E+01  0.21519806093E+02  0.00000000000E+00 0.  1.
</event>
<event>
12    1  0.8462562E-002  0.1936442E+03  0.7818608E-02  0.1155725E+00
         21   -1    0    0  503  502  0.00000000000E+00  0.00000000000E+00  0.16858472612E+04  0.16858472612E+04  0.00000000000E+00 0.  1.
         21   -1    0    0  501  503 -0.00000000000E+00 -0.00000000000E+00 -0.27686586917E+02  0.27686586917E+02  0.00000000000E+00 0.  1.
          6    2    1    2  501    0 -0.43985595790E+02 -0.71271958520E+02  0.43613168401E+03  0.47625742663E+03  0.17203449047E+03 0.  0.
         24    2    3    3    0    0 -0.47204875311E+02 -0.10992378671E+03  0.27988955875E+03  0.31520458037E+03  0.81879321245E+02 0.  0.
         -6    2    1    2    0  502  0.43985595790E+02  0.71271958520E+02  0.12220289903E+04  0.12372764215E+04  0.17459571989E+03 0.  0.
        -24    2    5    5    0    0  0.76494804116E+02  0.87772121974E+01  0.53678142196E+03  0.54840142425E+03  0.81739419182E+02 0.  0.
          5    1    3    3  501    0  0.32192795205E+01  0.38651828191E+02  0.15624212526E+03  0.16105284626E+03  0.47000000000E+01 0. -1.
        -13    1    4    4    0    0 -0.62464441103E+02 -0.91001166091E+02  0.17022573071E+03  0.20287882597E+03  0.00000000000E+00 0.  1.
         14    1    4    4    0    0  0.15259565792E+02 -0.18922620620E+02  0.10966382804E+03  0.11232575440E+03  0.00000000000E+00 0. -1.
         -5    1    5    5    0  502 -0.32509208326E+02  0.62494746323E+02  0.68524756836E+03  0.68887499729E+03  0.47000000000E+01 0.  1.
         13    1    6    6    0    0  0.86932930125E+01 -0.31075866496E+02  0.11990483912E+03  0.12417106453E+03  0.00000000000E+00 0. -1.
        -14    1    6    6    0    0  0.67801511104E+02  0.39853078694E+02  0.41687658284E+03  0.42423035972E+03  0.00000000000E+00 0.  1.
</event>
<event>
12    1  0.8462562E-002  0.1949829E+03  0.7818608E-02  0.1154773E+00
         21   -1    0    0  503  502  0.00000000000E+00  0.00000000000E+00  0.24614085603E+02  0.24614085603E+02  0.00000000000E+00 0. -1.
         21   -1    0    0  501  503 -0.00000000000E+00 -0.00000000000E+00 -0.15350981684E+04  0.15350981684E+04  0.00000000000E+00 0. -1.
          6    2    1    2  501    0  0.47155304874E+02  0.75615827579E+02 -0.83023142047E+03  0.85206684647E+03  0.16968300785E+03 0.  0.
         24    2    3    3    0    0 -0.40337354931E+02  0.37492573579E+02 -0.46564673241E+03  0.47516840818E+03  0.76976239523E+02 0.  0.
         -6    2    1    2    0  502 -0.47155304874E+02 -0.75615827579E+02 -0.68025266229E+03  0.70764540750E+03  0.17342710874E+03 0.  0.
        -24    2    5    5    0    0 -0.28689007848E+02 -0.27480234056E+02 -0.14377586262E+03  0.16867649739E+03  0.78753029543E+02 0.  0.
          5    1    3    3  501    0  0.87492659804E+02  0.38123254000E+02 -0.36458468806E+03  0.37689843829E+03  0.47000000000E+01 0. -1.
        -13    1    4    4    0    0 -0.41704550639E+02  0.57343333268E+02 -0.40965992018E+03  0.41575086003E+03  0.00000000000E+00 0.  1.
         14    1    4    4    0    0  0.13671957086E+01 -0.19850759689E+02 -0.55986812232E+02  0.59417548151E+02  0.00000000000E+00 0. -1.
         -5    1    5    5    0  502 -0.18466297026E+02 -0.48135593523E+02 -0.53647679967E+03  0.53896891011E+03  0.47000000000E+01 0.  1.
         11    1    6    6    0    0 -0.52712851082E+02 -0.23419981389E+02 -0.12581535450E+03  0.13840752734E+03  0.00000000000E+00 0. -1.
        -12    1    6    6    0    0  0.24023843234E+02 -0.40602526672E+01 -0.17960508127E+02  0.30268970045E+02  0.00000000000E+00 0.  1.
</event>
<event>
12    1  0.8462562E-002  0.1895702E+03  0.7818608E-02  0.1159056E+00
         21   -1    0    0  501  502  0.00000000000E+00  0.00000000000E+00  0.69412512520E+02  0.69412512520E+02  0.00000000000E+00 0. -1.
         21   -1    0    0  502  503 -0.00000000000E+00 -0.00000000000E+00 -0.51800528953E+03  0.51800528953E+03  0.00000000000E+00 0. -1.
         -6    2    1    2    0  503 -0.77757914557E+02  0.82679153090E+01 -0.24626890469E+03  0.31078166223E+03  0.17269110127E+03 0.  0.
        -24    2    3    3    0    0 -0.12064008684E+03 -0.46553350880E+01 -0.18780720007E+03  0.23698632357E+03  0.79468675974E+02 0.  0.
          6    2    1    2  501    0  0.77757914557E+02 -0.82679153090E+01 -0.20232387232E+03  0.27663613982E+03  0.17169144663E+03 0.  0.
         24    2    5    5    0    0  0.29769109578E+02 -0.63308056149E+02 -0.15827917468E+03  0.19122906812E+03  0.81376590600E+02 0.  0.
          5    1    5    5  501    0  0.47988804979E+02  0.55040140840E+02 -0.44044697637E+02  0.85407071703E+02  0.47000000000E+01 0. -1.
        -13    1    6    6    0    0  0.55039466897E+02 -0.28079548528E+02 -0.73609317880E+02  0.96104815907E+02  0.00000000000E+00 0.  1.
         14    1    6    6    0    0 -0.25270357319E+02 -0.35228507621E+02 -0.84669856798E+02  0.95124252209E+02  0.00000000000E+00 0. -1.
         -5    1    3    3    0  503  0.42882172286E+02  0.12923250397E+02 -0.58461704623E+02  0.73795338662E+02  0.47000000000E+01 0.  1.
         13    1    4    4    0    0 -0.10605911774E+02  0.42153554579E+01 -0.86199892846E+02  0.86952148408E+02  0.00000000000E+00 0. -1.
        -14    1    4    4    0    0 -0.11003417507E+03 -0.88706905459E+01 -0.10160730722E+03  0.15003417516E+03  0.00000000000E+00 0.  1.
</event>
<event>
12    1  0.8462562E-002  0.1893731E+03  0.7818608E-02  0.1159168E+00
         21   -1    0    0  503  502  0.00000000000E+00  0.00000000000E+00  0.24378660180E+02  0.24378660180E+02  0.00000000000E+00 0. -1.
         21   -1    0    0  501  503 -0.00000000000E+00 -0.00000000000E+00 -0.21012280958E+04  0.21012280958E+04  0.00000000000E+00 0. -1.
          6    2    1    2  501    0 -0.14910119536E+02  0.78888981469E+02 -0.16238451117E+04  0.16348501815E+04  0.17151205863E+03 0.  0.
         24    2    3    3    0    0 -0.19195675884E+02  0.10647819762E+03 -0.84763539825E+03  0.85812427101E+03  0.78647413160E+02 0.  0.
         -6    2    1    2    0  502  0.14910119536E+02 -0.78888981469E+02 -0.45300432389E+03  0.49075657440E+03  0.17083124654E+03 0.  0.
        -24    2    5    5    0    0  0.74732458472E+02 -0.54673400561E+02 -0.25139233582E+03  0.27901477332E+03  0.77955218813E+02 0.  0.
          5    1    3    3  501    0  0.42855563484E+01 -0.27589216152E+02 -0.77620971343E+03  0.77672591052E+03  0.47000000000E+01 0. -1.
        -13    1    4    4    0    0  0.28783877198E+02  0.51146838962E+02 -0.30799781649E+03  0.31353973542E+03  0.00000000000E+00 0.  1.
         14    1    4    4    0    0 -0.47979553083E+02  0.55331358659E+02 -0.53963758176E+03  0.54458453559E+03  0.00000000000E+00 0. -1.
         -5    1    5    5    0  502 -0.59822338936E+02 -0.24215580908E+02 -0.20161198807E+03  0.21174180108E+03  0.47000000000E+01 0.  1.
         13    1    6    6    0    0  0.50236749229E+02  0.95413988678E+01 -0.12681997869E+03  0.13674090924E+03  0.00000000000E+00 0. -1.
        -14    1    6    6    0    0  0.24495709243E+02 -0.64214799429E+02 -0.12457235713E+03  0.14227386407E+03  0.00000000000E+00 0.  1.
</event>
<event>
12    1  0.8462562E-002  0.2060709E+03  0.7818608E-02  0.1148442E+00
         21   -1    0    0  501  502  0.00000000000E+00  0.00000000000E+00  0.22049651628E+03  0.22049651628E+03  0.00000000000E+00 0. -1.
         21   -1    0    0  502  503 -0.00000000000E+00 -0.00000000000E+00 -0.18102705099E+03  0.18102705099E+03  0.00000000000E+00 0. -1.
         -6    2    1    2    0  503  0.61559216212E+02 -0.47188169982E+02  0.50360663547E+02  0.19516510670E+03  0.17186320710E+03 0.  0.
        -24    2    3    3    0    0  0.65868784337E+02 -0.36406657872E+02  0.97005884715E+02  0.14686728026E+03  0.80595997764E+02 0.  0.
          6    2    1    2  501    0 -0.61559216212E+02  0.47188169982E+02 -0.10891198260E+02  0.20635846057E+03  0.19091604322E+03 0.  0.
         24    2    5    5    0    0 -0.11432292965E+03  0.52167396513E+02 -0.26499341873E+02  0.15091022976E+03  0.79249686583E+02 0.  0.
          5    1    5    5  501    0  0.52763713437E+02 -0.49792265308E+01  0.15608143614E+02  0.55448230807E+02  0.47000000000E+01 0. -1.
        -11    1    6    6    0    0 -0.15807781177E+02  0.46950478447E+02 -0.13916941677E+02  0.51457891890E+02  0.00000000000E+00 0.  1.
         12    1    6    6    0    0 -0.98515148473E+02  0.52169180658E+01 -0.12582400196E+02  0.99452337868E+02  0.00000000000E+00 0. -1.
         -5    1    3    3    0  503 -0.43095681248E+01 -0.10781512111E+02 -0.46645221167E+02  0.48297826437E+02  0.47000000000E+01 0.  1.
         11    1    4    4    0    0  0.68535975638E+02 -0.28576792556E+02  0.31199867743E+02  0.80543434100E+02  0.00000000000E+00 0. -1.
        -12    1    4    4    0    0 -0.26671913015E+01 -0.78298653157E+01  0.65806016972E+02  0.66323846164E+02  0.00000000000E+00 0.  1.
</event>
<event>
12    1  0.8462562E-002  0.1768248E+03  0.7818608E-02  0.1172106E+00
         21   -1    0    0  501  502  0.00000000000E+00  0.00000000000E+00  0.16948741787E+04  0.16948741787E+04  0.00000000000E+00 0.  1.
         21   -1    0    0  502  503 -0.00000000000E+00 -0.00000000000E+00 -0.60947425408E+02  0.60947425408E+02  0.00000000000E+00 0.  1.
         -6    2    1    2    0  503 -0.71042144352E+01  0.16101872425E+02  0.76371249551E+02  0.18826102545E+03  0.17117215249E+03 0.  0.
        -24    2    3    3    0    0 -0.74123873892E+02 -0.31638717709E+00  0.34208402030E+02  0.10726108895E+03  0.69572103978E+02 0.  0.
          6    2    1    2  501    0  0.71042144352E+01 -0.16101872425E+02  0.15575555037E+04  0.15675605786E+04  0.17594681118E+03 0.  0.
         24    2    5    5    0    0 -0.22419994520E+02 -0.73771343621E+02  0.93853785574E+03  0.94514400966E+03  0.80616530856E+02 0.  0.
          5    1    5    5  501    0  0.29524208955E+02  0.57669471196E+02  0.61901764797E+03  0.62241656896E+03  0.47000000000E+01 0. -1.
        -11    1    6    6    0    0  0.13374596181E+02 -0.34345017907E+02  0.68911715565E+03  0.69010210425E+03  0.00000000000E+00 0.  1.
         12    1    6    6    0    0 -0.35794590701E+02 -0.39426325714E+02  0.24942070009E+03  0.25504190541E+03  0.00000000000E+00 0. -1.
         -5    1    3    3    0  503  0.67019659457E+02  0.16418259602E+02  0.42162847520E+02  0.80999936501E+02  0.47000000000E+01 0.  1.
         11    1    4    4    0    0 -0.26083707471E+02  0.25295544542E+02  0.38141362274E+02  0.52678153775E+02  0.00000000000E+00 0. -1.
        -12    1    4    4    0    0 -0.48040166421E+02 -0.25611931719E+02 -0.39329602433E+01  0.54582935175E+02  0.00000000000E+00 0.  1.
</event>
<event>
12    1  0.8462562E-002  0.2053716E+03  0.7818608E-02  0.1145894E+00
         21   -1    0    0  503  502  0.00000000000E+00  0.00000000000E+00  0.23144423139E+03  0.23144423139E+03  0.00000000000E+00 0. -1.
         21   -1    0    0  501  503 -0.00000000000E+00 -0.00000000000E+00 -0.34916790772E+03  0.34916790772E+03  0.00000000000E+00 0.  1.
          6    2    1    2  501    0 -0.16153021129E+00  0.11327087541E+03 -0.26137989721E+03  0.33241079826E+03  0.17131015973E+03 0.  0.
         24    2    3    3    0    0 -0.40489846232E+01  0.56040297708E+02 -0.25643063407E+03  0.27464370961E+03  0.80719191621E+02 0.  0.
         -6    2    1    2    0  502  0.16153021129E+00 -0.11327087541E+03  0.14365622087E+03  0.24820134085E+03  0.16773931708E+03 0.  0.
        -24    2    5    5    0    0  0.18241773507E+02 -0.32037361117E+02  0.13931331004E+03  0.16473440179E+03  0.79812718102E+02 0.  0.
          5    1    3    3  501    0  0.38874544120E+01  0.57230577701E+02 -0.49492631414E+01  0.57767088653E+02  0.47000000000E+01 0. -1.
        -11    1    4    4    0    0 -0.35702959643E+02  0.69922551705E+01 -0.13643282044E+03  0.14120023886E+03  0.00000000000E+00 0.  1.
         12    1    4    4    0    0  0.31653975020E+02  0.49048042537E+02 -0.11999781362E+03  0.13344347075E+03  0.00000000000E+00 0. -1.
         -5    1    5    5    0  502 -0.18080243296E+02 -0.81233514292E+02  0.43429108383E+01  0.83466939062E+02  0.47000000000E+01 0.  1.
         11    1    6    6    0    0 -0.18894708518E+02  0.47136700027E+01  0.92676849178E+02  0.94700723696E+02  0.00000000000E+00 0. -1.
        -12    1    6    6    0    0  0.37136482026E+02 -0.36751031119E+02  0.46636460858E+02  0.70033678091E+02  0.00000000000E+00 0.  1.
</event>
<event>
12    1  0.8462562E-002  0.2243177E+03  0.7818608E-02  0.1130741E+00
         21   -1    0    0  503  502  0.00000000000E+00  0.00000000000E+00  0.12639605132E+04  0.12639605132E+04  0.00000000000E+00 0.  1.
         21   -1    0    0  501  503 -0.00000000000E+00 -0.00000000000E+00 -0.10136833679E+03  0.10136833679E+03  0.00000000000E+00 0.  1.
          6    2    1    2  501    0 -0.56325041290E+02  0.13214621510E+03  0.49053921050E+02  0.22942133207E+03  0.17202537021E+03 0.  0.
         24    2    3    3    0    0  0.17174968135E+02  0.20014522134E+02  0.46350891718E+02  0.95238008513E+02  0.78906986230E+02 0.  0.
         -6    2    1    2    0  502  0.56325041290E+02 -0.13214621510E+03  0.11135382554E+04  0.11359075179E+04  0.17228845196E+03 0.  0.
        -24    2    5    5    0    0  0.89178634113E+02 -0.55724842820E+02  0.82503633237E+03  0.83561593584E+03  0.80690492659E+02 0.  0.
          5    1    3    3  501    0 -0.73500009425E+02  0.11213169296E+03  0.27030293325E+01  0.13418332355E+03  0.47000000000E+01 0. -1.
        -13    1    4    4    0    0 -0.17717912397E+02 -0.33473292337E+01 -0.13217365069E+02  0.22356828310E+02  0.00000000000E+00 0.  1.
         14    1    4    4    0    0  0.34892880532E+02  0.23361851368E+02  0.59568256787E+02  0.72881180203E+02  0.00000000000E+00 0. -1.
         -5    1    5    5    0  502 -0.32853592823E+02 -0.76421372276E+02  0.28850192302E+03  0.30029158211E+03  0.47000000000E+01 0.  1.
         11    1    6    6    0    0  0.28083503047E+02 -0.40469585301E+00  0.61097458847E+02  0.67243932066E+02  0.00000000000E+00 0. -1.
        -12    1    6    6    0    0  0.61095131066E+02 -0.55320146967E+02  0.76393887352E+03  0.76837200377E+03  0.00000000000E+00 0.  1.
</event>
<event>
12    1  0.8462562E-002  0.1871892E+03  0.7818608E-02  0.1162214E+00
         21   -1    0    0  501  502  0.00000000000E+00  0.00000000000E+00  0.49025875278E+02  0.49025875278E+02  0.00000000000E+00 0. -1.
         21   -1    0    0  502  503 -0.00000000000E+00 -0.00000000000E+00 -0.70366135914E+03  0.70366135914E+03  0.00000000000E+00 0. -1.
         -6    2    1    2    0  503 -0.32308520582E+02  0.47857391785E+02 -0.29085028040E+03  0.34588100876E+03  0.17806070921E+03 0.  0.
        -24    2    3    3    0    0  0.29408448214E+02  0.41051404869E+02 -0.73338807169E+02  0.11963194980E+03  0.79894606248E+02 0.  0.
          6    2    1    2  501    0  0.32308520582E+02 -0.47857391785E+02 -0.36378520347E+03  0.40680622566E+03  0.17267733066E+03 0.  0.
         24    2    5    5    0    0 -0.33276475629E+02  0.11648832809E+02 -0.12868285744E+03  0.15553429010E+03  0.79928833729E+02 0.  0.
          5    1    5    5  501    0  0.65584996211E+02 -0.59506224594E+02 -0.23510234602E+03  0.25127193556E+03  0.47000000000E+01 0. -1.
        -13    1    6    6    0    0 -0.52373914751E+02 -0.14904561672E+02 -0.85390905782E+02  0.10127576065E+03  0.00000000000E+00 0.  1.
         14    1    6    6    0    0  0.19097439122E+02  0.26553394481E+02 -0.43291951661E+02  0.54258529450E+02  0.00000000000E+00 0. -1.
         -5    1    3    3    0  503 -0.61716968796E+02  0.68059869167E+01 -0.21751147323E+03  0.22624905896E+03  0.47000000000E+01 0.  1.
         11    1    4    4    0    0  0.70794625518E+01 -0.20536079849E+02 -0.58443424187E+00  0.21729954647E+02  0.00000000000E+00 0. -1.
        -12    1    4    4    0    0  0.22328985662E+02  0.61587484718E+02 -0.72754372927E+02  0.97901995151E+02  0.00000000000E+00 0.  1.
</event>
<event>
12    1  0.8462562E-002  0.2611387E+03  0.7818608E-02  0.1107001E+00
         21   -1    0    0  501  502  0.00000000000E+00  0.00000000000E+00  0.79766521595E+02  0.79766521595E+02  0.00000000000E+00 0.  1.
         21   -1    0    0  502  503 -0.00000000000E+00 -0.00000000000E+00 -0.90918199502E+03  0.90918199502E+03  0.00000000000E+00 0. -1.
         -6    2    1    2    0  503  0.91208468224E+02  0.17126867995E+03 -0.55056024278E+03  0.60935212907E+03  0.17476123961E+03 0.  0.
        -24    2    3    3    0    0  0.74966631406E+02  0.11970973785E+03 -0.21390575542E+03  0.26835292727E+03  0.79417908635E+02 0.  0.
          6    2    1    2  501    0 -0.91208468224E+02 -0.17126867995E+03 -0.27885523065E+03  0.37959638754E+03  0.16935534349E+03 0.  0.
         24    2    5    5    0    0 -0.35962844174E+02 -0.14675630390E+03 -0.25719474751E+03  0.31522091018E+03  0.10190360725E+03 0.  0.
          5    1    5    5  501    0 -0.55245624050E+02 -0.24512376048E+02 -0.21660483142E+02  0.64375477367E+02  0.47000000000E+01 0. -1.
        -13    1    6    6    0    0 -0.10670704009E+02 -0.20003686026E+02  0.47130463248E+01  0.23156514944E+02  0.00000000000E+00 0.  1.
         14    1    6    6    0    0 -0.25292140164E+02 -0.12675261788E+03 -0.26190779383E+03  0.29206439523E+03  0.00000000000E+00 0. -1.
         -5    1    3    3    0  503  0.16241836818E+02  0.51558942105E+02 -0.33665448735E+03  0.34099920180E+03  0.47000000000E+01 0.  1.
         11    1    4    4    0    0  0.64746371752E+02  0.40164759588E+02 -0.13951430741E+03  0.15896396617E+03  0.00000000000E+00 0. -1.
        -12    1    4    4    0    0  0.10220259654E+02  0.79544978259E+02 -0.74391448012E+02  0.10938896110E+03  0.00000000000E+00 0.  1.
</event>
<event>
12    1  0.8462562E-002  0.2072487E+03  0.7818608E-02  0.1143837E+00
         21   -1    0    0  503  502  0.00000000000E+00  0.00000000000E+00  0.50358726977E+03  0.50358726977E+03  0.00000000000E+00 0. -1.
         21   -1    0    0  501  503 -0.00000000000E+00 -0.00000000000E+00 -0.91113938679E+02  0.91113938679E+02  0.00000000000E+00 0. -1.
          6    2    1    2  501    0  0.83119656256E+01 -0.11642050483E+03  0.28218851389E+03  0.34990302858E+03  0.17081846892E+03 0.  0.
         24    2    3    3    0    0 -0.61925341326E+02 -0.70515260844E+02  0.16004700063E+03  0.20164241354E+03  0.78977658968E+02 0.  0.
         -6    2    1    2    0  502 -0.83119656256E+01  0.11642050483E+03  0.13028481721E+03  0.24479817987E+03  0.17125767883E+03 0.  0.
        -24    2    5    5    0    0 -0.45831767315E+02  0.13077764373E+03  0.12745809657E+03  0.20425260914E+03  0.79184714222E+02 0.  0.
          5    1    3    3  501    0  0.70237306952E+02 -0.45905243984E+02  0.12214151325E+03  0.14826061504E+03  0.47000000000E+01 0. -1.
        -13    1    4    4    0    0 -0.35226254609E+02 -0.58284236365E+02  0.42033303197E+02  0.80029618268E+02  0.00000000000E+00 0.  1.
         14    1    4    4    0    0 -0.26699086717E+02 -0.12231024479E+02  0.11801369743E+03  0.12161279527E+03  0.00000000000E+00 0. -1.
         -5    1    5    5    0  502  0.37519801690E+02 -0.14357138902E+02  0.28267206445E+01  0.40545570731E+02  0.47000000000E+01 0.  1.
         13    1    6    6    0    0 -0.58766896091E+02  0.10457816292E+03  0.67725417458E+02  0.13775656938E+03  0.00000000000E+00 0. -1.
        -14    1    6    6    0    0  0.12935128776E+02  0.26199480805E+02  0.59732679108E+02  0.66496039765E+02  0.00000000000E+00 0.  1.
</event>
<event>
12    1  0.8462562E-002  0.2104811E+03  0.7818608E-02  0.1143495E+00
         21   -1    0    0  501  502  0.00000000000E+00  0.00000000000E+00  0.19720531006E+03  0.19720531006E+03  0.00000000000E+00 0.  1.
         21   -1    0    0  502  503 -0.00000000000E+00 -0.00000000000E+00 -0.44514616323E+03  0.44514616323E+03  0.00000000000E+00 0.  1.
         -6    2    1    2    0  503 -0.21434752823E+02  0.96679540653E+02 -0.35766287846E+03  0.41500001772E+03  0.18573071334E+03 0.  0.
        -24    2    3    3    0    0 -0.13144118251E+02  0.13611415677E+03 -0.21695476651E+03  0.26855997423E+03  0.79719869126E+02 0.  0.
          6    2    1    2  501    0  0.21434752823E+02 -0.96679540653E+02  0.10972202529E+03  0.22735145556E+03  0.17275236410E+03 0.  0.
         24    2    5    5    0    0 -0.13695332606E+02 -0.20910536332E+01  0.95886918780E+02  0.12539752012E+03  0.79613455017E+02 0.  0.
          5    1    5    5  501    0  0.35130085429E+02 -0.94588487019E+02  0.13835106508E+02  0.10195393544E+03  0.47000000000E+01 0. -1.
        -13    1    6    6    0    0  0.17820631608E+02 -0.31727013792E+02  0.54468465076E+02  0.65505663899E+02  0.00000000000E+00 0.  1.
         14    1    6    6    0    0 -0.31515964214E+02  0.29635960159E+02  0.41418453704E+02  0.59891856225E+02  0.00000000000E+00 0. -1.
         -5    1    3    3    0  503 -0.82906345715E+01 -0.39434616113E+02 -0.14070811195E+03  0.14644004349E+03  0.47000000000E+01 0.  1.
         13    1    4    4    0    0  0.25744247231E+02  0.12422161724E+02 -0.41615098028E+02  0.50486560106E+02  0.00000000000E+00 0. -1.
        -14    1    4    4    0    0 -0.38888365482E+02  0.12369199504E+03 -0.17533966848E+03  0.21807341413E+03  0.00000000000E+00 0.  1.
</event>
<event>
12    1  0.8462562E-002  0.2213052E+03  0.7818608E-02  0.1133286E+00
         21   -1    0    0  503  502  0.00000000000E+00  0.00000000000E+00  0.24267463893E+03  0.24267463893E+03  0.00000000000E+00 0.  1.
         21   -1    0    0  501  503 -0.00000000000E+00 -0.00000000000E+00 -0.48815139707E+03  0.48815139707E+03  0.00000000000E+00 0. -1.
          6    2    1    2  501    0  0.94853336419E+02 -0.10251166114E+03 -0.40325950958E+03  0.45903313416E+03  0.16907805917E+03 0.  0.
         24    2    3    3    0    0  0.70366913866E+02 -0.85492535138E+02 -0.14678217455E+03  0.20078529017E+03  0.80679922245E+02 0.  0.
         -6    2    1    2    0  502 -0.94853336419E+02  0.10251166114E+03  0.15778275144E+03  0.27179290184E+03  0.17166883451E+03 0.  0.
        -24    2    5    5    0    0 -0.61633271918E+02  0.13813325823E+03  0.13027215245E+03  0.21565562438E+03  0.81590792284E+02 0.  0.
          5    1    3    3  501    0  0.24486422552E+02 -0.17019126000E+02 -0.25647733503E+03  0.25824784399E+03  0.47000000000E+01 0. -1.
        -11    1    4    4    0    0  0.34275997472E+01 -0.57628970636E+02 -0.96841802084E+02  0.11274387490E+03  0.00000000000E+00 0.  1.
         12    1    4    4    0    0  0.66939314119E+02 -0.27863564502E+02 -0.49940372466E+02  0.88041415275E+02  0.00000000000E+00 0. -1.
         -5    1    5    5    0  502 -0.33220064501E+02 -0.35621597088E+02  0.27510598984E+02  0.56137277463E+02  0.47000000000E+01 0.  1.
         13    1    6    6    0    0 -0.48199378402E+02  0.45733505362E+02  0.16475683598E+02  0.68455691809E+02  0.00000000000E+00 0. -1.
        -14    1    6    6    0    0 -0.13433893516E+02  0.92399752864E+02  0.11379646886E+03  0.14719993257E+03  0.00000000000E+00 0.  1.
</event>
<event>
12    1  0.8462562E-002  0.1775154E+03  0.7818608E-02  0.1170483E+00
         21   -1    0    0  501  502  0.00000000000E+00  0.00000000000E+00  0.86399233749E+03  0.86399233749E+03  0.00000000000E+00 0.  1.
         21   -1    0    0  502  503 -0.00000000000E+00 -0.00000000000E+00 -0.43910263769E+02  0.43910263769E+02  0.00000000000E+00 0.  1.
         -6    2    1    2    0  503 -0.42309152613E+02  0.15338848205E+02  0.21960627041E+03  0.28173736069E+03  0.17065661941E+03 0.  0.
        -24    2    3    3    0    0 -0.79104170095E+02  0.76502981490E+01  0.21605889523E+03  0.24368922034E+03  0.79918665627E+02 0.  0.
          6    2    1    2  501    0  0.42309152613E+02 -0.15338848205E+02  0.60047580332E+03  0.62616524057E+03  0.17171596742E+03 0.  0.
         24    2    5    5    0    0  0.36094105985E+02  0.24429208628E+02  0.56500012971E+03  0.57230673552E+03  0.80064238079E+02 0.  0.
          5    1    5    5  501    0  0.62150466274E+01 -0.39768056833E+02  0.35475673605E+02  0.53858505053E+02  0.47000000000E+01 0. -1.
        -13    1    6    6    0    0  0.37676200163E+01 -0.28684410573E+02  0.17070314505E+03  0.17313738504E+03  0.00000000000E+00 0.  1.
         14    1    6    6    0    0  0.32326485969E+02  0.53113619201E+02  0.39429698466E+03  0.39916935047E+03  0.00000000000E+00 0. -1.
         -5    1    3    3    0  503  0.36795017483E+02  0.76885500559E+01  0.35473751782E+01  0.38048140351E+02  0.47000000000E+01 0.  1.
         11    1    4    4    0    0  0.10334107687E+02 -0.24014590387E+00  0.69664447055E+00  0.10360345808E+02  0.00000000000E+00 0. -1.
        -12    1    4    4    0    0 -0.89438277782E+02  0.78904440529E+01  0.21536225076E+03  0.23332887453E+03  0.00000000000E+00 0.  1.
</event>
<event>
12    1  0.8462562E-002  0.2339838E+03  0.7818608E-02  0.1126112E+00
         21   -1    0    0  501  502  0.00000000000E+00  0.00000000000E+00  0.10304972818E+03  0.10304972818E+03  0.00000000000E+00 0. -1.
         21   -1    0    0  502  503 -0.00000000000E+00 -0.00000000000E+00 -0.13186574916E+04  0.13186574916E+04  0.00000000000E+00 0.  1.
         -6    2    1    2    0  503 -0.11449916861E+03  0.10924264779E+03 -0.11732680100E+04  0.11963721094E+04  0.17234960131E+03 0.  0.
        -24    2    3    3    0    0 -0.19242866629E+02  0.37672515822E+02 -0.78096719435E+03  0.78635007726E+03  0.81530233562E+02 0.  0.
          6    2    1    2  501    0  0.11449916861E+03 -0.10924264779E+03 -0.42339753334E+02  0.22533511034E+03  0.15472311246E+03 0.  0.
         24    2    5    5    0    0  0.23920996076E+02 -0.68361686615E+02  0.17375445433E+02  0.10930212671E+03  0.79996965874E+02 0.  0.
          5    1    5    5  501    0  0.90578172530E+02 -0.40880961178E+02 -0.59715198768E+02  0.11603298363E+03  0.47000000000E+01 0. -1.
        -13    1    6    6    0    0  0.17960495854E+02 -0.19313887764E+01  0.35806621427E+02  0.40105159418E+02  0.00000000000E+00 0.  1.
         14    1    6    6    0    0  0.59605002225E+01 -0.66430297839E+02 -0.18431175993E+02  0.69196967292E+02  0.00000000000E+00 0. -1.
         -5    1    3    3    0  503 -0.95256301977E+02  0.71570131971E+02 -0.39230081568E+03  0.41002203214E+03  0.47000000000E+01 0.  1.
         13    1    4    4    0    0 -0.33473514076E+02  0.52851307700E+02 -0.69860276875E+03  0.70139829297E+03  0.00000000000E+00 0. -1.
        -14    1    4    4    0    0  0.14230647447E+02 -0.15178791879E+02 -0.82364425605E+02  0.84951784295E+02  0.00000000000E+00 0.  1.
</event>
<event>
12    1  0.8462562E-002  0.2763586E+03  0.7818608E-02  0.1097762E+00
         21   -1    0    0  503  502  0.00000000000E+00  0.00000000000E+00  0.13645809819E+04  0.13645809819E+04  0.00000000000E+00 0.  1.
         21   -1    0    0  501  503 -0.00000000000E+00 -0.00000000000E+00 -0.64688776993E+02  0.64688776993E+02  0.00000000000E+00 0. -1.
          6    2    1    2  501    0 -0.72071304397E+02  0.20367593606E+03  0.38658576673E+03  0.47520798699E+03  0.17232503016E+03 0.  0.
         24    2    3    3    0    0 -0.41156133073E+02  0.15811609452E+03  0.37798363380E+03  0.41928363032E+03  0.78946871990E+02 0.  0.
         -6    2    1    2    0  502  0.72071304397E+02 -0.20367593606E+03  0.91330643817E+03  0.95406177189E+03  0.17154315706E+03 0.  0.
        -24    2    5    5    0    0  0.42027985951E+02 -0.14234921226E+03  0.37350187261E+03  0.40993437225E+03  0.80702483717E+02 0.  0.
          5    1    3    3  501    0 -0.30915171324E+02  0.45559841535E+02  0.86021329320E+01  0.55924356677E+02  0.47000000000E+01 0. -1.
        -11    1    4    4    0    0 -0.45404994775E+02  0.52665670864E+02  0.98785258014E+02  0.12080485768E+03  0.00000000000E+00 0.  1.
         12    1    4    4    0    0  0.42488617019E+01  0.10545042366E+03  0.27919837578E+03  0.29847877264E+03  0.00000000000E+00 0. -1.
         -5    1    5    5    0  502  0.30043318446E+02 -0.61326723795E+02  0.53980456556E+03  0.54412739963E+03  0.47000000000E+01 0.  1.
         13    1    6    6    0    0  0.41508344877E+02 -0.23807424586E+02  0.77558651568E+02  0.91132214902E+02  0.00000000000E+00 0. -1.
        -14    1    6    6    0    0  0.51964107399E+00 -0.11854178768E+03  0.29594322104E+03  0.31880215735E+03  0.00000000000E+00 0.  1.
</event>
<event>
12    1  0.8462562E-002  0.2053131E+03  0.7818608E-02  0.1147801E+00
         21   -1    0    0  501  502  0.00000000000E+00  0.00000000000E+00  0.13391878157E+03  0.13391878157E+03  0.00000000000E+00 0.  1.
         21   -1    0    0  502  503 -0.00000000000E+00 -0.00000000000E+00 -0.67404684781E+03  0.67404684781E+03  0.00000000000E+00 0.  1.
         -6    2    1    2    0  503 -0.31801365846E+02 -0.10610995198E+03 -0.56863566548E+03  0.60068285683E+03  0.15875366343E+03 0.  0.
        -24    2    3    3    0    0  0.23331535655E+02 -0.19256032764E+02 -0.32545766151E+03  0.33659788617E+03  0.80375942840E+02 0.  0.
          6    2    1    2  501    0  0.31801365846E+02  0.10610995198E+03  0.28507599237E+02  0.20728277255E+03  0.17286646813E+03 0.  0.
         24    2    5    5    0    0 -0.45615105830E+02  0.56728828981E+02  0.41472385944E+02  0.11442814914E+03  0.77941930957E+02 0.  0.
          5    1    5    5  501    0  0.77416471676E+02  0.49381122995E+02 -0.12964786707E+02  0.92854623414E+02  0.47000000000E+01 0. -1.
        -11    1    6    6    0    0 -0.25751387726E+02  0.60827383507E+02  0.58278424364E+02  0.88087906664E+02  0.00000000000E+00 0.  1.
         12    1    6    6    0    0 -0.19863718103E+02 -0.40985545253E+01 -0.16806038420E+02  0.26340242472E+02  0.00000000000E+00 0. -1.
         -5    1    3    3    0  503 -0.55132901501E+02 -0.86853919212E+02 -0.24317800397E+03  0.26408497065E+03  0.47000000000E+01 0.  1.
         11    1    4    4    0    0 -0.10534042696E+02  0.10667246977E+02 -0.23502006167E+03  0.23549774012E+03  0.00000000000E+00 0. -1.
        -12    1    4    4    0    0  0.33865578351E+02 -0.29923279741E+02 -0.90437599837E+02  0.10110014605E+03  0.00000000000E+00 0.  1.
</event>
<event>
12    1  0.8462562E-002  0.1814594E+03  0.7818608E-02  0.1167875E+00
         21   -1    0    0  501  502  0.00000000000E+00  0.00000000000E+00  0.81588853166E+02  0.81588853166E+02  0.00000000000E+00 0. -1.
         21   -1    0    0  502  503 -0.00000000000E+00 -0.00000000000E+00 -0.85364391940E+03  0.85364391940E+03  0.00000000000E+00 0. -1.
         -6    2    1    2    0  503 -0.29476464101E+02 -0.24877894889E+02 -0.72755086801E+03  0.74839561429E+03  0.17110803124E+03 0.  0.
        -24    2    3    3    0    0  0.35937461409E+02 -0.37841008803E+02 -0.55724863923E+03  0.56544216912E+03  0.80469606752E+02 0.  0.
          6    2    1    2  501    0  0.29476464101E+02  0.24877894889E+02 -0.44504198230E+02  0.18683715828E+03  0.17731251638E+03 0.  0.
         24    2    5    5    0    0  0.81780555852E+02  0.36329947877E+02 -0.24262579010E+02  0.12940301617E+03  0.90269282848E+02 0.  0.
          5    1    5    5  501    0 -0.52304091751E+02 -0.11452052988E+02 -0.20241619221E+02  0.57434142113E+02  0.47000000000E+01 0. -1.
        -13    1    6    6    0    0  0.58283172857E+02 -0.20848750897E+02  0.27036055072E+01  0.61958922965E+02  0.00000000000E+00 0.  1.
         14    1    6    6    0    0  0.23497382995E+02  0.57178698774E+02 -0.26966184517E+02  0.67444093206E+02  0.00000000000E+00 0. -1.
         -5    1    3    3    0  503 -0.65413925510E+02  0.12963113914E+02 -0.17030222877E+03  0.18295344517E+03  0.47000000000E+01 0.  1.
         13    1    4    4    0    0 -0.23292738456E+02  0.32147875554E+00 -0.19658535224E+03  0.19796074290E+03  0.00000000000E+00 0. -1.
        -14    1    4    4    0    0  0.59230199864E+02 -0.38162487559E+02 -0.36066328700E+03  0.36748142622E+03  0.00000000000E+00 0.  1.
</event>
<event>
12    1  0.8462562E-002  0.2319973E+03  0.7818608E-02  0.1125334E+00
         21   -1    0    0  501  502  0.00000000000E+00  0.00000000000E+00  0.19975872027E+03  0.19975872027E+03  0.00000000000E+00 0.  1.
         21   -1    0    0  502  503 -0.00000000000E+00 -0.00000000000E+00 -0.40668616983E+03  0.40668616983E+03  0.00000000000E+00 0.  1.
         -6    2    1    2    0  503  0.19685380326E+02  0.15271360659E+03 -0.27992926289E+03  0.36323302221E+03  0.17282614493E+03 0.  0.
        -24    2    3    3    0    0  0.56797747102E+02  0.27290621294E+02 -0.12738912849E+03  0.16223840634E+03  0.78246714616E+02 0.  0.
          6    2    1    2  501    0 -0.19685380326E+02 -0.15271360659E+03  0.73001813332E+02  0.24321186789E+03  0.17353324781E+03 0.  0.
         24    2    5    5    0    0 -0.68316920792E+02 -0.45837450236E+02  0.45526073712E+02  0.12252820788E+03  0.78563762819E+02 0.  0.
          5    1    5    5  501    0  0.48631540466E+02 -0.10687615635E+03  0.27475739620E+02  0.12068366001E+03  0.47000000000E+01 0. -1.
        -11    1    6    6    0    0 -0.35436840636E+00 -0.18874727579E+02  0.45664077671E+02  0.49412436771E+02  0.00000000000E+00 0.  1.
         12    1    6    6    0    0 -0.67962552386E+02 -0.26962722657E+02 -0.13800395896E+00  0.73115771110E+02  0.00000000000E+00 0. -1.
         -5    1    3    3    0  503 -0.37112366775E+02  0.12542298529E+03 -0.15254013440E+03  0.20099461587E+03  0.47000000000E+01 0.  1.
         13    1    4    4    0    0  0.51222482995E+02 -0.14989172547E+02 -0.46456487992E+02  0.70757496665E+02  0.00000000000E+00 0. -1.
        -14    1    4    4    0    0  0.55752641072E+01  0.42279793841E+02 -0.80932640498E+02  0.91480909676E+02  0.00000000000E+00 0.  1.
</event>
<event>
12    1  0.8462562E-002  0.1913047E+03  0.7818608E-02  0.1157625E+00
         21   -1    0    0  503  502  0.00000000000E+00  0.00000000000E+00  0.14185407650E+04  0.14185407650E+04  0.00000000000E+00 0. -1.
         21   -1    0    0  501  503 -0.00000000000E+00 -0.00000000000E+00 -0.52289354135E+02  0.52289354135E+02  0.00000000000E+00 0. -1.
          6    2    1    2  501    0  0.60760178109E+02 -0.56228861466E+02  0.15639867570E+03  0.24594598743E+03  0.17080807612E+03 0.  0.
         24    2    3    3    0    0  0.57404961352E+02  0.32465663851E+01  0.25706733586E+02  0.10224122853E+03  0.80539200883E+02 0.  0.
         -6    2    1    2    0  502 -0.60760178109E+02  0.56228861466E+02  0.12098527352E+04  0.12248841317E+04  0.17246452158E+03 0.  0.
        -24    2    5    5    0    0 -0.31224396665E+02  0.71933045489E+02  0.11561375823E+04  0.11614302789E+04  0.78210342618E+02 0.  0.
          5    1    3    3  501    0  0.33552167573E+01 -0.59475427851E+02  0.13069194211E+03  0.14370475890E+03  0.47000000000E+01 0. -1.
        -13    1    4    4    0    0  0.18672670002E+02 -0.10437485395E+02 -0.27614865199E+02  0.34931225090E+02  0.00000000000E+00 0.  1.
         14    1    4    4    0    0  0.38732291350E+02  0.13684051780E+02  0.53321598784E+02  0.67310003441E+02  0.00000000000E+00 0. -1.
         -5    1    5    5    0  502 -0.29535781444E+02 -0.15704184023E+02  0.53715152894E+02  0.63453852774E+02  0.47000000000E+01 0.  1.
         11    1    6    6    0    0 -0.61769758426E+00  0.13597288595E+02  0.25762324732E+02  0.29137007105E+02  0.00000000000E+00 0. -1.
        -12    1    6    6    0    0 -0.30606699080E+02  0.58335756894E+02  0.11303752575E+04  0.11322932718E+04  0.00000000000E+00 0.  1.
</event>
<event>
12    1  0.8462562E-002  0.1755390E+03  0.7818608E-02  0.1172254E+00
         21   -1    0    0  501  502  0.00000000000E+00  0.00000000000E+00  0.98777100560E+02  0.98777100560E+02  0.00000000000E+00 0. -1.
         21   -1    0    0  502  503 -0.00000000000E+00 -0.00000000000E+00 -0.34570479680E+03  0.34570479680E+03  0.00000000000E+00 0. -1.
         -6    2    1    2    0  503 -0.51681944707E+01  0.34088306984E+02 -0.19343506861E+03  0.26121074136E+03  0.17211973370E+03 0.  0.
        -24    2    3    3    0    0  0.55406034720E+01  0.94162393299E+02 -0.15244811510E+03  0.18755210604E+03  0.55119053728E+02 0.  0.
          6    2    1    2  501    0  0.51681944707E+01 -0.34088306984E+02 -0.53492627626E+02  0.18327115599E+03  0.17186661252E+03 0.  0.
         24    2    5    5    0    0  0.59578862961E+02 -0.53089907840E+02 -0.54404116230E+02  0.12543948221E+03  0.80044216583E+02 0.  0.
          5    1    5    5  501    0 -0.54410668490E+02  0.19001600856E+02  0.91148860374E+00  0.57831673779E+02  0.47000000000E+01 0. -1.
        -11    1    6    6    0    0 -0.86741353445E+01 -0.30470709781E+02  0.51231311255E+01  0.32092853583E+02  0.00000000000E+00 0.  1.
         12    1    6    6    0    0  0.68252998305E+02 -0.22619198059E+02 -0.59527247356E+02  0.93346628628E+02  0.00000000000E+00 0. -1.
         -5    1    3    3    0  503 -0.10708797943E+02 -0.60074086315E+02 -0.40986953508E+02  0.73658635324E+02  0.47000000000E+01 0.  1.
         11    1    4    4    0    0 -0.52529447306E+01  0.34926564908E+02 -0.10533685253E+03  0.11110045394E+03  0.00000000000E+00 0. -1.
        -12    1    4    4    0    0  0.10793548203E+02  0.59235828391E+02 -0.47111262570E+02  0.76451652100E+02  0.00000000000E+00 0.  1.
</event>
<event>
12    1  0.8462562E-002  0.1795997E+03  0.7818608E-02  0.1168662E+00
         21   -1    0    0  503  502  0.00000000000E+00  0.00000000000E+00  0.11015419910E+04  0.11015419910E+04  0.00000000000E+00 0.  1.
         21   -1    0    0  501  503 -0.00000000000E+00 -0.00000000000E+00 -0.29045650133E+02  0.29045650133E+02  0.00000000000E+00 0.  1.
          6    2    1    2  501    0 -0.41654182314E+02  0.27900167862E+02  0.51003295591E+03  0.54073067545E+03  0.17246030554E+03 0.  0.
         24    2    3    3    0    0  0.26586641746E+02  0.18953921044E+02  0.13533311576E+03  0.15973342401E+03  0.78317391942E+02 0.  0.
         -6    2    1    2    0  502  0.41654182314E+02 -0.27900167862E+02  0.56246338493E+03  0.58985696566E+03  0.17044849743E+03 0.  0.
        -24    2    5    5    0    0 -0.30484929101E+02 -0.77190055173E+01  0.16336579916E+03  0.18376300648E+03  0.78048345711E+02 0.  0.
          5    1    3    3  501    0 -0.68240824060E+02  0.89462468173E+01  0.37469984015E+03  0.38099725144E+03  0.47000000000E+01 0. -1.
        -11    1    4    4    0    0 -0.67847166824E+00  0.14137035830E+02 -0.62475730404E+01  0.15470884744E+02  0.00000000000E+00 0.  1.
         12    1    4    4    0    0  0.27265113414E+02  0.48168852148E+01  0.14158068880E+03  0.14426253926E+03  0.00000000000E+00 0. -1.
         -5    1    5    5    0  502  0.72139111415E+02 -0.20181162345E+02  0.39909758578E+03  0.40609395918E+03  0.47000000000E+01 0.  1.
         11    1    6    6    0    0 -0.42058930893E+02  0.18433768623E+02  0.13833189307E+03  0.14575482885E+03  0.00000000000E+00 0. -1.
        -12    1    6    6    0    0  0.11574001792E+02 -0.26152774140E+02  0.25033906090E+02  0.38008177631E+02  0.00000000000E+00 0.  1.
</event>
<event>
12    1  0.8462562E-002  0.2171736E+03  0.7818608E-02  0.1136164E+00
         21   -1    0    0  503  502  0.00000000000E+00  0.00000000000E+00  0.25018547373E+03  0.25018547373E+03  0.00000000000E+00 0. -1.
         21   -1    0    0  501  503 -0.00000000000E+00 -0.00000000000E+00 -0.19093335677E+03  0.19093335677E+03  0.00000000000E+00 0.  1.
          6    2    1    2  501    0  0.45670774485E+02  0.12234005413E+03  0.57800000899E+02  0.22394041798E+03  0.17249800641E+03 0.  0.
         24    2    3    3    0    0  0.35573997471E+02  0.55453679584E+02 -0.34186045647E+02  0.10966332157E+03  0.80726318540E+02 0.  0.
         -6    2    1    2    0  502 -0.45670774485E+02 -0.12234005413E+03  0.14521160558E+01  0.21717841252E+03  0.17352649866E+03 0.  0.
        -24    2    5    5    0    0 -0.18013651670E+02 -0.13078548362E+03  0.49007383141E+02  0.16132292801E+03  0.78702154537E+02 0.  0.
          5    1    3    3  501    0  0.10096777014E+02  0.66886374544E+02  0.91986046546E+02  0.11427709641E+03  0.47000000000E+01 0. -1.
        -13    1    4    4    0    0  0.15624867110E+02  0.40037887666E+02  0.21852170776E+02  0.48215000660E+02  0.00000000000E+00 0.  1.
         14    1    4    4    0    0  0.19949130361E+02  0.15415791917E+02 -0.56038216423E+02  0.61448320909E+02  0.00000000000E+00 0. -1.
         -5    1    5    5    0  502 -0.27657122815E+02  0.84454294890E+01 -0.47555267085E+02  0.55855484504E+02  0.47000000000E+01 0.  1.
         13    1    6    6    0    0 -0.24696823403E+01  0.10369383140E+02  0.85482706261E+01  0.13663687945E+02  0.00000000000E+00 0. -1.
        -14    1    6    6    0    0 -0.15543969330E+02 -0.14115486676E+03  0.40459112514E+02  0.14765924007E+03  0.00000000000E+00 0.  1.
</event>
<event>
12    1  0.8462562E-002  0.2314757E+03  0.7818608E-02  0.1125720E+00
         21   -1    0    0  503  502  0.00000000000E+00  0.00000000000E+00  0.16583971217E+04  0.16583971217E+04  0.00000000000E+00 0. -1.
         21   -1    0    0  501  503 -0.00000000000E+00 -0.00000000000E+00 -0.46917443594E+02  0.46917443594E+02  0.00000000000E+00 0. -1.
          6    2    1    2  501    0  0.64565996919E+02 -0.14012213677E+03  0.32769143802E+03  0.40082490925E+03  0.17168560847E+03 0.  0.
         24    2    3    3    0    0 -0.21915066244E+02 -0.76699181440E+02  0.23133558642E+03  0.25657517550E+03  0.77146824816E+02 0.  0.
         -6    2    1    2    0  502 -0.64565996919E+02  0.14012213677E+03  0.12837882401E+04  0.13044896560E+04  0.17256313673E+03 0.  0.
        -24    2    5    5    0    0  0.32593456463E+01  0.13536975700E+03  0.74438476501E+03  0.76079759142E+03  0.79804149549E+02 0.  0.
          5    1    3    3  501    0  0.86481063163E+02 -0.63422955333E+02  0.96355851597E+02  0.14424973375E+03  0.47000000000E+01 0. -1.
        -13    1    4    4    0    0 -0.71685834941E+01  0.11199711826E+02  0.78762121588E+02  0.79876742117E+02  0.00000000000E+00 0.  1.
         14    1    4    4    0    0 -0.14746482750E+02 -0.87898893266E+02  0.15257346483E+03  0.17669843339E+03  0.00000000000E+00 0. -1.
         -5    1    5    5    0  502 -0.67825342565E+02  0.47523797743E+01  0.53940347507E+03  0.54369206461E+03  0.47000000000E+01 0.  1.
         13    1    6    6    0    0 -0.21500360023E+02  0.46866034370E+02  0.43518661609E+03  0.43823062591E+03  0.00000000000E+00 0. -1.
        -14    1    6    6    0    0  0.24759705669E+02  0.88503722629E+02  0.30919814892E+03  0.32256696551E+03  0.00000000000E+00 0.  1.
</event>
<event>
12    1  0.8462562E-002  0.2312472E+03  0.7818608E-02  0.1126153E+00
         21   -1    0    0  503  502  0.00000000000E+00  0.00000000000E+00  0.70007227568E+02  0.70007227568E+02  0.00000000000E+00 0. -1.
         21   -1    0    0  501  503 -0.00000000000E+00 -0.00000000000E+00 -0.10841106891E+04  0.10841106891E+04  0.00000000000E+00 0. -1.
          6    2    1    2  501    0  0.74288210694E+01  0.15103429185E+03 -0.82253849854E+03  0.85383070824E+03  0.17201962694E+03 0.  0.
         24    2    3    3    0    0 -0.55519532865E+02  0.11459121723E+03 -0.46302379175E+03  0.48700171899E+03  0.81031333327E+02 0.  0.
         -6    2    1    2    0  502 -0.74288210694E+01 -0.15103429185E+03 -0.19156496298E+03  0.30028720842E+03  0.17495350183E+03 0.  0.
        -24    2    5    5    0    0 -0.50956346389E+02 -0.33656707687E+02 -0.92113438025E+02  0.14033459500E+03  0.86484622212E+02 0.  0.
          5    1    3    3  501    0  0.62948353935E+02  0.36443074615E+02 -0.35951470680E+03  0.36682898925E+03  0.47000000000E+01 0. -1.
        -13    1    4    4    0    0 -0.32129144397E+02  0.10784079780E+02 -0.49387091147E+02  0.59897104006E+02  0.00000000000E+00 0.  1.
         14    1    4    4    0    0 -0.23390388469E+02  0.10380713745E+03 -0.41363670060E+03  0.42710461499E+03  0.00000000000E+00 0. -1.
         -5    1    5    5    0  502  0.43527525320E+02 -0.11737758416E+03 -0.99451524958E+02  0.15995261342E+03  0.47000000000E+01 0.  1.
         11    1    6    6    0    0 -0.70700876736E+00  0.12162250945E+02  0.11266498963E+02  0.16593800298E+02  0.00000000000E+00 0. -1.
        -12    1    6    6    0    0 -0.50249337622E+02 -0.45818958632E+02 -0.10337993699E+03  0.12374079470E+03  0.00000000000E+00 0.  1.
</event>
<event>
12    1  0.8462562E-002  0.2111572E+03  0.7818608E-02  0.1140706E+00
         21   -1    0    0  503  502  0.00000000000E+00  0.00000000000E+00  0.25603678524E+03  0.25603678524E+03  0.00000000000E+00 0.  1.
         21   -1    0    0  501  503 -0.00000000000E+00 -0.00000000000E+00 -0.26288780873E+03  0.26288780873E+03  0.00000000000E+00 0.  1.
          6    2    1    2  501    0  0.65281549087E+02  0.10612592514E+03 -0.15436673471E+03  0.26156535388E+03  0.17047859962E+03 0.  0.
         24    2    3    3    0    0  0.42436250524E+01  0.12469318054E+03 -0.10417598218E+03  0.18025377548E+03  0.77925545768E+02 0.  0.
         -6    2    1    2    0  502 -0.65281549087E+02 -0.10612592514E+03  0.14751571123E+03  0.25735924009E+03  0.17014258950E+03 0.  0.
        -24    2    5    5    0    0 -0.33797360660E+02 -0.10114180298E+03  0.29179326119E+02  0.13471469013E+03  0.76971999884E+02 0.  0.
          5    1    3    3  501    0  0.61037924035E+02 -0.18567255398E+02 -0.50190752527E+02  0.81311578405E+02  0.47000000000E+01 0. -1.
        -11    1    4    4    0    0  0.11242224442E+02  0.52099550275E+02 -0.25958919183E+00  0.53299325847E+02  0.00000000000E+00 0.  1.
         12    1    4    4    0    0 -0.69985993893E+01  0.72593630264E+02 -0.10391639299E+03  0.12695444963E+03  0.00000000000E+00 0. -1.
         -5    1    5    5    0  502 -0.31484188427E+02 -0.49841221607E+01  0.11833638511E+03  0.12264454996E+03  0.47000000000E+01 0.  1.
         13    1    6    6    0    0  0.87487488567E+01 -0.46423743139E+01 -0.16929105993E+02  0.19613436097E+02  0.00000000000E+00 0. -1.
        -14    1    6    6    0    0 -0.42546109517E+02 -0.96499428666E+02  0.46108432112E+02  0.11510125403E+03  0.00000000000E+00 0.  1.
</event>
<event>
12    1  0.8462562E-002  0.1713305E+03  0.7818608E-02  0.1177628E+00
         21   -1    0    0  501  502  0.00000000000E+00  0.00000000000E+00  0.41470805873E+03  0.41470805873E+03  0.00000000000E+00 0. -1.
         21   -1    0    0  502  503 -0.00000000000E+00 -0.00000000000E+00 -0.76055129645E+02  0.76055129645E+02  0.00000000000E+00 0. -1.
         -6    2    1    2    0  503 -0.43812486724E+01  0.23712076991E+02  0.24224254315E+03  0.29416943526E+03  0.16514463053E+03 0.  0.
        -24    2    3    3    0    0 -0.49028923303E+02 -0.13296134699E+02  0.20660689578E+03  0.22594178730E+03  0.76043798866E+02 0.  0.
          6    2    1    2  501    0  0.43812486724E+01 -0.23712076991E+02  0.96410385937E+02  0.19659375312E+03  0.16962512583E+03 0.  0.
         24    2    5    5    0    0  0.16732429988E+02  0.31155315875E+02  0.10859492274E+03  0.13885697613E+03  0.78979583775E+02 0.  0.
          5    1    5    5  501    0 -0.12351181316E+02 -0.54867392865E+02 -0.12184536807E+02  0.57736776988E+02  0.47000000000E+01 0. -1.
        -13    1    6    6    0    0  0.42879140762E+02 -0.29207062483E+01  0.46114662931E+02  0.63037396637E+02  0.00000000000E+00 0.  1.
         14    1    6    6    0    0 -0.26146710774E+02  0.34076022123E+02  0.62480259813E+02  0.75819579492E+02  0.00000000000E+00 0. -1.
         -5    1    3    3    0  503  0.44647674631E+02  0.37008211690E+02  0.35635647364E+02  0.68227647955E+02  0.47000000000E+01 0.  1.
         13    1    4    4    0    0  0.17735304044E+02 -0.14917689892E+02  0.72710716106E+02  0.76314655984E+02  0.00000000000E+00 0. -1.
        -14    1    4    4    0    0 -0.66764227347E+02  0.16215551928E+01  0.13389617968E+03  0.14962713132E+03  0.00000000000E+00 0.  1.
</event>
<event>
12    1  0.8462562E-002  0.1954833E+03  0.7818608E-02  0.1154066E+00
         21   -1    0    0  501  502  0.00000000000E+00  0.00000000000E+00  0.84402326688E+03  0.84402326688E+03  0.00000000000E+00 0. -1.
         21   -1    0    0  502  503 -0.00000000000E+00 -0.00000000000E+00 -0.74168862560E+02  0.74168862560E+02  0.00000000000E+00 0. -1.
         -6    2    1    2    0  503  0.73337364985E+02  0.53635733649E+02  0.97245901586E+02  0.21833574363E+03  0.17308544290E+03 0.  0.
        -24    2    3    3    0    0  0.11423747630E+03  0.49417361272E+02  0.97976510578E+02  0.17694446967E+03  0.78852217064E+02 0.  0.
          6    2    1    2  501    0 -0.73337364985E+02 -0.53635733649E+02  0.67260850273E+03  0.69985638580E+03  0.17070911451E+03 0.  0.
         24    2    5    5    0    0 -0.24198629453E+02  0.33629489177E+02  0.36666364886E+03  0.37790269650E+03  0.81557957423E+02 0.  0.
          5    1    5    5  501    0 -0.49138735532E+02 -0.87265222827E+02  0.30594485387E+03  0.32195368930E+03  0.47000000000E+01 0. -1.
        -13    1    6    6    0    0  0.50865135638E+01 -0.16792762415E+02  0.21045998719E+02  0.27400794731E+02  0.00000000000E+00 0.  1.
         14    1    6    6    0    0 -0.29285143017E+02  0.50422251593E+02  0.34561765014E+03  0.35050190177E+03  0.00000000000E+00 0. -1.
         -5    1    3    3    0  503 -0.40900111311E+02  0.42183723779E+01 -0.73060899196E+00  0.41391273963E+02  0.47000000000E+01 0.  1.
         11    1    4    4    0    0  0.44756254083E+02  0.43624283741E+02  0.78402326141E+01  0.62989440852E+02  0.00000000000E+00 0. -1.
        -12    1    4    4    0    0  0.69481222214E+02  0.57930775309E+01  0.90136277964E+02  0.11395502882E+03  0.00000000000E+00 0.  1.
</event>
<event>
12    1  0.8462562E-002  0.2271834E+03  0.7818608E-02  0.1128705E+00
         21   -1    0    0  503  502  0.00000000000E+00  0.00000000000E+00  0.74980848813E+03  0.74980848813E+03  0.00000000000E+00 0.  1.
         21   -1    0    0  501  503 -0.00000000000E+00 -0.00000000000E+00 -0.87937518220E+02  0.87937518220E+02  0.00000000000E+00 0. -1.
          6    2    1    2  501    0  0.12703322241E+03 -0.75678388118E+02  0.13533635175E+03  0.26443945421E+03  0.17247503823E+03 0.  0.
         24    2    3    3    0    0  0.10848172813E+03 -0.49650649591E+02  0.16623556024E+03  0.21973540295E+03  0.80099397497E+02 0.  0.
         -6    2    1    2    0  502 -0.12703322241E+03  0.75678388118E+02  0.52653461817E+03  0.57330655215E+03  0.17197976795E+03 0.  0.
        -24    2    5    5    0    0 -0.38604438601E+02  0.33331206872E+02  0.10805838402E+03  0.14347241889E+03  0.79413151272E+02 0.  0.
          5    1    3    3  501    0  0.18551494274E+02 -0.26027738527E+02 -0.30899208495E+02  0.44704051251E+02  0.47000000000E+01 0. -1.
        -11    1    4    4    0    0  0.54880681409E+02  0.69088913156E+01  0.11163314936E+03  0.12458564125E+03  0.00000000000E+00 0.  1.
         12    1    4    4    0    0  0.53601046724E+02 -0.56559540907E+02  0.54602410885E+02  0.95149761702E+02  0.00000000000E+00 0. -1.
         -5    1    5    5    0  502 -0.88428783806E+02  0.42347181246E+02  0.41847623415E+03  0.42983413326E+03  0.47000000000E+01 0.  1.
         13    1    6    6    0    0 -0.13128494050E+02 -0.11174537262E+02  0.85892268426E+02  0.87605418865E+02  0.00000000000E+00 0. -1.
        -14    1    6    6    0    0 -0.25475944551E+02  0.44505744134E+02  0.22166115593E+02  0.55867000029E+02  0.00000000000E+00 0.  1.
</event>
<event>
12    1  0.8462562E-002  0.2065500E+03  0.7818608E-02  0.1144461E+00
         21   -1    0    0  503  502  0.00000000000E+00  0.00000000000E+00  0.28778362761E+02  0.28778362761E+02  0.00000000000E+00 0. -1.
         21   -1    0    0  501  503 -0.00000000000E+00 -0.00000000000E+00 -0.15094074213E+04  0.15094074213E+04  0.00000000000E+00 0. -1.
          6    2    1    2  501    0 -0.10671292170E+03 -0.39262646900E+02 -0.85053957420E+03  0.87510533665E+03  0.17164667155E+03 0.  0.
         24    2    3    3    0    0 -0.69310735145E+02 -0.93004388021E+02 -0.56758948115E+03  0.58464028978E+03  0.78693424891E+02 0.  0.
         -6    2    1    2    0  502  0.10671292170E+03  0.39262646900E+02 -0.63008948433E+03  0.66308044741E+03  0.17243467855E+03 0.  0.
        -24    2    5    5    0    0  0.12358150284E+03  0.49689325651E+02 -0.35705848046E+03  0.38928986369E+03  0.79463341046E+02 0.  0.
          5    1    3    3  501    0 -0.37402186550E+02  0.53741741121E+02 -0.28295009305E+03  0.29046504688E+03  0.47000000000E+01 0. -1.
        -11    1    4    4    0    0  0.15040491986E+02 -0.62140090015E+00 -0.58490967699E+02  0.60396985360E+02  0.00000000000E+00 0.  1.
         12    1    4    4    0    0 -0.84351227131E+02 -0.92382987121E+02 -0.50909851345E+03  0.52424330442E+03  0.00000000000E+00 0. -1.
         -5    1    5    5    0  502 -0.16868581142E+02 -0.10426678751E+02 -0.27303100387E+03  0.27379058372E+03  0.47000000000E+01 0.  1.
         11    1    6    6    0    0  0.48297074003E+02 -0.20054384867E+02 -0.11181832976E+03  0.12344279882E+03  0.00000000000E+00 0. -1.
        -12    1    6    6    0    0  0.75284428834E+02  0.69743710518E+02 -0.24524015070E+03  0.26584706487E+03  0.00000000000E+00 0.  1.
</event>
<event>
12    1  0.8462562E-002  0.1787795E+03  0.7818608E-02  0.1169118E+00
         21   -1    0    0  503  502  0.00000000000E+00  0.00000000000E+00  0.18213801953E+03  0.18213801953E+03  0.00000000000E+00 0.  1.
         21   -1    0    0  501  503 -0.00000000000E+00 -0.00000000000E+00 -0.23322017912E+03  0.23322017912E+03  0.00000000000E+00 0.  1.
          6    2    1    2  501    0 -0.22554914623E+02 -0.41838333099E+02 -0.12930638230E+03  0.22021426221E+03  0.17179933203E+03 0.  0.
         24    2    3    3    0    0 -0.62618986247E+02 -0.73301192960E+02 -0.10421714624E+03  0.16323530862E+03  0.80562709000E+02 0.  0.
         -6    2    1    2    0  502  0.22554914623E+02  0.41838333099E+02  0.78224222713E+02  0.19514393645E+03  0.17234545722E+03 0.  0.
        -24    2    5    5    0    0 -0.30839951204E+02  0.78602599328E+02  0.52850569037E+02  0.12536904649E+03  0.76123215642E+02 0.  0.
          5    1    3    3  501    0  0.40064071624E+02  0.31462859861E+02 -0.25089236064E+02  0.56978953588E+02  0.47000000000E+01 0. -1.
        -13    1    4    4    0    0 -0.47940258633E+02 -0.10913832997E+02 -0.11451450673E+02  0.50482827486E+02  0.00000000000E+00 0.  1.
         14    1    4    4    0    0 -0.14678727614E+02 -0.62387359963E+02 -0.92765695565E+02  0.11275248113E+03  0.00000000000E+00 0. -1.
         -5    1    5    5    0  502  0.53394865826E+02 -0.36764266229E+02  0.25373653676E+02  0.69774889959E+02  0.47000000000E+01 0.  1.
         11    1    6    6    0    0 -0.48343041133E+02  0.51979733949E+02  0.95729135613E+01  0.71628088355E+02  0.00000000000E+00 0. -1.
        -12    1    6    6    0    0  0.17503089930E+02  0.26622865379E+02  0.43277655476E+02  0.53740958138E+02  0.00000000000E+00 0.  1.
</event>
<event>
12    1  0.8462562E-002  0.1769407E+03  0.7818608E-02  0.1170944E+00
         21   -1    0    0  501  502  0.00000000000E+00  0.00000000000E+00  0.11661424125E+03  0.11661424125E+03  0.00000000000E+00 0.  1.
         21   -1    0    0  502  503 -0.00000000000E+00 -0.00000000000E+00 -0.27932948430E+03  0.27932948430E+03  0.00000000000E+00 0.  1.
         -6    2    1    2    0  503  0.18775698318E+02  0.31455558450E+02 -0.12209910296E+03  0.21497952155E+03  0.17310697484E+03 0.  0.
        -24    2    3    3    0    0  0.47450226470E+01  0.87971472258E+02 -0.87746268404E+02  0.14720699308E+03  0.78797182823E+02 0.  0.
          6    2    1    2  501    0 -0.18775698318E+02 -0.31455558450E+02 -0.40616140086E+02  0.18096420400E+03  0.17250041533E+03 0.  0.
         24    2    5    5    0    0  0.34480467073E+02 -0.39385919262E+02 -0.73388274273E+02  0.11775651021E+03  0.75766771410E+02 0.  0.
          5    1    5    5  501    0 -0.53256165391E+02  0.79303608120E+01  0.32772134187E+02  0.63207693787E+02  0.47000000000E+01 0. -1.
        -13    1    6    6    0    0  0.54938058164E+02 -0.10323470643E+02 -0.37934573660E+02  0.67555874354E+02  0.00000000000E+00 0.  1.
         14    1    6    6    0    0 -0.20457591092E+02 -0.29062448619E+02 -0.35453700613E+02  0.50200635854E+02  0.00000000000E+00 0. -1.
         -5    1    3    3    0  503  0.14030675671E+02 -0.56515913809E+02 -0.34352834558E+02  0.67772528473E+02  0.47000000000E+01 0.  1.
         11    1    4    4    0    0  0.24470375560E+02  0.78026876133E+02 -0.33017462885E+02  0.88188125813E+02  0.00000000000E+00 0. -1.
        -12    1    4    4    0    0 -0.19725352913E+02  0.99445961257E+01 -0.54728805518E+02  0.59018867264E+02  0.00000000000E+00 0.  1.
</event>
<event>
12    1  0.8462562E-002  0.3665433E+03  0.7818608E-02  0.1056079E+00
         21   -1    0    0  501  502  0.00000000000E+00  0.00000000000E+00  0.30698000050E+03  0.30698000050E+03  0.00000000000E+00 0. -1.
         21   -1    0    0  502  503 -0.00000000000E+00 -0.00000000000E+00 -0.44219567295E+03  0.44219567295E+03  0.00000000000E+00 0.  1.
         -6    2    1    2    0  503  0.30626017774E+03  0.10399536239E+03 -0.10838123044E+03  0.38223091152E+03  0.17246346493E+03 0.  0.
        -24    2    3    3    0    0  0.23030239727E+03  0.85647965689E+02 -0.12413954023E+02  0.25838415329E+03  0.78952493322E+02 0.  0.
          6    2    1    2  501    0 -0.30626017774E+03 -0.10399536239E+03 -0.26834442007E+02  0.36694476194E+03  0.17122511256E+03 0.  0.
         24    2    5    5    0    0 -0.14329907779E+03  0.13579083778E+02 -0.11635839313E+02  0.16536808172E+03  0.80574142758E+02 0.  0.
          5    1    5    5  501    0 -0.16296109995E+03 -0.11757444616E+03 -0.15198602694E+02  0.20157668023E+03  0.47000000000E+01 0. -1.
        -11    1    6    6    0    0 -0.94825809874E+02  0.40580759739E+01 -0.45720639803E+02  0.10535074325E+03  0.00000000000E+00 0.  1.
         12    1    6    6    0    0 -0.48473267919E+02  0.95210078037E+01  0.34084800490E+02  0.60017338468E+02  0.00000000000E+00 0. -1.
         -5    1    3    3    0  503  0.75957780473E+02  0.18347396698E+02 -0.95967276419E+02  0.12384675823E+03  0.47000000000E+01 0.  1.
         13    1    4    4    0    0  0.20359369006E+03  0.62439851381E+02 -0.35840946433E+02  0.21594837140E+03  0.00000000000E+00 0. -1.
        -14    1    4    4    0    0  0.26708707213E+02  0.23208114308E+02  0.23426992410E+02  0.42435781884E+02  0.00000000000E+00 0.  1.
</event>
<event>
12    1  0.8462562E-002  0.1752179E+03  0.7818608E-02  0.1173275E+00
         21   -1    0    0  501  502  0.00000000000E+00  0.00000000000E+00  0.25122350667E+03  0.25122350667E+03  0.00000000000E+00 0. -1.
         21   -1    0    0  502  503 -0.00000000000E+00 -0.00000000000E+00 -0.14908264326E+03  0.14908264326E+03  0.00000000000E+00 0. -1.
         -6    2    1    2    0  503 -0.55313405749E+01  0.19924024032E+01 -0.36798193629E+02  0.17904026467E+03  0.17511922773E+03 0.  0.
        -24    2    3    3    0    0  0.58954406385E+01  0.24255172135E+02 -0.88780256592E+02  0.12115739056E+03  0.78575503377E+02 0.  0.
          6    2    1    2  501    0  0.55313405749E+01 -0.19924024032E+01  0.13893905703E+03  0.22126588527E+03  0.17210451771E+03 0.  0.
         24    2    5    5    0    0 -0.10440815275E+02 -0.48738557963E+02  0.25349708959E+02  0.97310478696E+02  0.79638331623E+02 0.  0.
          5    1    5    5  501    0  0.15972155850E+02  0.46746155560E+02  0.11358934807E+03  0.12395540657E+03  0.47000000000E+01 0. -1.
        -11    1    6    6    0    0 -0.26407860869E+01  0.18457415672E+02 -0.98133899298E+01  0.21070181926E+02  0.00000000000E+00 0.  1.
         12    1    6    6    0    0 -0.78000291880E+01 -0.67195973635E+02  0.35163098889E+02  0.76240296770E+02  0.00000000000E+00 0. -1.
         -5    1    3    3    0  503 -0.11426781213E+02 -0.22262769731E+02  0.51982062963E+02  0.57882874107E+02  0.47000000000E+01 0.  1.
         11    1    4    4    0    0 -0.16630405869E+02 -0.19180147692E+02 -0.78250215658E+01  0.26564627371E+02  0.00000000000E+00 0. -1.
        -12    1    4    4    0    0  0.22525846507E+02  0.43435319827E+02 -0.80955235026E+02  0.94592763188E+02  0.00000000000E+00 0.  1.
</event>
<event>
12    1  0.8462562E-002  0.2727375E+03  0.7818608E-02  0.1099764E+00
         21   -1    0    0  503  502  0.00000000000E+00  0.00000000000E+00  0.17742120488E+03  0.17742120488E+03  0.00000000000E+00 0. -1.
         21   -1    0    0  501  503 -0.00000000000E+00 -0.00000000000E+00 -0.45024201792E+03  0.45024201792E+03  0.00000000000E+00 0. -1.
          6    2    1    2  501    0  0.10924123391E+03 -0.18036755243E+03 -0.21939527702E+03  0.35002858380E+03  0.17297289021E+03 0.  0.
         24    2    3    3    0    0  0.24300485712E+02 -0.16207986662E+03 -0.11806392817E+03  0.21646398364E+03  0.77827811944E+02 0.  0.
         -6    2    1    2    0  502 -0.10924123391E+03  0.18036755243E+03 -0.53425536026E+02  0.27763463899E+03  0.17251261900E+03 0.  0.
        -24    2    5    5    0    0 -0.66246666467E+02  0.11629858172E+03  0.34246497237E+02  0.16075075964E+03  0.82182742847E+02 0.  0.
          5    1    3    3  501    0  0.84940748195E+02 -0.18287685810E+02 -0.10133134885E+03  0.13356460016E+03  0.47000000000E+01 0. -1.
        -11    1    4    4    0    0  0.51903275046E+01 -0.41028880420E+02 -0.76668586051E+02  0.87111311638E+02  0.00000000000E+00 0.  1.
         12    1    4    4    0    0  0.19110158208E+02 -0.12105098620E+03 -0.41395342114E+02  0.12935267200E+03  0.00000000000E+00 0. -1.
         -5    1    5    5    0  502 -0.42994567440E+02  0.64068970703E+02 -0.87672033263E+02  0.11688387935E+03  0.47000000000E+01 0.  1.
         13    1    6    6    0    0 -0.19492870225E+02  0.92166372795E+02 -0.61668777936E+01  0.94406793429E+02  0.00000000000E+00 0. -1.
        -14    1    6    6    0    0 -0.46753796243E+02  0.24132208928E+02  0.40413375030E+02  0.66343966208E+02  0.00000000000E+00 0.  1.
</event>
<event>
12    1  0.8462562E-002  0.1805146E+03  0.7818608E-02  0.1167565E+00
         21   -1    0    0  503  502  0.00000000000E+00  0.00000000000E+00  0.22072866032E+03  0.22072866032E+03  0.00000000000E+00 0. -1.
         21   -1    0    0  501  503 -0.00000000000E+00 -0.00000000000E+00 -0.18298802459E+03  0.18298802459E+03  0.00000000000E+00 0. -1.
          6    2    1    2  501    0 -0.17647314470E+02 -0.52318618320E+02 -0.70910503068E+02  0.19394284352E+03  0.17186291507E+03 0.  0.
         24    2    3    3    0    0  0.91427560023E+01 -0.73444788887E+02  0.69819636758E+01  0.10877624600E+03  0.79409047814E+02 0.  0.
         -6    2    1    2    0  502  0.17647314470E+02  0.52318618320E+02  0.10865113880E+03  0.20977384138E+03  0.17073760287E+03 0.  0.
        -24    2    5    5    0    0  0.21572214662E+01  0.11586763212E+02  0.13394649378E+03  0.15916779446E+03  0.85169342556E+02 0.  0.
          5    1    3    3  501    0 -0.26790070472E+02  0.21126170567E+02 -0.77892466744E+02  0.85166597526E+02  0.47000000000E+01 0. -1.
        -11    1    4    4    0    0  0.25550961301E+02 -0.51082975064E+02 -0.28425239682E+02  0.63799029897E+02  0.00000000000E+00 0.  1.
         12    1    4    4    0    0 -0.16408205299E+02 -0.22361813822E+02  0.35407203358E+02  0.44977216101E+02  0.00000000000E+00 0. -1.
         -5    1    5    5    0  502  0.15490093004E+02  0.40731855108E+02 -0.25295354976E+02  0.50606046922E+02  0.47000000000E+01 0.  1.
         13    1    6    6    0    0  0.34439897065E+01  0.47932060620E+02  0.90850192406E+02  0.10277694761E+03  0.00000000000E+00 0. -1.
        -14    1    6    6    0    0 -0.12867682403E+01 -0.36345297407E+02  0.43096301371E+02  0.56390846846E+02  0.00000000000E+00 0.  1.
</event>
<event>
12    1  0.8462562E-002  0.2213185E+03  0.7818608E-02  0.1133253E+00
         21   -1    0    0  503  502  0.00000000000E+00  0.00000000000E+00  0.15656301946E+04  0.15656301946E+04  0.00000000000E+00 0.  1.
         21   -1    0    0  501  503 -0.00000000000E+00 -0.00000000000E+00 -0.63908564176E+02  0.63908564176E+02  0.00000000000E+00 0.  1.
          6    2    1    2  501    0 -0.21523146545E+02 -0.13320942432E+03  0.16483018991E+03  0.27445182677E+03  0.17305148699E+03 0.  0.
         24    2    3    3    0    0 -0.31310069380E+02 -0.13638372488E+03  0.64292425797E+02  0.17327973548E+03  0.79445011529E+02 0.  0.
         -6    2    1    2    0  502  0.21523146545E+02  0.13320942432E+03  0.13368914405E+04  0.13550869320E+04  0.17542483579E+03 0.  0.
        -24    2    5    5    0    0 -0.28369273791E+02  0.93530567774E+01  0.53994189032E+03  0.54701494948E+03  0.82436731303E+02 0.  0.
          5    1    3    3  501    0  0.97869228358E+01  0.31743005656E+01  0.10053776411E+03  0.10117209129E+03  0.47000000000E+01 0. -1.
        -13    1    4    4    0    0  0.25786680328E+01 -0.67651362557E+02 -0.76970672946E+01  0.68136636471E+02  0.00000000000E+00 0.  1.
         14    1    4    4    0    0 -0.33888737413E+02 -0.68732362326E+02  0.71989493092E+02  0.10514309901E+03  0.00000000000E+00 0. -1.
         -5    1    5    5    0  502  0.49892420335E+02  0.12385636754E+03  0.79694955021E+03  0.80807198254E+03  0.47000000000E+01 0.  1.
         13    1    6    6    0    0  0.17070499155E+02  0.21179199069E+01  0.27002453042E+02  0.32015933477E+02  0.00000000000E+00 0. -1.
        -14    1    6    6    0    0 -0.45439772945E+02  0.72351368705E+01  0.51293943728E+03  0.51499901601E+03  0.00000000000E+00 0.  1.
</event>
<event>
12    1  0.8462562E-002  0.1878566E+03  0.7818608E-02  0.1160936E+00
         21   -1    0    0  501  502  0.00000000000E+00  0.00000000000E+00  0.11284631029E+03  0.11284631029E+03  0.00000000000E+00 0.  1.
         21   -1    0    0  502  503 -0.00000000000E+00 -0.00000000000E+00 -0.30909084238E+03  0.30909084238E+03  0.00000000000E+00 0.  1.
         -6    2    1    2    0  503 -0.70253936706E+02 -0.41734896901E+01 -0.10351911079E+03  0.21449084491E+03  0.17417543630E+03 0.  0.
        -24    2    3    3    0    0 -0.10222153037E+03 -0.27439092496E+02 -0.36708013716E+02  0.13671534741E+03  0.78367486105E+02 0.  0.
          6    2    1    2  501    0  0.70253936706E+02  0.41734896901E+01 -0.92725421295E+02  0.20744630776E+03  0.17170594984E+03 0.  0.
         24    2    5    5    0    0  0.11368111825E+03  0.14011940835E+02 -0.57486577587E+02  0.15046752817E+03  0.78841862595E+02 0.  0.
          5    1    5    5  501    0 -0.43427181544E+02 -0.98384511452E+01 -0.35238843708E+02  0.56978779591E+02  0.47000000000E+01 0. -1.
        -11    1    6    6    0    0  0.22408389409E+02  0.37828845827E+02 -0.25694628696E+02  0.50925155241E+02  0.00000000000E+00 0.  1.
         12    1    6    6    0    0  0.91272728841E+02 -0.23816904991E+02 -0.31791948891E+02  0.99542372926E+02  0.00000000000E+00 0. -1.
         -5    1    3    3    0  503  0.31967593661E+02  0.23265602806E+02 -0.66811097075E+02  0.77775497497E+02  0.47000000000E+01 0.  1.
         11    1    4    4    0    0 -0.27455302894E+02 -0.46432876914E+02 -0.21612236181E+02  0.58111052892E+02  0.00000000000E+00 0. -1.
        -12    1    4    4    0    0 -0.74766227474E+02  0.18993784417E+02 -0.15095777536E+02  0.78604294517E+02  0.00000000000E+00 0.  1.
</event>
<event>
12    1  0.8462562E-002  0.2297377E+03  0.7818608E-02  0.1127160E+00
         21   -1    0    0  501  502  0.00000000000E+00  0.00000000000E+00  0.22090478150E+03  0.22090478150E+03  0.00000000000E+00 0. -1.
         21   -1    0    0  502  503 -0.00000000000E+00 -0.00000000000E+00 -0.27622410434E+03  0.27622410434E+03  0.00000000000E+00 0.  1.
         -6    2    1    2    0  503 -0.12035607765E+03  0.88972939652E+02 -0.12147593907E+03  0.25987656625E+03  0.17429187157E+03 0.  0.
        -24    2    3    3    0    0 -0.13651180379E+03  0.21058838436E+02 -0.66623539442E+02  0.17097095126E+03  0.75587187510E+02 0.  0.
          6    2    1    2  501    0  0.12035607765E+03 -0.88972939652E+02  0.66156616228E+02  0.23725231959E+03  0.17178531911E+03 0.  0.
         24    2    5    5    0    0  0.48958751248E+02 -0.32650558509E+02 -0.31472451021E+02  0.10374833611E+03  0.79436665191E+02 0.  0.
          5    1    5    5  501    0  0.71397326399E+02 -0.56322381144E+02  0.97629067248E+02  0.13350398349E+03  0.47000000000E+01 0. -1.
        -13    1    6    6    0    0  0.15593443476E+02 -0.55990671342E+02 -0.19517069043E+02  0.61310902300E+02  0.00000000000E+00 0.  1.
         14    1    6    6    0    0  0.33365307771E+02  0.23340112833E+02 -0.11955381978E+02  0.42437433805E+02  0.00000000000E+00 0. -1.
         -5    1    3    3    0  503  0.16155726148E+02  0.67914101217E+02 -0.54852399632E+02  0.88905614990E+02  0.47000000000E+01 0.  1.
         13    1    4    4    0    0 -0.10411534146E+02 -0.16131371277E+02 -0.27989903614E+02  0.33941948779E+02  0.00000000000E+00 0. -1.
        -14    1    4    4    0    0 -0.12610026965E+03  0.37190209713E+02 -0.38633635828E+02  0.13702900248E+03  0.00000000000E+00 0.  1.
</event>
<event>
12    1  0.8462562E-002  0.2059514E+03  0.7818608E-02  0.1147588E+00
         21   -1    0    0  501  502  0.00000000000E+00  0.00000000000E+00  0.33338342484E+03  0.33338342484E+03  0.00000000000E+00 0. -1.
         21   -1    0    0  502  503 -0.00000000000E+00 -0.00000000000E+00 -0.65268730023E+03  0.65268730023E+03  0.00000000000E+00 0. -1.
         -6    2    1    2    0  503 -0.37967268991E+01 -0.88616558862E+02 -0.60438505261E+03  0.63437875039E+03  0.17113678005E+03 0.  0.
        -24    2    3    3    0    0 -0.17964067858E+02 -0.10348267374E+03 -0.59643829721E+03  0.61186307046E+03  0.87214695462E+02 0.  0.
          6    2    1    2  501    0  0.37967268991E+01  0.88616558862E+02  0.28508117722E+03  0.35169197468E+03  0.18587269249E+03 0.  0.
         24    2    5    5    0    0  0.74660477853E+02  0.64122592766E+02  0.21728165780E+03  0.25049666646E+03  0.76494230053E+02 0.  0.
          5    1    5    5  501    0 -0.70863750954E+02  0.24493966096E+02  0.67799519411E+02  0.10119530823E+03  0.47000000000E+01 0. -1.
        -13    1    6    6    0    0  0.24054229402E+02  0.22520056149E+02  0.12086742454E+02  0.35097695427E+02  0.00000000000E+00 0.  1.
         14    1    6    6    0    0  0.50606248451E+02  0.41602536616E+02  0.20519491535E+03  0.21539897103E+03  0.00000000000E+00 0. -1.
         -5    1    3    3    0  503  0.14167340959E+02  0.14866114882E+02 -0.79467553979E+01  0.22515679933E+02  0.47000000000E+01 0.  1.
         11    1    4    4    0    0 -0.20840294079E+02 -0.11880215255E+03 -0.51380665673E+03  0.52777414658E+03  0.00000000000E+00 0. -1.
        -12    1    4    4    0    0  0.28762262208E+01  0.15319478803E+02 -0.82631640489E+02  0.84088923872E+02  0.00000000000E+00 0.  1.
</event>
<event>
12    1  0.8462562E-002  0.1914939E+03  0.7818608E-02  0.1157489E+00
         21   -1    0    0  501  502  0.00000000000E+00  0.00000000000E+00  0.12454719611E+03  0.12454719611E+03  0.00000000000E+00 0. -1.
         21   -1    0    0  502  503 -0.00000000000E+00 -0.00000000000E+00 -0.77366138465E+03  0.77366138465E+03  0.00000000000E+00 0. -1.
         -6    2    1    2    0  503  0.78018413895E+02  0.25618192562E+02 -0.67947534367E+03  0.70594381558E+03  0.17299353575E+03 0.  0.
        -24    2    3    3    0    0  0.11926028537E+03  0.15327256686E+02 -0.44154327022E+03  0.46419899785E+03  0.77860835264E+02 0.  0.
          6    2    1    2  501    0 -0.78018413895E+02 -0.25618192562E+02  0.30361155129E+02  0.19226476518E+03  0.17117469291E+03 0.  0.
         24    2    5    5    0    0 -0.24292094970E+01 -0.58737402588E+02 -0.98983688073E+01  0.10032168952E+03  0.80687546508E+02 0.  0.
          5    1    5    5  501    0 -0.75589204398E+02  0.33119210026E+02  0.40259523936E+02  0.91943075660E+02  0.47000000000E+01 0. -1.
        -11    1    6    6    0    0 -0.15624201227E+02  0.11402170973E+02 -0.20481671371E+02  0.28171333462E+02  0.00000000000E+00 0.  1.
         12    1    6    6    0    0  0.13194991730E+02 -0.70139573561E+02  0.10583302564E+02  0.72150356058E+02  0.00000000000E+00 0. -1.
         -5    1    3    3    0  503 -0.41241871472E+02  0.10290935876E+02 -0.23793207344E+03  0.24174481773E+03  0.47000000000E+01 0.  1.
         11    1    4    4    0    0  0.87865929579E+02  0.46101206503E+02 -0.29963895867E+03  0.31564101187E+03  0.00000000000E+00 0. -1.
        -12    1    4    4    0    0  0.31394355788E+02 -0.30773949817E+02 -0.14190431155E+03  0.14855798599E+03  0.00000000000E+00 0.  1.
</event>
<event>
12    1  0.8462562E-002  0.2003279E+03  0.7818608E-02  0.1149539E+00
         21   -1    0    0  501  502  0.00000000000E+00  0.00000000000E+00  0.31958119317E+03  0.31958119317E+03  0.00000000000E+00 0.  1.
         21   -1    0    0  502  503 -0.00000000000E+00 -0.00000000000E+00 -0.26077419202E+03  0.26077419202E+03  0.00000000000E+00 0. -1.
         -6    2    1    2    0  503  0.91789821993E+02 -0.45157766870E+02 -0.17969708624E+03  0.26911393677E+03  0.17224016034E+03 0.  0.
        -24    2    3    3    0    0  0.52936207653E+02 -0.96714240991E+02 -0.11493800653E+03  0.17755247231E+03  0.78474509142E+02 0.  0.
          6    2    1    2  501    0 -0.91789821993E+02  0.45157766870E+02  0.23850408739E+03  0.31124144842E+03  0.17182096549E+03 0.  0.
         24    2    5    5    0    0 -0.12736732842E+03  0.21224725846E+02  0.21197840876E+03  0.26060301397E+03  0.79411332781E+02 0.  0.
          5    1    5    5  501    0  0.35577506430E+02  0.23933041024E+02  0.26525678628E+02  0.50638434446E+02  0.47000000000E+01 0. -1.
        -11    1    6    6    0    0 -0.45319364104E+02  0.35839265742E+02  0.13625789551E+03  0.14800172911E+03  0.00000000000E+00 0.  1.
         12    1    6    6    0    0 -0.82047964319E+02 -0.14614539896E+02  0.75720513257E+02  0.11260128486E+03  0.00000000000E+00 0. -1.
         -5    1    3    3    0  503  0.38853614340E+02  0.51556474121E+02 -0.64759079703E+02  0.91561464466E+02  0.47000000000E+01 0.  1.
         11    1    4    4    0    0  0.55236869374E+02 -0.99899884455E+02 -0.73150435276E+02  0.13558054740E+03  0.00000000000E+00 0. -1.
        -12    1    4    4    0    0 -0.23006617214E+01  0.31856434642E+01 -0.41787571259E+02  0.41971924906E+02  0.00000000000E+00 0.  1.
</event>
<event>
12    1  0.8462562E-002  0.1810069E+03  0.7818608E-02  0.1166888E+00
         21   -1    0    0  503  502  0.00000000000E+00  0.00000000000E+00  0.17456797477E+03  0.17456797477E+03  0.00000000000E+00 0. -1.
         21   -1    0    0  501  503 -0.00000000000E+00 -0.00000000000E+00 -0.18780454532E+03  0.18780454532E+03  0.00000000000E+00 0. -1.
          6    2    1    2  501    0  0.54982092536E+02  0.19704394829E+02  0.13209032503E+01  0.18101172071E+03  0.17132485101E+03 0.  0.
         24    2    3    3    0    0  0.17685839536E+02 -0.10821017949E+02  0.62160868762E+02  0.10325310243E+03  0.79795652810E+02 0.  0.
         -6    2    1    2    0  502 -0.54982092536E+02 -0.19704394829E+02 -0.14557473795E+02  0.18136079938E+03  0.17108046596E+03 0.  0.
        -24    2    5    5    0    0 -0.75341111653E+02 -0.88542305083E+01  0.44175624060E+02  0.11808455969E+03  0.78979725081E+02 0.  0.
          5    1    3    3  501    0  0.37296253000E+02  0.30525412778E+02 -0.60839965512E+02  0.77758618278E+02  0.47000000000E+01 0. -1.
        -11    1    4    4    0    0 -0.86410518444E+00  0.11489834707E+02 -0.16093377470E+02  0.19792922415E+02  0.00000000000E+00 0.  1.
         12    1    4    4    0    0  0.18549944721E+02 -0.22310852656E+02  0.78254246232E+02  0.83460180018E+02  0.00000000000E+00 0. -1.
         -5    1    5    5    0  502  0.20359019117E+02 -0.10850164320E+02 -0.58733097855E+02  0.63276239686E+02  0.47000000000E+01 0.  1.
         11    1    6    6    0    0 -0.15472007001E+02  0.28162179981E+02 -0.45834096851E+01  0.32457649734E+02  0.00000000000E+00 0. -1.
        -12    1    6    6    0    0 -0.59869104652E+02 -0.37016410490E+02  0.48759033745E+02  0.85626909959E+02  0.00000000000E+00 0.  1.
</event>
<event>
12    1  0.8462562E-002  0.2940805E+03  0.7818608E-02  0.1088447E+00
         21   -1    0    0  501  502  0.00000000000E+00  0.00000000000E+00  0.29285238960E+03  0.29285238960E+03  0.00000000000E+00 0.  1.
         21   -1    0    0  502  503 -0.00000000000E+00 -0.00000000000E+00 -0.31635143172E+03  0.31635143172E+03  0.00000000000E+00 0. -1.
         -6    2    1    2    0  503 -0.12221666158E+03 -0.20339435588E+03 -0.93257809740E+02  0.30696284936E+03  0.17094734697E+03 0.  0.
        -24    2    3    3    0    0 -0.21345113637E+02 -0.16000631866E+03 -0.77436611601E+02  0.19592235553E+03  0.79570752749E+02 0.  0.
          6    2    1    2  501    0  0.12221666158E+03  0.20339435588E+03  0.69758767616E+02  0.30224097196E+03  0.17371569618E+03 0.  0.
         24    2    5    5    0    0  0.14254981497E+03  0.21401025727E+03  0.72615829345E+02  0.27865310875E+03  0.79080063106E+02 0.  0.
          5    1    5    5  501    0 -0.20333153389E+02 -0.10615901388E+02 -0.28570617288E+01  0.23587863208E+02  0.47000000000E+01 0. -1.
        -11    1    6    6    0    0  0.11129796525E+03  0.11433033142E+03  0.69783579842E+02  0.17415053766E+03  0.00000000000E+00 0.  1.
         12    1    6    6    0    0  0.31251849727E+02  0.99679925845E+02  0.28322495028E+01  0.10450257109E+03  0.00000000000E+00 0. -1.
         -5    1    3    3    0  503 -0.10087154795E+03 -0.43388037216E+02 -0.15821198140E+02  0.11104049383E+03  0.47000000000E+01 0.  1.
         13    1    4    4    0    0  0.16549466188E+01 -0.91499642927E+02 -0.21125108096E+01  0.91538987355E+02  0.00000000000E+00 0. -1.
        -14    1    4    4    0    0 -0.23000060256E+02 -0.68506675737E+02 -0.75324100791E+02  0.10438336818E+03  0.00000000000E+00 0.  1.
</event>
<event>
12    1  0.8462562E-002  0.2256798E+03  0.7818608E-02  0.1130058E+00
         21   -1    0    0  501  502  0.00000000000E+00  0.00000000000E+00  0.14483332792E+03  0.14483332792E+03  0.00000000000E+00 0. -1.
         21   -1    0    0  502  503 -0.00000000000E+00 -0.00000000000E+00 -0.38889839324E+03  0.38889839324E+03  0.00000000000E+00 0.  1.
         -6    2    1    2    0  503 -0.11499950665E+03 -0.84217317110E+02 -0.20733540581E+03  0.30508253679E+03  0.17253967869E+03 0.  0.
        -24    2    3    3    0    0 -0.13968627096E+03 -0.77836528822E+02 -0.12335486227E+03  0.21719071417E+03  0.79903721829E+02 0.  0.
          6    2    1    2  501    0  0.11499950665E+03  0.84217317110E+02 -0.36729659512E+02  0.22864918436E+03  0.17496839312E+03 0.  0.
         24    2    5    5    0    0  0.12499172470E+03  0.56406458385E+02 -0.78839911898E+02  0.17699019056E+03  0.79405138727E+02 0.  0.
          5    1    5    5  501    0 -0.99922180491E+01  0.27810858725E+02  0.42110252386E+02  0.51658993802E+02  0.47000000000E+01 0. -1.
        -13    1    6    6    0    0  0.39485232268E+02 -0.19576053375E+02 -0.21686843407E+02  0.49118475240E+02  0.00000000000E+00 0.  1.
         14    1    6    6    0    0  0.85506492432E+02  0.75982511760E+02 -0.57153068491E+02  0.12787171532E+03  0.00000000000E+00 0. -1.
         -5    1    3    3    0  503  0.24686764305E+02 -0.63807882885E+01 -0.83980543538E+02  0.87891822623E+02  0.47000000000E+01 0.  1.
         11    1    4    4    0    0 -0.13771217915E+02 -0.45779457052E+02 -0.43808589897E+02  0.64842869150E+02  0.00000000000E+00 0. -1.
        -12    1    4    4    0    0 -0.12591505304E+03 -0.32057071770E+02 -0.79546272373E+02  0.15234784502E+03  0.00000000000E+00 0.  1.
</event>
<event>
12    1  0.8462562E-002  0.1992328E+03  0.7818608E-02  0.1151267E+00
         21   -1    0    0  503  502  0.00000000000E+00  0.00000000000E+00  0.12399965273E+03  0.12399965273E+03  0.00000000000E+00 0. -1.
         21   -1    0    0  501  503 -0.00000000000E+00 -0.00000000000E+00 -0.31633137433E+03  0.31633137433E+03  0.00000000000E+00 0. -1.
          6    2    1    2  501    0 -0.22204258015E+02 -0.90124429537E+02 -0.76535699949E+02  0.21342777974E+03  0.17629027746E+03 0.  0.
         24    2    3    3    0    0 -0.31675759890E+01 -0.11168412590E+01 -0.90718106781E+02  0.12118908560E+03  0.80285357932E+02 0.  0.
         -6    2    1    2    0  502  0.22204258015E+02  0.90124429537E+02 -0.11579602165E+03  0.22690324732E+03  0.17164184554E+03 0.  0.
        -24    2    5    5    0    0  0.45015390977E+02  0.93842783477E+02 -0.26732824963E+02  0.13477009939E+03  0.81335615341E+02 0.  0.
          5    1    3    3  501    0 -0.19036682026E+02 -0.89007588278E+02  0.14182406832E+02  0.92238694143E+02  0.47000000000E+01 0. -1.
        -13    1    4    4    0    0  0.22357665596E+02 -0.11600200791E+01  0.43045436719E+01  0.22797805896E+02  0.00000000000E+00 0.  1.
         14    1    4    4    0    0 -0.25525241585E+02  0.43178820162E-01 -0.95022650453E+02  0.98391279703E+02  0.00000000000E+00 0. -1.
         -5    1    5    5    0  502 -0.22811132962E+02 -0.37183539400E+01 -0.89063196688E+02  0.92133147929E+02  0.47000000000E+01 0.  1.
         13    1    6    6    0    0  0.46665543702E+02  0.84272015347E+02 -0.50737713024E+02  0.10887497905E+03  0.00000000000E+00 0. -1.
        -14    1    6    6    0    0 -0.16501527247E+01  0.95707681293E+01  0.24004888061E+02  0.25895120340E+02  0.00000000000E+00 0.  1.
</event>
<event>
12    1  0.8462562E-002  0.4810881E+03  0.7818608E-02  0.1018882E+00
         21   -1    0    0  501  502  0.00000000000E+00  0.00000000000E+00  0.10690272879E+04  0.10690272879E+04  0.00000000000E+00 0. -1.
         21   -1    0    0  502  503 -0.00000000000E+00 -0.00000000000E+00 -0.21863531379E+03  0.21863531379E+03  0.00000000000E+00 0.  1.
         -6    2    1    2    0  503  0.15547232042E+03 -0.42135189160E+03  0.35700851889E+03  0.59855228966E+03  0.17058927845E+03 0.  0.
        -24    2    3    3    0    0  0.72781363849E+02 -0.19573856187E+03  0.24993550376E+03  0.33544415709E+03  0.80276490730E+02 0.  0.
          6    2    1    2  501    0 -0.15547232042E+03  0.42135189160E+03  0.49338345522E+03  0.68911031203E+03  0.17244340898E+03 0.  0.
         24    2    5    5    0    0 -0.17399345675E+03  0.28352793087E+03  0.34981937461E+03  0.48918229528E+03  0.79144883531E+02 0.  0.
          5    1    5    5  501    0  0.18521136329E+02  0.13782396073E+03  0.14356408061E+03  0.19992801676E+03  0.47000000000E+01 0. -1.
        -11    1    6    6    0    0 -0.61398193328E+02  0.13472783029E+03  0.10571149009E+03  0.18192373549E+03  0.00000000000E+00 0.  1.
         12    1    6    6    0    0 -0.11259526343E+03  0.14880010057E+03  0.24410788452E+03  0.30725855978E+03  0.00000000000E+00 0. -1.
         -5    1    3    3    0  503  0.82690956576E+02 -0.22561332973E+03  0.10707301513E+03  0.26310813256E+03  0.47000000000E+01 0.  1.
         13    1    4    4    0    0  0.61183005534E+02 -0.64639464221E+02  0.74119217302E+02  0.11582434491E+03  0.00000000000E+00 0. -1.
        -14    1    4    4    0    0  0.11598358315E+02 -0.13109909765E+03  0.17581628646E+03  0.21961981218E+03  0.00000000000E+00 0.  1.
</event>
<event>
12    1  0.8462562E-002  0.2939188E+03  0.7818608E-02  0.1088825E+00
         21   -1    0    0  501  502  0.00000000000E+00  0.00000000000E+00  0.24152270834E+03  0.24152270834E+03  0.00000000000E+00 0.  1.
         21   -1    0    0  502  503 -0.00000000000E+00 -0.00000000000E+00 -0.40330469231E+03  0.40330469231E+03  0.00000000000E+00 0. -1.
         -6    2    1    2    0  503 -0.14474002451E+03 -0.18602167655E+03 -0.19528468670E+03  0.35288010620E+03  0.17559761289E+03 0.  0.
        -24    2    3    3    0    0 -0.16939439598E+03 -0.12870081925E+03 -0.12568914205E+03  0.25928978325E+03  0.78581607301E+02 0.  0.
          6    2    1    2  501    0  0.14474002451E+03  0.18602167655E+03  0.33502702740E+02  0.29194729445E+03  0.16898832150E+03 0.  0.
         24    2    5    5    0    0  0.13958733270E+03  0.20595985970E+03  0.15445115189E+02  0.26415794670E+03  0.87388683250E+02 0.  0.
          5    1    5    5  501    0  0.51526918075E+01 -0.19938183153E+02  0.18057587551E+02  0.27789347752E+02  0.47000000000E+01 0. -1.
        -13    1    6    6    0    0  0.10177464247E+03  0.12597475028E+03  0.49517885482E+02  0.16935092720E+03  0.00000000000E+00 0.  1.
         14    1    6    6    0    0  0.37812690226E+02  0.79985109417E+02 -0.34072770293E+02  0.94807019498E+02  0.00000000000E+00 0. -1.
         -5    1    3    3    0  503  0.24654371471E+02 -0.57320857298E+02 -0.69595544657E+02  0.93590322951E+02  0.47000000000E+01 0.  1.
         13    1    4    4    0    0 -0.14021080480E+03 -0.12164415839E+03 -0.13304181811E+03  0.22837796833E+03  0.00000000000E+00 0. -1.
        -14    1    4    4    0    0 -0.29183591181E+02 -0.70566608613E+01  0.73526760598E+01  0.30911814926E+02  0.00000000000E+00 0.  1.
</event>
<event>
12    1  0.8462562E-002  0.1940673E+03  0.7818608E-02  0.1156083E+00
         21   -1    0    0  501  502  0.00000000000E+00  0.00000000000E+00  0.24761887876E+03  0.24761887876E+03  0.00000000000E+00 0.  1.
         21   -1    0    0  502  503 -0.00000000000E+00 -0.00000000000E+00 -0.14842856168E+03  0.14842856168E+03  0.00000000000E+00 0. -1.
         -6    2    1    2    0  503  0.36551496746E+01 -0.74223235752E+02  0.63512997328E+02  0.20419598274E+03  0.17927534602E+03 0.  0.
        -24    2    3    3    0    0 -0.16938468460E+02 -0.18992930958E+02  0.10471493394E+03  0.13212536975E+03  0.76447712863E+02 0.  0.
          6    2    1    2  501    0 -0.36551496746E+01  0.74223235752E+02  0.35677319748E+02  0.19185145770E+03  0.17323874230E+03 0.  0.
         24    2    5    5    0    0 -0.37105480644E+02  0.96999384377E+02  0.45709748533E+02  0.14989413158E+03  0.97944741088E+02 0.  0.
          5    1    5    5  501    0  0.33450330970E+02 -0.22776148625E+02 -0.10032428786E+02  0.41957326124E+02  0.47000000000E+01 0. -1.
        -13    1    6    6    0    0 -0.38978876781E+02  0.78618959101E+01  0.45910656938E+02  0.60736732403E+02  0.00000000000E+00 0.  1.
         14    1    6    6    0    0  0.18733961371E+01  0.89137488467E+02 -0.20090840504E+00  0.89157399174E+02  0.00000000000E+00 0. -1.
         -5    1    3    3    0  503  0.20593618135E+02 -0.55230304795E+02 -0.41201936611E+02  0.72070612985E+02  0.47000000000E+01 0.  1.
         11    1    4    4    0    0  0.17020557091E+02  0.39990807976E+01 -0.21933541292E+01  0.17621090013E+02  0.00000000000E+00 0. -1.
        -12    1    4    4    0    0 -0.33959025551E+02 -0.22992011755E+02  0.10690828807E+03  0.11450427974E+03  0.00000000000E+00 0.  1.
</event>
<event>
12    1  0.8462562E-002  0.1779312E+03  0.7818608E-02  0.1169871E+00
         21   -1    0    0  501  502  0.00000000000E+00  0.00000000000E+00  0.74986332060E+02  0.74986332060E+02  0.00000000000E+00 0.  1.
         21   -1    0    0  502  503 -0.00000000000E+00 -0.00000000000E+00 -0.69132331062E+03  0.69132331062E+03  0.00000000000E+00 0.  1.
         -6    2    1    2    0  503  0.24432291683E+02  0.37494116260E+02 -0.54755306739E+03  0.57573768139E+03  0.17221141231E+03 0.  0.
        -24    2    3    3    0    0  0.91413978713E+01  0.21937691844E+02 -0.54725411603E+03  0.55342192135E+03  0.78891875650E+02 0.  0.
          6    2    1    2  501    0 -0.24432291683E+02 -0.37494116260E+02 -0.68783911163E+02  0.19057196129E+03  0.17199912896E+03 0.  0.
         24    2    5    5    0    0  0.14778264781E+02  0.18369633649E+02  0.96150954968E+01  0.86520433007E+02  0.82689145092E+02 0.  0.
          5    1    5    5  501    0 -0.39210556464E+02 -0.55863749910E+02 -0.78399006660E+02  0.10405152828E+03  0.47000000000E+01 0. -1.
        -13    1    6    6    0    0 -0.26151852743E+02 -0.17575974489E+02  0.32582644421E+01  0.31677287893E+02  0.00000000000E+00 0.  1.
         14    1    6    6    0    0  0.40930117524E+02  0.35945608138E+02  0.63568310546E+01  0.54843145114E+02  0.00000000000E+00 0. -1.
         -5    1    3    3    0  503  0.15290893811E+02  0.15556424416E+02 -0.29895136417E+00  0.22315760038E+02  0.47000000000E+01 0.  1.
         11    1    4    4    0    0  0.15822802382E+02 -0.23887244345E+02 -0.10809744433E+03  0.11183031337E+03  0.00000000000E+00 0. -1.
        -12    1    4    4    0    0 -0.66814045104E+01  0.45824936189E+02 -0.43915667170E+03  0.44159160798E+03  0.00000000000E+00 0.  1.
</event>
<event>
12    1  0.8462562E-002  0.1879618E+03  0.7818608E-02  0.1160389E+00
         21   -1    0    0  501  502  0.00000000000E+00  0.00000000000E+00  0.17300262242E+03  0.17300262242E+03  0.00000000000E+00 0. -1.
         21   -1    0    0  502  503 -0.00000000000E+00 -0.00000000000E+00 -0.29821413189E+03  0.29821413189E+03  0.00000000000E+00 0. -1.
         -6    2    1    2    0  503 -0.73984995933E+02  0.19082197701E+02  0.69890432571E+02  0.20053503558E+03  0.17173152896E+03 0.  0.
        -24    2    3    3    0    0 -0.55549214430E+01  0.16296890501E+02  0.96928632151E+02  0.12675436557E+03  0.79843995811E+02 0.  0.
          6    2    1    2  501    0  0.73984995933E+02 -0.19082197701E+02 -0.19510194204E+03  0.27068171874E+03  0.17136485981E+03 0.  0.
         24    2    5    5    0    0  0.49135723733E+02 -0.38324121161E+02 -0.38157289178E+02  0.11055223360E+03  0.82962401282E+02 0.  0.
          5    1    5    5  501    0  0.24849272200E+02  0.19241923460E+02 -0.15694465287E+03  0.16012948514E+03  0.47000000000E+01 0. -1.
        -11    1    6    6    0    0  0.76910468986E+01 -0.30819507484E+02 -0.56339071766E+02  0.64676775208E+02  0.00000000000E+00 0.  1.
         12    1    6    6    0    0  0.41444676834E+02 -0.75046136772E+01  0.18181782588E+02  0.45875458389E+02  0.00000000000E+00 0. -1.
         -5    1    3    3    0  503 -0.68430074490E+02  0.27853072004E+01 -0.27038199581E+02  0.73780670012E+02  0.47000000000E+01 0.  1.
         11    1    4    4    0    0 -0.34104874773E+02  0.33663440686E+02  0.51333663636E+02  0.70224744531E+02  0.00000000000E+00 0. -1.
        -12    1    4    4    0    0  0.28549953330E+02 -0.17366550185E+02  0.45594968515E+02  0.56529621036E+02  0.00000000000E+00 0.  1.
</event>
<event>
12    1  0.8462562E-002  0.2863372E+03  0.7818608E-02  0.1092384E+00
         21   -1    0    0  503  502  0.00000000000E+00  0.00000000000E+00  0.33938953404E+03  0.33938953404E+03  0.00000000000E+00 0. -1.
         21   -1    0    0  501  503 -0.00000000000E+00 -0.00000000000E+00 -0.24925234330E+03  0.24925234330E+03  0.00000000000E+00 0.  1.
          6    2    1    2  501    0  0.21959205286E+00  0.22757890671E+03  0.98888548084E+02  0.30217098316E+03  0.17244173253E+03 0.  0.
         24    2    3    3    0    0  0.13691693736E+02  0.15464527306E+03  0.13379817439E+03  0.22006383091E+03  0.80146835535E+02 0.  0.
         -6    2    1    2    0  502 -0.21959205286E+00 -0.22757890671E+03 -0.87513573436E+01  0.28647089418E+03  0.17377220709E+03 0.  0.
        -24    2    5    5    0    0  0.21579930116E+01 -0.24654742464E+03  0.12108351695E+02  0.25778858178E+03  0.74283586232E+02 0.  0.
          5    1    3    3  501    0 -0.13472101683E+02  0.72933633648E+02 -0.34909626309E+02  0.82107152246E+02  0.47000000000E+01 0. -1.
        -13    1    4    4    0    0 -0.15591632145E+02  0.14028966521E+03  0.11721725307E+03  0.18347799208E+03  0.00000000000E+00 0.  1.
         14    1    4    4    0    0  0.29283325881E+02  0.14355607850E+02  0.16580921318E+02  0.36585838834E+02  0.00000000000E+00 0. -1.
         -5    1    5    5    0  502 -0.23775850645E+01  0.18968517934E+02 -0.20859709039E+02  0.28682312399E+02  0.47000000000E+01 0.  1.
         13    1    6    6    0    0 -0.19820306217E+02 -0.10318262825E+03 -0.25155556779E+02  0.10803842533E+03  0.00000000000E+00 0. -1.
        -14    1    6    6    0    0  0.21978299229E+02 -0.14336479640E+03  0.37263908474E+02  0.14975015645E+03  0.00000000000E+00 0.  1.
</event>
<event>
12    1  0.8462562E-002  0.1905237E+03  0.7818608E-02  0.1158043E+00
         21   -1    0    0  503  502  0.00000000000E+00  0.00000000000E+00  0.23640864143E+03  0.23640864143E+03  0.00000000000E+00 0. -1.
         21   -1    0    0  501  503 -0.00000000000E+00 -0.00000000000E+00 -0.16014208822E+03  0.16014208822E+03  0.00000000000E+00 0. -1.
          6    2    1    2  501    0  0.79456029732E+02  0.15057412768E+02  0.78935315791E+02  0.20600838717E+03  0.17224600189E+03 0.  0.
         24    2    3    3    0    0  0.31361762736E+02  0.21957891867E+02  0.11519952743E+03  0.14519837011E+03  0.79661323023E+02 0.  0.
         -6    2    1    2    0  502 -0.79456029732E+02 -0.15057412768E+02 -0.26687625845E+01  0.19054234248E+03  0.17250876975E+03 0.  0.
        -24    2    5    5    0    0 -0.11073936551E+03  0.14847840330E+02 -0.27889245108E+02  0.14023196582E+03  0.80022052025E+02 0.  0.
          5    1    3    3  501    0  0.48094266996E+02 -0.69004790992E+01 -0.36264211637E+02  0.60810017064E+02  0.47000000000E+01 0. -1.
        -13    1    4    4    0    0 -0.15292397107E+02  0.11470584730E+02 -0.14069336924E+01  0.19167972917E+02  0.00000000000E+00 0.  1.
         14    1    4    4    0    0  0.46654159842E+02  0.10487307137E+02  0.11660646112E+03  0.12603039719E+03  0.00000000000E+00 0. -1.
         -5    1    5    5    0  502  0.31283335777E+02 -0.29905253098E+02  0.25220482524E+02  0.50310376652E+02  0.47000000000E+01 0.  1.
         11    1    6    6    0    0 -0.16307279417E+02 -0.61321820970E+01 -0.39142839751E+02  0.42844987140E+02  0.00000000000E+00 0. -1.
        -12    1    6    6    0    0 -0.94432086091E+02  0.20980022427E+02  0.11253594643E+02  0.97386978683E+02  0.00000000000E+00 0.  1.
</event>
<event>
12    1  0.8462562E-002  0.1936349E+03  0.7818608E-02  0.1155449E+00
         21   -1    0    0  503  502  0.00000000000E+00  0.00000000000E+00  0.78292839823E+02  0.78292839823E+02  0.00000000000E+00 0. -1.
         21   -1    0    0  501  503 -0.00000000000E+00 -0.00000000000E+00 -0.82465764474E+03  0.82465764474E+03  0.00000000000E+00 0. -1.
          6    2    1    2  501    0 -0.28492792603E+02 -0.81662466868E+02 -0.66715910611E+03  0.69469110263E+03  0.17324507926E+03 0.  0.
         24    2    3    3    0    0 -0.71656822254E+02 -0.79962719075E+01 -0.32297673660E+03  0.34004559623E+03  0.78220167392E+02 0.  0.
         -6    2    1    2    0  502  0.28492792603E+02  0.81662466868E+02 -0.79205698811E+02  0.20825938193E+03  0.17209831409E+03 0.  0.
        -24    2    5    5    0    0  0.75195938727E+02  0.28969956252E+02 -0.17776988133E+02  0.11470051796E+03  0.79664922934E+02 0.  0.
          5    1    3    3  501    0  0.43164029651E+02 -0.73666194960E+02 -0.34418236950E+03  0.35464550640E+03  0.47000000000E+01 0. -1.
        -11    1    4    4    0    0  0.11727947307E+02  0.83258747247E+01 -0.15942808015E+02  0.21471796976E+02  0.00000000000E+00 0.  1.
         12    1    4    4    0    0 -0.83384769561E+02 -0.16322146632E+02 -0.30703392859E+03  0.31857379925E+03  0.00000000000E+00 0. -1.
         -5    1    5    5    0  502 -0.46703146124E+02  0.52692510616E+02 -0.61428710678E+02  0.93558863976E+02  0.47000000000E+01 0.  1.
         11    1    6    6    0    0  0.49202611527E+02  0.41363757370E+02  0.19890292742E+02  0.67286559952E+02  0.00000000000E+00 0. -1.
        -12    1    6    6    0    0  0.25993327200E+02 -0.12393801117E+02 -0.37667280875E+02  0.47413958004E+02  0.00000000000E+00 0.  1.
</event>
<event>
12    1  0.8462562E-002  0.1821817E+03  0.7818608E-02  0.1166713E+00
         21   -1    0    0  503  502  0.00000000000E+00  0.00000000000E+00  0.16033233772E+04  0.16033233772E+04  0.00000000000E+00 0. -1.
         21   -1    0    0  501  503 -0.00000000000E+00 -0.00000000000E+00 -0.28669837588E+03  0.28669837588E+03  0.00000000000E+00 0. -1.
          6    2    1    2  501    0  0.29259004592E+02 -0.52589258192E+02 -0.25328006585E+03  0.30958128310E+03  0.16753524903E+03 0.  0.
         24    2    3    3    0    0  0.10910373938E+02 -0.94413019379E+02 -0.12491221148E+03  0.17324971932E+03  0.73345416915E+02 0.  0.
         -6    2    1    2    0  502 -0.29259004592E+02  0.52589258192E+02  0.15699050671E+04  0.15804404700E+04  0.17195476088E+03 0.  0.
        -24    2    5    5    0    0 -0.37970523123E+02 -0.29329853166E+02  0.89230283161E+03  0.89783259499E+03  0.87160911034E+02 0.  0.
          5    1    3    3  501    0  0.18348630653E+02  0.41823761188E+02 -0.12836785437E+03  0.13633156378E+03  0.47000000000E+01 0. -1.
        -11    1    4    4    0    0  0.38908512637E+02 -0.77733077747E+02 -0.83317407677E+02  0.12040803193E+03  0.00000000000E+00 0.  1.
         12    1    4    4    0    0 -0.27998138699E+02 -0.16679941633E+02 -0.41594803798E+02  0.52841687392E+02  0.00000000000E+00 0. -1.
         -5    1    5    5    0  502  0.87115185314E+01  0.81919111358E+02  0.67760223554E+03  0.68260787497E+03  0.47000000000E+01 0.  1.
         11    1    6    6    0    0 -0.21175201113E+02  0.24385282484E+02  0.54883435303E+03  0.54978375586E+03  0.00000000000E+00 0. -1.
        -12    1    6    6    0    0 -0.16795322010E+02 -0.53715135651E+02  0.34346847858E+03  0.34804883913E+03  0.00000000000E+00 0.  1.
</event>
<event>
12    1  0.8462562E-002  0.3143689E+03  0.7818608E-02  0.1078364E+00
         21   -1    0    0  503  502  0.00000000000E+00  0.00000000000E+00  0.10262250305E+04  0.10262250305E+04  0.00000000000E+00 0. -1.
         21   -1    0    0  501  503 -0.00000000000E+00 -0.00000000000E+00 -0.96349502606E+02  0.96349502606E+02  0.00000000000E+00 0. -1.
          6    2    1    2  501    0  0.20903473957E+03 -0.15995020313E+03  0.49512269674E+03  0.58606935687E+03  0.17044417384E+03 0.  0.
         24    2    3    3    0    0  0.12284427675E+03 -0.10845518738E+03  0.42774490454E+03  0.46506361564E+03  0.80406586974E+02 0.  0.
         -6    2    1    2    0  502 -0.20903473957E+03  0.15995020313E+03  0.43475283114E+03  0.53650517624E+03  0.17189586997E+03 0.  0.
        -24    2    5    5    0    0 -0.12155084531E+03  0.23354116676E+02  0.16090096706E+03  0.21818323848E+03  0.79967378315E+02 0.  0.
          5    1    3    3  501    0  0.86190462814E+02 -0.51495015752E+02  0.67377792200E+02  0.12100574122E+03  0.47000000000E+01 0. -1.
        -11    1    4    4    0    0  0.45398314923E+02 -0.12468523193E+01  0.16172816706E+03  0.16798381368E+03  0.00000000000E+00 0.  1.
         12    1    4    4    0    0  0.77445961832E+02 -0.10720833506E+03  0.26601673749E+03  0.29707980196E+03  0.00000000000E+00 0. -1.
         -5    1    5    5    0  502 -0.87483894262E+02  0.13659608646E+03  0.27385186409E+03  0.31832193775E+03  0.47000000000E+01 0.  1.
         11    1    6    6    0    0 -0.12970869568E+03  0.95033077257E+01  0.15106882169E+03  0.19934002979E+03  0.00000000000E+00 0. -1.
        -12    1    6    6    0    0  0.81578503688E+01  0.13850808950E+02  0.98321453710E+01  0.18843208692E+02  0.00000000000E+00 0.  1.
</event>
<event>
12    1  0.8462562E-002  0.1706132E+03  0.7818608E-02  0.1177237E+00
         21   -1    0    0  501  502  0.00000000000E+00  0.00000000000E+00  0.41302955607E+03  0.41302955607E+03  0.00000000000E+00 0. -1.
         21   -1    0    0  502  503 -0.00000000000E+00 -0.00000000000E+00 -0.15361408488E+03  0.15361408488E+03  0.00000000000E+00 0. -1.
         -6    2    1    2    0  503  0.42988668496E+01  0.77818655951E+01 -0.78759461834E+02  0.18791461847E+03  0.17038137609E+03 0.  0.
        -24    2    3    3    0    0  0.37977946244E+02  0.38654097178E+01 -0.11175632473E+03  0.14036988189E+03  0.75874645512E+02 0.  0.
          6    2    1    2  501    0 -0.42988668496E+01 -0.77818655951E+01  0.33817493303E+03  0.37872902248E+03  0.17027727227E+03 0.  0.
         24    2    5    5    0    0  0.61105559800E+02  0.88236723886E+00  0.21354388715E+03  0.23763403479E+03  0.84464636019E+02 0.  0.
          5    1    5    5  501    0 -0.65404426650E+02 -0.86642328340E+01  0.12463104588E+03  0.14109498769E+03  0.47000000000E+01 0. -1.
        -13    1    6    6    0    0 -0.44542651715E+01  0.28783662765E+02  0.94602826660E+02  0.98985021758E+02  0.00000000000E+00 0.  1.
         14    1    6    6    0    0  0.65559824972E+02 -0.27901295527E+02  0.11894106049E+03  0.13864901303E+03  0.00000000000E+00 0. -1.
         -5    1    3    3    0  503 -0.33679079395E+02  0.39164558773E+01  0.32996862897E+02  0.47544736581E+02  0.47000000000E+01 0.  1.
         13    1    4    4    0    0  0.47028392294E+02  0.30945910313E+02 -0.77114540772E+02  0.95477596563E+02  0.00000000000E+00 0. -1.
        -14    1    4    4    0    0 -0.90504460498E+01 -0.27080500595E+02 -0.34641783959E+02  0.44892285329E+02  0.00000000000E+00 0.  1.
</event>
<event>
12    1  0.8462562E-002  0.2140175E+03  0.7818608E-02  0.1138911E+00
         21   -1    0    0  501  502  0.00000000000E+00  0.00000000000E+00  0.18474754148E+02  0.18474754148E+02  0.00000000000E+00 0. -1.
         21   -1    0    0  502  503 -0.00000000000E+00 -0.00000000000E+00 -0.26713025355E+04  0.26713025355E+04  0.00000000000E+00 0. -1.
         -6    2    1    2    0  503 -0.50084565602E+01  0.12682920976E+03 -0.17204488486E+04  0.17337092344E+04  0.17231580282E+03 0.  0.
        -24    2    3    3    0    0 -0.59385823325E+02  0.93567697020E+02 -0.14203151103E+04  0.14268451324E+04  0.79438211555E+02 0.  0.
          6    2    1    2  501    0  0.50084565602E+01 -0.12682920976E+03 -0.93237893280E+03  0.95606805524E+03  0.16918900330E+03 0.  0.
         24    2    5    5    0    0  0.60946444262E+01 -0.14298121833E+03 -0.92142873444E+03  0.93596671128E+03  0.80758891087E+02 0.  0.
          5    1    5    5  501    0 -0.10861878660E+01  0.16152008571E+02 -0.10950198365E+02  0.20101343964E+02  0.47000000000E+01 0. -1.
        -11    1    6    6    0    0 -0.75039738450E+01 -0.83801779920E+01 -0.28951851808E+03  0.28973696575E+03  0.00000000000E+00 0.  1.
         12    1    6    6    0    0  0.13598618271E+02 -0.13460104033E+03 -0.63191021636E+03  0.64622974553E+03  0.00000000000E+00 0. -1.
         -5    1    3    3    0  503  0.54377366765E+02  0.33261512736E+02 -0.30013373828E+03  0.30686410200E+03  0.47000000000E+01 0.  1.
         11    1    4    4    0    0  0.46315596850E+01  0.48308242542E+02 -0.31106513215E+03  0.31482797538E+03  0.00000000000E+00 0. -1.
        -12    1    4    4    0    0 -0.64017383010E+02  0.45259454478E+02 -0.11092499781E+04  0.11120171570E+04  0.00000000000E+00 0.  1.
</event>
<event>
12    1  0.8462562E-002  0.2820190E+03  0.7818608E-02  0.1094615E+00
         21   -1    0    0  501  502  0.00000000000E+00  0.00000000000E+00  0.26598634431E+03  0.26598634431E+03  0.00000000000E+00 0.  1.
         21   -1    0    0  502  503 -0.00000000000E+00 -0.00000000000E+00 -0.55743254954E+03  0.55743254954E+03  0.00000000000E+00 0.  1.
         -6    2    1    2    0  503 -0.66462615299E+02 -0.21323913162E+03 -0.42616823752E+03  0.51103239340E+03  0.17218168879E+03 0.  0.
        -24    2    3    3    0    0  0.71602316051E+01 -0.11572779996E+03 -0.31906896544E+03  0.34848662302E+03  0.78700248540E+02 0.  0.
          6    2    1    2  501    0  0.66462615299E+02  0.21323913162E+03  0.13472203229E+03  0.31238650045E+03  0.17189267928E+03 0.  0.
         24    2    5    5    0    0  0.53684051603E+02  0.23607567246E+03  0.12644254287E+03  0.28453979089E+03  0.79758858001E+02 0.  0.
          5    1    5    5  501    0  0.12778563696E+02 -0.22836540845E+02  0.82794894230E+01  0.27846709554E+02  0.47000000000E+01 0. -1.
        -13    1    6    6    0    0 -0.18437289127E+01  0.12901055302E+02  0.34471436612E+02  0.36852632284E+02  0.00000000000E+00 0.  1.
         14    1    6    6    0    0  0.55527780516E+02  0.22317461716E+03  0.91971106255E+02  0.24768715861E+03  0.00000000000E+00 0. -1.
         -5    1    3    3    0  503 -0.73622846904E+02 -0.97511331663E+02 -0.10709927208E+03  0.16254577038E+03  0.47000000000E+01 0.  1.
         13    1    4    4    0    0 -0.10068593282E+02 -0.20418499121E+01 -0.10597040606E+01  0.10328053759E+02  0.00000000000E+00 0. -1.
        -14    1    4    4    0    0  0.17228824887E+02 -0.11368595004E+03 -0.31800926138E+03  0.33815856927E+03  0.00000000000E+00 0.  1.
</event>
<event>
12    1  0.8462562E-002  0.1834232E+03  0.7818608E-02  0.1164811E+00
         21   -1    0    0  501  502  0.00000000000E+00  0.00000000000E+00  0.17767177475E+03  0.17767177475E+03  0.00000000000E+00 0. -1.
         21   -1    0    0  502  503 -0.00000000000E+00 -0.00000000000E+00 -0.37353385820E+03  0.37353385820E+03  0.00000000000E+00 0. -1.
         -6    2    1    2    0  503 -0.61243623242E+02  0.11754369422E+02 -0.29193254660E+03  0.34414622408E+03  0.17123978858E+03 0.  0.
        -24    2    3    3    0    0  0.22061850790E+02  0.18501360661E+02 -0.81475345713E+02  0.11765196962E+03  0.79841896211E+02 0.  0.
          6    2    1    2  501    0  0.61243623242E+02 -0.11754369422E+02  0.96070463155E+02  0.20705940887E+03  0.17249671974E+03 0.  0.
         24    2    5    5    0    0 -0.38288447068E+02  0.18537245066E+01  0.39112129141E+02  0.91481923799E+02  0.73278525248E+02 0.  0.
          5    1    5    5  501    0  0.99532070310E+02 -0.13608093929E+02  0.56958334014E+02  0.11557748507E+03  0.47000000000E+01 0. -1.
        -11    1    6    6    0    0 -0.14781838527E+01  0.28215214574E+02  0.36462943232E+02  0.46128403290E+02  0.00000000000E+00 0.  1.
         12    1    6    6    0    0 -0.36810263215E+02 -0.26361490067E+02  0.26491859091E+01  0.45353520509E+02  0.00000000000E+00 0. -1.
         -5    1    3    3    0  503 -0.83305474032E+02 -0.67469912387E+01 -0.21045720089E+03  0.22649425445E+03  0.47000000000E+01 0.  1.
         13    1    4    4    0    0 -0.16260442318E+02  0.33926109422E+02 -0.17486050552E+02  0.41486682789E+02  0.00000000000E+00 0. -1.
        -14    1    4    4    0    0  0.38322293107E+02 -0.15424748761E+02 -0.63989295161E+02  0.76165286834E+02  0.00000000000E+00 0.  1.
</event>
<event>
12    1  0.8462562E-002  0.1795335E+03  0.7818608E-02  0.1168257E+00
         21   -1    0    0  503  502  0.00000000000E+00  0.00000000000E+00  0.85540497880E+03  0.85540497880E+03  0.00000000000E+00 0.  1.
         21   -1    0    0  501  503 -0.00000000000E+00 -0.00000000000E+00 -0.41321040476E+02  0.41321040476E+02  0.00000000000E+00 0.  1.
          6    2    1    2  501    0 -0.44050369330E+02 -0.24733703778E+02  0.27394505934E+03  0.32753345782E+03  0.17227907394E+03 0.  0.
         24    2    3    3    0    0 -0.46423186781E+02 -0.71500969583E+02  0.12765837725E+03  0.17386273592E+03  0.81633870040E+02 0.  0.
         -6    2    1    2    0  502  0.44050369330E+02  0.24733703778E+02  0.54013887899E+03  0.56919256146E+03  0.17227295865E+03 0.  0.
        -24    2    5    5    0    0  0.49707945001E+02 -0.38133627821E+02  0.20785786172E+03  0.23093663175E+03  0.78751405306E+02 0.  0.
          5    1    3    3  501    0  0.23728174509E+01  0.46767265804E+02  0.14628668208E+03  0.15367072190E+03  0.47000000000E+01 0. -1.
        -13    1    4    4    0    0  0.18801131199E+01  0.16391183298E+02  0.10132279701E+02  0.19361529051E+02  0.00000000000E+00 0.  1.
         14    1    4    4    0    0 -0.48303299901E+02 -0.87892152881E+02  0.11752609755E+03  0.15450120687E+03  0.00000000000E+00 0. -1.
         -5    1    5    5    0  502 -0.56575756708E+01  0.62867331600E+02  0.33228101727E+03  0.33825592971E+03  0.47000000000E+01 0.  1.
         11    1    6    6    0    0  0.35076511822E+02  0.17910862863E+02  0.56485295278E+02  0.68860360679E+02  0.00000000000E+00 0. -1.
        -12    1    6    6    0    0  0.14631433179E+02 -0.56044490684E+02  0.15137256644E+03  0.16207627107E+03  0.00000000000E+00 0.  1.
</event>
<event>
12    1  0.8462562E-002  0.1729243E+03  0.7818608E-02  0.1174903E+00
         21   -1    0    0  501  502  0.00000000000E+00  0.00000000000E+00  0.56955004537E+03  0.56955004537E+03  0.00000000000E+00 0.  1.
         21   -1    0    0  502  503 -0.00000000000E+00 -0.00000000000E+00 -0.54605765109E+02  0.54605765109E+02  0.00000000000E+00 0.  1.
         -6    2    1    2    0  503 -0.18906863403E+01  0.17927479986E+02  0.19480348136E+03  0.26029737865E+03  0.17170136793E+03 0.  0.
        -24    2    3    3    0    0 -0.62549514297E+02  0.41498933017E+01  0.77267738384E+02  0.12723327312E+03  0.79299048166E+02 0.  0.
          6    2    1    2  501    0  0.18906863403E+01 -0.17927479986E+02  0.32014079890E+03  0.36385843183E+03  0.17198214459E+03 0.  0.
         24    2    5    5    0    0 -0.13652055436E+01 -0.18152702980E+02  0.33684293475E+03  0.34620332211E+03  0.77860086957E+02 0.  0.
          5    1    5    5  501    0  0.32558918839E+01  0.22522299430E+00 -0.16702135846E+02  0.17655109718E+02  0.47000000000E+01 0. -1.
        -13    1    6    6    0    0  0.28467417272E+02 -0.31000600722E+02  0.24931763214E+03  0.25284523486E+03  0.00000000000E+00 0.  1.
         14    1    6    6    0    0 -0.29832622816E+02  0.12847897742E+02  0.87525302601E+02  0.93358087255E+02  0.00000000000E+00 0. -1.
         -5    1    3    3    0  503  0.60658827956E+02  0.13777586684E+02  0.11753574297E+03  0.13306410553E+03  0.47000000000E+01 0.  1.
         11    1    4    4    0    0 -0.53309237110E+02 -0.18144165220E+02  0.84938903883E+02  0.10191026879E+03  0.00000000000E+00 0. -1.
        -12    1    4    4    0    0 -0.92402771863E+01  0.22294058521E+02 -0.76711654991E+01  0.25323004323E+02  0.00000000000E+00 0.  1.
</event>
<event>
12    1  0.8462562E-002  0.2847064E+03  0.7818608E-02  0.1093532E+00
         21   -1    0    0  503  502  0.00000000000E+00  0.00000000000E+00  0.77008605624E+02  0.77008605624E+02  0.00000000000E+00 0. -1.
         21   -1    0    0  501  503 -0.00000000000E+00 -0.00000000000E+00 -0.15570750319E+04  0.15570750319E+04  0.00000000000E+00 0. -1.
          6    2    1    2  501    0  0.93059496555E+02 -0.20993570661E+03 -0.12074487724E+04  0.12399033106E+04  0.16338485476E+03 0.  0.
         24    2    3    3    0    0 -0.13294584978E+02 -0.79354983832E+02 -0.50781619551E+03  0.52027121813E+03  0.79566906050E+02 0.  0.
         -6    2    1    2    0  502 -0.93059496555E+02  0.20993570661E+03 -0.27261765384E+03  0.39418032692E+03  0.16829935871E+03 0.  0.
        -24    2    5    5    0    0 -0.20166459147E+02  0.16947584825E+03 -0.12919604880E+03  0.22822177236E+03  0.79150547319E+02 0.  0.
          5    1    3    3  501    0  0.10635408153E+03 -0.13058072277E+03 -0.69963257692E+03  0.71963209247E+03  0.47000000000E+01 0. -1.
        -11    1    4    4    0    0 -0.20624715051E+02  0.49952150276E+01 -0.19664769843E+03  0.19778940402E+03  0.00000000000E+00 0.  1.
         12    1    4    4    0    0  0.73301300737E+01 -0.84350198859E+02 -0.31116849708E+03  0.32248181411E+03  0.00000000000E+00 0. -1.
         -5    1    5    5    0  502 -0.72893037408E+02  0.40459858359E+02 -0.14342160504E+03  0.16595855456E+03  0.47000000000E+01 0.  1.
         11    1    6    6    0    0 -0.42520593808E+02  0.15624723641E+03 -0.10734959156E+03  0.19428107111E+03  0.00000000000E+00 0. -1.
        -12    1    6    6    0    0  0.22354134660E+02  0.13228611838E+02 -0.21846457242E+02  0.33940701254E+02  0.00000000000E+00 0.  1.
</event>
<event>
12    1  0.8462562E-002  0.1750559E+03  0.7818608E-02  0.1174222E+00
         21   -1    0    0  501  502  0.00000000000E+00  0.00000000000E+00  0.21749971635E+03  0.21749971635E+03  0.00000000000E+00 0.  1.
         21   -1    0    0  502  503 -0.00000000000E+00 -0.00000000000E+00 -0.18699319364E+03  0.18699319364E+03  0.00000000000E+00 0.  1.
         -6    2    1    2    0  503  0.22052278548E+01 -0.96186760335E+01 -0.90473852701E+02  0.19169999536E+03  0.16871866595E+03 0.  0.
        -24    2    3    3    0    0 -0.32956723804E+01  0.17983279425E+02  0.15048701048E+02  0.82387474584E+02  0.78911170121E+02 0.  0.
          6    2    1    2  501    0 -0.22052278548E+01  0.96186760335E+01  0.12098037542E+03  0.21279291463E+03  0.17477754811E+03 0.  0.
         24    2    5    5    0    0  0.25894513763E+02  0.33002662564E+02  0.16446289465E+01  0.87894889465E+02  0.77221144840E+02 0.  0.
          5    1    5    5  501    0 -0.28099741617E+02 -0.23383986530E+02  0.11933574647E+03  0.12489802517E+03  0.47000000000E+01 0. -1.
        -11    1    6    6    0    0 -0.15571418185E+01  0.63655448478E+00  0.34302688073E+02  0.34343912143E+02  0.00000000000E+00 0.  1.
         12    1    6    6    0    0  0.27451655581E+02  0.32366108079E+02 -0.32658059126E+02  0.53550977323E+02  0.00000000000E+00 0. -1.
         -5    1    3    3    0  503  0.55009002351E+01 -0.27601955458E+02 -0.10552255375E+03  0.10931252077E+03  0.47000000000E+01 0.  1.
         13    1    4    4    0    0 -0.28564953464E+02  0.65183507578E+00  0.35483206526E+02  0.45556990690E+02  0.00000000000E+00 0. -1.
        -14    1    4    4    0    0  0.25269281084E+02  0.17331444349E+02 -0.20434505478E+02  0.36830483894E+02  0.00000000000E+00 0.  1.
</event>
<event>
12    1  0.8462562E-002  0.1948690E+03  0.7818608E-02  0.1154555E+00
         21   -1    0    0  501  502  0.00000000000E+00  0.00000000000E+00  0.55606245160E+03  0.55606245160E+03  0.00000000000E+00 0. -1.
         21   -1    0    0  502  503 -0.00000000000E+00 -0.00000000000E+00 -0.90408214372E+02  0.90408214372E+02  0.00000000000E+00 0. -1.
         -6    2    1    2    0  503  0.86201725093E+02 -0.16509005589E+02  0.71436558320E+02  0.20755021091E+03  0.17398454962E+03 0.  0.
        -24    2    3    3    0    0  0.12100193703E+03  0.14837287641E+02  0.41470416027E+02  0.15174963265E+03  0.80290358910E+02 0.  0.
          6    2    1    2  501    0 -0.86201725093E+02  0.16509005589E+02  0.39421767891E+03  0.43892045507E+03  0.17187292642E+03 0.  0.
         24    2    5    5    0    0 -0.36776587851E+02 -0.51226153094E+02  0.15460745192E+03  0.18501880720E+03  0.79698548623E+02 0.  0.
          5    1    5    5  501    0 -0.49425137242E+02  0.67735158683E+02  0.23961022699E+03  0.25390164787E+03  0.47000000000E+01 0. -1.
        -13    1    6    6    0    0  0.18518531241E+02  0.58290353558E-01  0.66558271412E+02  0.69086488480E+02  0.00000000000E+00 0.  1.
         14    1    6    6    0    0 -0.55295119092E+02 -0.51284443447E+02  0.88049180507E+02  0.11593231872E+03  0.00000000000E+00 0. -1.
         -5    1    3    3    0  503 -0.34800211935E+02 -0.31346293230E+02  0.29966142292E+02  0.55800578258E+02  0.47000000000E+01 0.  1.
         11    1    4    4    0    0  0.70080840843E+01 -0.22346149265E+02 -0.35190869454E+01  0.23682221231E+02  0.00000000000E+00 0. -1.
        -12    1    4    4    0    0  0.11399385294E+03  0.37183436906E+02  0.44989502973E+02  0.12806741142E+03  0.00000000000E+00 0.  1.
</event>
<event>
12    1  0.8462562E-002  0.1794922E+03  0.7818608E-02  0.1169273E+00
         21   -1    0    0  501  502  0.00000000000E+00  0.00000000000E+00  0.36229712364E+02  0.36229712364E+02  0.00000000000E+00 0.  1.
         21   -1    0    0  502  503 -0.00000000000E+00 -0.00000000000E+00 -0.94354406407E+03  0.94354406407E+03  0.00000000000E+00 0. -1.
         -6    2    1    2    0  503 -0.35875305573E+02 -0.65203095282E+01 -0.59542475900E+03  0.62189075512E+03  0.17574958232E+03 0.  0.
        -24    2    3    3    0    0  0.26214910828E+02 -0.50221881302E+01 -0.15427519223E+03  0.17636581800E+03  0.81188810160E+02 0.  0.
          6    2    1    2  501    0  0.35875305573E+02  0.65203095282E+01 -0.31188959270E+03  0.35788302131E+03  0.17168455644E+03 0.  0.
         24    2    5    5    0    0  0.13458627545E+02 -0.60198189905E+02 -0.22758473330E+03  0.24795911609E+03  0.76706946864E+02 0.  0.
          5    1    5    5  501    0  0.22416678028E+02  0.66718499433E+02 -0.84304859402E+02  0.10992390522E+03  0.47000000000E+01 0. -1.
        -13    1    6    6    0    0 -0.31214202740E+00  0.10277502913E+02 -0.10736546917E+01  0.10338144571E+02  0.00000000000E+00 0.  1.
         14    1    6    6    0    0  0.13770769573E+02 -0.70475692819E+02 -0.22651107861E+03  0.23762097152E+03  0.00000000000E+00 0. -1.
         -5    1    3    3    0  503 -0.62090216401E+02 -0.14981213980E+01 -0.44114956677E+03  0.44552493712E+03  0.47000000000E+01 0.  1.
         11    1    4    4    0    0  0.35525307355E+02  0.31656386587E+02 -0.88562268373E+02  0.10053581279E+03  0.00000000000E+00 0. -1.
        -12    1    4    4    0    0 -0.93103965274E+01 -0.36678574718E+02 -0.65712923860E+02  0.75830005202E+02  0.00000000000E+00 0.  1.
</event>
<event>
12    1  0.8462562E-002  0.1914058E+03  0.7818608E-02  0.1157425E+00
         21   -1    0    0  501  502  0.00000000000E+00  0.00000000000E+00  0.56142356934E+03  0.56142356934E+03  0.00000000000E+00 0.  1.
         21   -1    0    0  502  503 -0.00000000000E+00 -0.00000000000E+00 -0.83896576092E+02  0.83896576092E+02  0.00000000000E+00 0. -1.
         -6    2    1    2    0  503  0.94941002282E+01 -0.81779505013E+02  0.39175761465E+03  0.43557607711E+03  0.17168128883E+03 0.  0.
        -24    2    3    3    0    0  0.28330528242E+02 -0.74999270573E+02  0.13213629865E+03  0.17514163176E+03  0.82383738319E+02 0.  0.
          6    2    1    2  501    0 -0.94941002282E+01  0.81779505013E+02  0.85769378595E+02  0.20974406832E+03  0.17279514609E+03 0.  0.
         24    2    5    5    0    0 -0.67197252100E+02  0.81908378517E+02  0.60315076707E+02  0.14650103053E+03  0.81241555296E+02 0.  0.
          5    1    5    5  501    0  0.57703151872E+02 -0.12887350355E+00  0.25454301889E+02  0.63243037790E+02  0.47000000000E+01 0. -1.
        -11    1    6    6    0    0 -0.69893602466E+02  0.51388805681E+02  0.72961904063E+02  0.11335503720E+03  0.00000000000E+00 0.  1.
         12    1    6    6    0    0  0.26963503654E+01  0.30519572836E+02 -0.12646827356E+02  0.33145993326E+02  0.00000000000E+00 0. -1.
         -5    1    3    3    0  503 -0.18836428014E+02 -0.67802344407E+01  0.25962131601E+03  0.26043444535E+03  0.47000000000E+01 0.  1.
         11    1    4    4    0    0 -0.31105665712E+01  0.14456892161E+02  0.32622645714E+01  0.15143306293E+02  0.00000000000E+00 0. -1.
        -12    1    4    4    0    0  0.31441094814E+02 -0.89456162734E+02  0.12887403407E+03  0.15999832547E+03  0.00000000000E+00 0.  1.
</event>
<event>
12    1  0.8462562E-002  0.2252138E+03  0.7818608E-02  0.1130162E+00
         21   -1    0    0  501  502  0.00000000000E+00  0.00000000000E+00  0.11889151131E+03  0.11889151131E+03  0.00000000000E+00 0.  1.
         21   -1    0    0  502  503 -0.00000000000E+00 -0.00000000000E+00 -0.92713712592E+03  0.92713712592E+03  0.00000000000E+00 0. -1.
         -6    2    1    2    0  503 -0.14070098165E+03  0.36753481536E+02 -0.78859180834E+03  0.81995889484E+03  0.17119569040E+03 0.  0.
        -24    2    3    3    0    0 -0.11932912586E+03 -0.55403970580E+01 -0.34628487311E+03  0.37509594591E+03  0.80706994814E+02 0.  0.
          6    2    1    2  501    0  0.14070098165E+03 -0.36753481536E+02 -0.19653806268E+02  0.22606974239E+03  0.17196997319E+03 0.  0.
         24    2    5    5    0    0  0.15210006604E+03 -0.59709846530E+02 -0.52222835608E+02  0.18435924622E+03  0.67538220640E+02 0.  0.
          5    1    5    5  501    0 -0.11399084383E+02  0.22956364994E+02  0.32569029340E+02  0.41710496169E+02  0.47000000000E+01 0. -1.
        -13    1    6    6    0    0  0.11996415008E+03 -0.14695853536E+02 -0.28484661268E+02  0.12417222453E+03  0.00000000000E+00 0.  1.
         14    1    6    6    0    0  0.32135915953E+02 -0.45013992994E+02 -0.23738174340E+02  0.60187021694E+02  0.00000000000E+00 0. -1.
         -5    1    3    3    0  503 -0.21371855793E+02  0.42293878594E+02 -0.44230693522E+03  0.44486294893E+03  0.47000000000E+01 0.  1.
         11    1    4    4    0    0 -0.40424756966E+02  0.81710294258E+01 -0.23143029214E+03  0.23507638507E+03  0.00000000000E+00 0. -1.
        -12    1    4    4    0    0 -0.78904368894E+02 -0.13711426484E+02 -0.11485458097E+03  0.14001956084E+03  0.00000000000E+00 0.  1.
</event>
<event>
12    1  0.8462562E-002  0.2089267E+03  0.7818608E-02  0.1142480E+00
         21   -1    0    0  503  502  0.00000000000E+00  0.00000000000E+00  0.25347803438E+04  0.25347803438E+04  0.00000000000E+00 0.  1.
         21   -1    0    0  501  503 -0.00000000000E+00 -0.00000000000E+00 -0.24508882569E+02  0.24508882569E+02  0.00000000000E+00 0. -1.
          6    2    1    2  501    0  0.10212707691E+03 -0.57203292085E+02  0.19535185954E+04  0.19646262044E+04  0.17268197306E+03 0.  0.
         24    2    3    3    0    0  0.11841664775E+03 -0.49184179479E+02  0.19222211853E+04  0.19281395744E+04  0.79663964713E+02 0.  0.
         -6    2    1    2    0  502 -0.10212707691E+03  0.57203292085E+02  0.55675286579E+03  0.59466302197E+03  0.17305548147E+03 0.  0.
        -24    2    5    5    0    0 -0.11975444331E+03  0.85314123095E+02  0.38799241857E+03  0.42260744545E+03  0.80245310055E+02 0.  0.
          5    1    3    3  501    0 -0.16289570846E+02 -0.80191126060E+01  0.31297410136E+02  0.36486629970E+02  0.47000000000E+01 0. -1.
        -13    1    4    4    0    0  0.44615608523E+02  0.15483249905E+02  0.89413010722E+03  0.89537641927E+03  0.00000000000E+00 0.  1.
         14    1    4    4    0    0  0.73801039228E+02 -0.64667429385E+02  0.10280910781E+04  0.10327631551E+04  0.00000000000E+00 0. -1.
         -5    1    5    5    0  502  0.17627366408E+02 -0.28110831009E+02  0.16876044722E+03  0.17205557652E+03  0.47000000000E+01 0.  1.
         11    1    6    6    0    0 -0.29172260211E+02  0.45398918773E+02  0.63396377139E+02  0.83253728000E+02  0.00000000000E+00 0. -1.
        -12    1    6    6    0    0 -0.90582183102E+02  0.39915204322E+02  0.32459604143E+03  0.33935371745E+03  0.00000000000E+00 0.  1.
</event>
<event>
12    1  0.8462562E-002  0.1996106E+03  0.7818608E-02  0.1150437E+00
         21   -1    0    0  501  502  0.00000000000E+00  0.00000000000E+00  0.98371648742E+02  0.98371648742E+02  0.00000000000E+00 0. -1.
         21   -1    0    0  502  503 -0.00000000000E+00 -0.00000000000E+00 -0.61057705468E+03  0.61057705468E+03  0.00000000000E+00 0. -1.
         -6    2    1    2    0  503 -0.91521631554E+02 -0.36435307270E+02 -0.46278346597E+03  0.50331089481E+03  0.17160879873E+03 0.  0.
        -24    2    3    3    0    0 -0.10387490073E+03  0.30725981652E+02 -0.33702680090E+03  0.36013243694E+03  0.66137936633E+02 0.  0.
          6    2    1    2  501    0  0.91521631554E+02  0.36435307270E+02 -0.49421939965E+02  0.20563780861E+03  0.17361059738E+03 0.  0.
         24    2    5    5    0    0  0.21437366990E+02 -0.12276873256E+02  0.32485430371E+02  0.87250360006E+02  0.77117052682E+02 0.  0.
          5    1    5    5  501    0  0.70084264564E+02  0.48712180526E+02 -0.81907370336E+02  0.11838744860E+03  0.47000000000E+01 0. -1.
        -13    1    6    6    0    0  0.30116532849E+02  0.22903543801E+02  0.34161626423E+02  0.50976412088E+02  0.00000000000E+00 0.  1.
         14    1    6    6    0    0 -0.86791658597E+01 -0.35180417057E+02 -0.16761960522E+01  0.36273947917E+02  0.00000000000E+00 0. -1.
         -5    1    3    3    0  503  0.12353269174E+02 -0.67161288922E+02 -0.12575666507E+03  0.14317845788E+03  0.47000000000E+01 0.  1.
         11    1    4    4    0    0 -0.41644146881E+02 -0.13645542820E+02 -0.71838058359E+02  0.84149524283E+02  0.00000000000E+00 0. -1.
        -12    1    4    4    0    0 -0.62230753846E+02  0.44371524472E+02 -0.26518874254E+03  0.27598291265E+03  0.00000000000E+00 0.  1.
</event>
<event>
12    1  0.8462562E-002  0.2608320E+03  0.7818608E-02  0.1107042E+00
         21   -1    0    0  501  502  0.00000000000E+00  0.00000000000E+00  0.37720930324E+03  0.37720930324E+03  0.00000000000E+00 0.  1.
         21   -1    0    0  502  503 -0.00000000000E+00 -0.00000000000E+00 -0.18074382147E+03  0.18074382147E+03  0.00000000000E+00 0.  1.
         -6    2    1    2    0  503  0.18053304743E+03 -0.67373343723E+02  0.12954424102E+03  0.29123025176E+03  0.17578964845E+03 0.  0.
        -24    2    3    3    0    0  0.79404871994E+02 -0.74667265782E+02  0.10816534300E+02  0.13503016371E+03  0.78967166728E+02 0.  0.
          6    2    1    2  501    0 -0.18053304743E+03  0.67373343723E+02  0.66921240748E+02  0.26672287295E+03  0.17184670445E+03 0.  0.
         24    2    5    5    0    0 -0.17119617401E+03  0.10118959698E+03  0.31715186038E+02  0.21680020798E+03  0.80305744625E+02 0.  0.
          5    1    5    5  501    0 -0.93368734199E+01 -0.33816253259E+02  0.35206054709E+02  0.49922664972E+02  0.47000000000E+01 0. -1.
        -13    1    6    6    0    0 -0.28453699601E+02  0.46448540455E+01  0.33846450843E+02  0.44460880837E+02  0.00000000000E+00 0.  1.
         14    1    6    6    0    0 -0.14274247441E+03  0.96544742937E+02 -0.21312648044E+01  0.17233932714E+03  0.00000000000E+00 0. -1.
         -5    1    3    3    0  503  0.10112817544E+03  0.72939220584E+01  0.11872770671E+03  0.15620008805E+03  0.47000000000E+01 0.  1.
         13    1    4    4    0    0  0.51457406859E+02 -0.57020136321E+02 -0.30045548368E+02  0.82473605738E+02  0.00000000000E+00 0. -1.
        -14    1    4    4    0    0  0.27947465135E+02 -0.17647129461E+02  0.40862082668E+02  0.52556557970E+02  0.00000000000E+00 0.  1.
</event>
<event>
12    1  0.8462562E-002  0.2484627E+03  0.7818608E-02  0.1114413E+00
         21   -1    0    0  501  502  0.00000000000E+00  0.00000000000E+00  0.38638327771E+03  0.38638327771E+03  0.00000000000E+00 0. -1.
         21   -1    0    0  502  503 -0.00000000000E+00 -0.00000000000E+00 -0.16442460498E+03  0.16442460498E+03  0.00000000000E+00 0. -1.
         -6    2    1    2    0  503  0.87501561561E+02  0.15602941395E+03  0.62243822105E+02  0.25614059979E+03  0.17242973113E+03 0.  0.
        -24    2    3    3    0    0  0.86592562052E+02  0.13487596859E+03 -0.11690045924E+02  0.17909125604E+03  0.79039370628E+02 0.  0.
          6    2    1    2  501    0 -0.87501561561E+02 -0.15602941395E+03  0.15971485062E+03  0.29466728291E+03  0.17122579482E+03 0.  0.
         24    2    5    5    0    0 -0.12010843551E+02 -0.11201175537E+02  0.47535056311E+02  0.96474287574E+02  0.82328487708E+02 0.  0.
          5    1    5    5  501    0 -0.75490718010E+02 -0.14482823841E+03  0.11217979431E+03  0.19819299533E+03  0.47000000000E+01 0. -1.
        -13    1    6    6    0    0  0.44681578933E+01 -0.38685138419E+02 -0.24478198298E+00  0.38943090371E+02  0.00000000000E+00 0.  1.
         14    1    6    6    0    0 -0.16479001445E+02  0.27483962881E+02  0.47779838294E+02  0.57531197203E+02  0.00000000000E+00 0. -1.
         -5    1    3    3    0  503  0.90899950882E+00  0.21153445353E+02  0.73933868029E+02  0.77049343748E+02  0.47000000000E+01 0.  1.
         13    1    4    4    0    0  0.25490442733E+02  0.81633152561E+01  0.21758505180E+02  0.34493984031E+02  0.00000000000E+00 0. -1.
        -14    1    4    4    0    0  0.61102119319E+02  0.12671265334E+03 -0.33448551104E+02  0.14459727201E+03  0.00000000000E+00 0.  1.
</event>
<event>
12    1  0.8462562E-002  0.2540658E+03  0.7818608E-02  0.1111156E+00
         21   -1    0    0  503  502  0.00000000000E+00  0.00000000000E+00  0.10989099436E+03  0.10989099436E+03  0.00000000000E+00 0.  1.
         21   -1    0    0  501  503 -0.00000000000E+00 -0.00000000000E+00 -0.12517230014E+04  0.12517230014E+04  0.00000000000E+00 0.  1.
          6    2    1    2  501    0 -0.12358007776E+03  0.13443810575E+03 -0.10677355857E+04  0.10969638424E+04  0.17298771791E+03 0.  0.
         24    2    3    3    0    0 -0.14206386822E+03  0.58059584287E+02 -0.69606804428E+03  0.71705045696E+03  0.78086987244E+02 0.  0.
         -6    2    1    2    0  502  0.12358007776E+03 -0.13443810575E+03 -0.74096421358E+02  0.26465015344E+03  0.17664592880E+03 0.  0.
        -24    2    5    5    0    0  0.30951066654E+02 -0.46807704870E+02 -0.93274326454E+02  0.13561875067E+03  0.80891382701E+02 0.  0.
          5    1    3    3  501    0  0.18483790459E+02  0.76378521460E+02 -0.37166754145E+03  0.37991338541E+03  0.47000000000E+01 0. -1.
        -13    1    4    4    0    0 -0.58577185357E+02 -0.13961223169E+02 -0.29622162357E+03  0.30228042058E+03  0.00000000000E+00 0.  1.
         14    1    4    4    0    0 -0.83486682861E+02  0.72020807456E+02 -0.39984642071E+03  0.41477003638E+03  0.00000000000E+00 0. -1.
         -5    1    5    5    0  502  0.92629011105E+02 -0.87630400877E+02  0.19177905097E+02  0.12903140277E+03  0.47000000000E+01 0.  1.
         11    1    6    6    0    0 -0.13597227995E+02 -0.51706373603E+02 -0.46775517617E+02  0.71037896426E+02  0.00000000000E+00 0. -1.
        -12    1    6    6    0    0  0.44548294648E+02  0.48986687332E+01 -0.46498808838E+02  0.64580854243E+02  0.00000000000E+00 0.  1.
</event>
<event>
12    1  0.8462562E-002  0.3022699E+03  0.7818608E-02  0.1084122E+00
         21   -1    0    0  501  502  0.00000000000E+00  0.00000000000E+00  0.31504333181E+03  0.31504333181E+03  0.00000000000E+00 0. -1.
         21   -1    0    0  502  503 -0.00000000000E+00 -0.00000000000E+00 -0.42785109530E+03  0.42785109530E+03  0.00000000000E+00 0.  1.
         -6    2    1    2    0  503  0.17793436248E+03 -0.17371337671E+03 -0.26730555521E+03  0.40350883766E+03  0.17184338109E+03 0.  0.
        -24    2    3    3    0    0  0.13989241255E+03 -0.45206498006E+02 -0.12355841648E+03  0.20692161091E+03  0.77047752892E+02 0.  0.
          6    2    1    2  501    0 -0.17793436248E+03  0.17371337671E+03  0.15449779173E+03  0.33938558944E+03  0.17168586451E+03 0.  0.
         24    2    5    5    0    0 -0.15597971124E+03  0.19805268033E+03  0.11660511480E+03  0.28906309570E+03  0.80038653119E+02 0.  0.
          5    1    5    5  501    0 -0.21954651242E+02 -0.24339303619E+02  0.37892676928E+02  0.50322493744E+02  0.47000000000E+01 0. -1.
        -11    1    6    6    0    0 -0.14627365192E+01  0.20031691487E+02 -0.89448403503E+01  0.21986778546E+02  0.00000000000E+00 0.  1.
         12    1    6    6    0    0 -0.15451697472E+03  0.17802098884E+03  0.12554995515E+03  0.26707631715E+03  0.00000000000E+00 0. -1.
         -5    1    3    3    0  503  0.38041949927E+02 -0.12850687871E+03 -0.14374713874E+03  0.19658722676E+03  0.47000000000E+01 0.  1.
         13    1    4    4    0    0  0.15092441565E+02 -0.75296670767E+01  0.10549141512E+02  0.19893769510E+02  0.00000000000E+00 0. -1.
        -14    1    4    4    0    0  0.12479997099E+03 -0.37676830929E+02 -0.13410755799E+03  0.18702784140E+03  0.00000000000E+00 0.  1.
</event>
<event>
12    1  0.8462562E-002  0.2361954E+03  0.7818608E-02  0.1123159E+00
         21   -1    0    0  503  502  0.00000000000E+00  0.00000000000E+00  0.23295611512E+04  0.23295611512E+04  0.00000000000E+00 0. -1.
         21   -1    0    0  501  503 -0.00000000000E+00 -0.00000000000E+00 -0.40954153264E+02  0.40954153264E+02  0.00000000000E+00 0. -1.
          6    2    1    2  501    0  0.60884651072E+02  0.14185349554E+03  0.36342398606E+03  0.43089732750E+03  0.17252871723E+03 0.  0.
         24    2    3    3    0    0  0.57538822716E+02  0.73248577049E+02  0.98514183502E+02  0.15718740276E+03  0.79540964774E+02 0.  0.
         -6    2    1    2    0  502 -0.60884651072E+02 -0.14185349554E+03  0.19251830119E+04  0.19396179770E+04  0.17877055800E+03 0.  0.
        -24    2    5    5    0    0  0.96134576129E+00  0.16442471470E+01  0.62507037239E+03  0.63014041136E+03  0.79751738838E+02 0.  0.
          5    1    3    3  501    0  0.33458283552E+01  0.68604918493E+02  0.26490980256E+03  0.27370992474E+03  0.47000000000E+01 0. -1.
        -11    1    4    4    0    0  0.63095079267E+02  0.61221981258E+02  0.10918224340E+03  0.14017803784E+03  0.00000000000E+00 0.  1.
         12    1    4    4    0    0 -0.55562565509E+01  0.12026595791E+02 -0.10668059901E+02  0.17009364928E+02  0.00000000000E+00 0. -1.
         -5    1    5    5    0  502 -0.61845996833E+02 -0.14349774269E+03  0.13001126395E+04  0.13094775656E+04  0.47000000000E+01 0.  1.
         11    1    6    6    0    0 -0.18663838492E+02 -0.11816282392E+02  0.51017847985E+02  0.55594821789E+02  0.00000000000E+00 0. -1.
        -12    1    6    6    0    0  0.19625184253E+02  0.13460529539E+02  0.57405252441E+03  0.57454558957E+03  0.00000000000E+00 0.  1.
</event>
<event>
12    1  0.8462562E-002  0.1949087E+03  0.7818608E-02  0.1154656E+00
         21   -1    0    0  501  502  0.00000000000E+00  0.00000000000E+00  0.21273980529E+02  0.21273980529E+02  0.00000000000E+00 0. -1.
         21   -1    0    0  502  503 -0.00000000000E+00 -0.00000000000E+00 -0.19611573731E+04  0.19611573731E+04  0.00000000000E+00 0. -1.
         -6    2    1    2    0  503  0.70566447049E+02 -0.57503385122E+02 -0.64916912296E+03  0.67708360522E+03  0.16951517779E+03 0.  0.
        -24    2    3    3    0    0  0.20745754534E+02  0.31554447398E+02 -0.28525166738E+03  0.29910026775E+03  0.81647945093E+02 0.  0.
          6    2    1    2  501    0 -0.70566447049E+02  0.57503385122E+02 -0.12907142696E+04  0.13053477484E+04  0.17234603491E+03 0.  0.
         24    2    5    5    0    0 -0.21394507313E+02 -0.32325920810E+02 -0.44809946721E+03  0.45651974517E+03  0.78194981393E+02 0.  0.
          5    1    5    5  501    0 -0.49171939736E+02  0.89829305932E+02 -0.84261480236E+03  0.84882800321E+03  0.47000000000E+01 0. -1.
        -13    1    6    6    0    0  0.48405636851E+01 -0.53316320811E+02 -0.28781426388E+03  0.29275093786E+03  0.00000000000E+00 0.  1.
         14    1    6    6    0    0 -0.26235070998E+02  0.20990400001E+02 -0.16028520332E+03  0.16376880731E+03  0.00000000000E+00 0. -1.
         -5    1    3    3    0  503  0.49820692515E+02 -0.89057832519E+02 -0.36391745558E+03  0.37798333748E+03  0.47000000000E+01 0.  1.
         13    1    4    4    0    0  0.48635110749E+02  0.87099224061E+01 -0.20892499678E+03  0.21468789212E+03  0.00000000000E+00 0. -1.
        -14    1    4    4    0    0 -0.27889356215E+02  0.22844524991E+02 -0.76326670608E+02  0.84412375623E+02  0.00000000000E+00 0.  1.
</event>
<event>
12    1  0.8462562E-002  0.1991917E+03  0.7818608E-02  0.1150826E+00
         21   -1    0    0  501  502  0.00000000000E+00  0.00000000000E+00  0.91693893927E+02  0.91693893927E+02  0.00000000000E+00 0.  1.
         21   -1    0    0  502  503 -0.00000000000E+00 -0.00000000000E+00 -0.43019839773E+03  0.43019839773E+03  0.00000000000E+00 0. -1.
         -6    2    1    2    0  503  0.10677075715E+02  0.96154235728E+02 -0.18429975276E+03  0.26998664577E+03  0.17194985615E+03 0.  0.
        -24    2    3    3    0    0  0.71004226958E+01  0.13508813075E+03 -0.14338971542E+03  0.21320318177E+03  0.81214328529E+02 0.  0.
          6    2    1    2  501    0 -0.10677075715E+02 -0.96154235728E+02 -0.15420475104E+03  0.25190564589E+03  0.17411982136E+03 0.  0.
         24    2    5    5    0    0 -0.59379002006E+02 -0.92383239997E+02 -0.15115450577E+03  0.20273764786E+03  0.78704131621E+02 0.  0.
          5    1    5    5  501    0  0.48701926292E+02 -0.37709957316E+01 -0.30502452671E+01  0.49167998022E+02  0.47000000000E+01 0. -1.
        -11    1    6    6    0    0  0.84190909998E+01 -0.26311182522E+02 -0.42185798239E+01  0.27945587035E+02  0.00000000000E+00 0.  1.
         12    1    6    6    0    0 -0.67798093006E+02 -0.66072057474E+02 -0.14693592595E+03  0.17479206083E+03  0.00000000000E+00 0. -1.
         -5    1    3    3    0  503  0.35766530190E+01 -0.38933895019E+02 -0.40910037343E+02  0.56783463998E+02  0.47000000000E+01 0.  1.
         13    1    4    4    0    0 -0.17830511458E+01  0.13473936106E+03 -0.15036017221E+03  0.20190605755E+03  0.00000000000E+00 0. -1.
        -14    1    4    4    0    0  0.88834738416E+01  0.34876968686E+00  0.69704567881E+01  0.11297124219E+02  0.00000000000E+00 0.  1.
</event>
<event>
12    1  0.8462562E-002  0.1756476E+03  0.7818608E-02  0.1173087E+00
         21   -1    0    0  501  502  0.00000000000E+00  0.00000000000E+00  0.36815538869E+03  0.36815538869E+03  0.00000000000E+00 0.  1.
         21   -1    0    0  502  503 -0.00000000000E+00 -0.00000000000E+00 -0.91412235450E+02  0.91412235450E+02  0.00000000000E+00 0.  1.
         -6    2    1    2    0  503 -0.34679568903E+02 -0.52007731630E+01  0.65741751004E+02  0.18754751379E+03  0.17211150910E+03 0.  0.
        -24    2    3    3    0    0  0.39280738710E+02 -0.33147686365E+02  0.22299555190E+02  0.97212186060E+02  0.79443019907E+02 0.  0.
          6    2    1    2  501    0  0.34679568903E+02  0.52007731630E+01  0.21100140223E+03  0.27202011034E+03  0.16805840695E+03 0.  0.
         24    2    5    5    0    0 -0.97373591776E+01  0.32149755368E+02  0.20095035426E+03  0.21889549545E+03  0.80036055099E+02 0.  0.
          5    1    5    5  501    0  0.44416928081E+02 -0.26948982206E+02  0.10051047969E+02  0.53124614891E+02  0.47000000000E+01 0. -1.
        -13    1    6    6    0    0  0.21836994310E+02  0.28182209763E+02  0.35140185174E+02  0.50059203766E+02  0.00000000000E+00 0.  1.
         14    1    6    6    0    0 -0.31574353487E+02  0.39675456051E+01  0.16581016909E+03  0.16883629168E+03  0.00000000000E+00 0. -1.
         -5    1    3    3    0  503 -0.73960307613E+02  0.27946913202E+02  0.43442195814E+02  0.90335327735E+02  0.47000000000E+01 0.  1.
         13    1    4    4    0    0  0.64758305391E+01  0.58555894670E+01  0.41756565878E+02  0.42659525350E+02  0.00000000000E+00 0. -1.
        -14    1    4    4    0    0  0.32804908171E+02 -0.39003275832E+02 -0.19457010687E+02  0.54552660711E+02  0.00000000000E+00 0.  1.
</event>
<event>
12    1  0.8462562E-002  0.1963101E+03  0.7818608E-02  0.1155437E+00
         21   -1    0    0  503  502  0.00000000000E+00  0.00000000000E+00  0.29439291079E+03  0.29439291079E+03  0.00000000000E+00 0.  1.
         21   -1    0    0  501  503 -0.00000000000E+00 -0.00000000000E+00 -0.45773219378E+03  0.45773219378E+03  0.00000000000E+00 0.  1.
          6    2    1    2  501    0  0.61328097530E+02  0.34025085605E+02 -0.40368652148E+03  0.44888803763E+03  0.18335435830E+03 0.  0.
         24    2    3    3    0    0 -0.58911325229E+01 -0.36505685891E+02 -0.26595034735E+03  0.28010901559E+03  0.79775327117E+02 0.  0.
         -6    2    1    2    0  502 -0.61328097530E+02 -0.34025085605E+02  0.24034723848E+03  0.30323706693E+03  0.17107624534E+03 0.  0.
        -24    2    5    5    0    0 -0.92457404862E+02 -0.66099472487E+02  0.16461279304E+03  0.21517120354E+03  0.79270191264E+02 0.  0.
          5    1    3    3  501    0  0.67219230053E+02  0.70530771495E+02 -0.13773617413E+03  0.16877902204E+03  0.47000000000E+01 0. -1.
        -11    1    4    4    0    0 -0.14470177181E+02 -0.29744737378E+02 -0.26708665484E+03  0.26912713840E+03  0.00000000000E+00 0.  1.
         12    1    4    4    0    0  0.85790446581E+01 -0.67609485129E+01  0.11363074886E+01  0.10981877196E+02  0.00000000000E+00 0. -1.
         -5    1    5    5    0  502  0.31129307332E+02  0.32074386882E+02  0.75734445440E+02  0.88065863392E+02  0.47000000000E+01 0.  1.
         11    1    6    6    0    0 -0.17990627616E+02 -0.45931738402E+02  0.24168316820E+02  0.54931728651E+02  0.00000000000E+00 0. -1.
        -12    1    6    6    0    0 -0.74466777246E+02 -0.20167734085E+02  0.14044447622E+03  0.16023947489E+03  0.00000000000E+00 0.  1.
</event>
<event>
12    1  0.8462562E-002  0.1780886E+03  0.7818608E-02  0.1169954E+00
         21   -1    0    0  501  502  0.00000000000E+00  0.00000000000E+00  0.61116718063E+02  0.61116718063E+02  0.00000000000E+00 0.  1.
         21   -1    0    0  502  503 -0.00000000000E+00 -0.00000000000E+00 -0.12293339413E+04  0.12293339413E+04  0.00000000000E+00 0.  1.
         -6    2    1    2    0  503 -0.27366581748E+02 -0.27968405282E+02 -0.10765771531E+04  0.10912075462E+04  0.17373652729E+03 0.  0.
        -24    2    3    3    0    0 -0.77343923916E+02 -0.49060485135E+02 -0.66537265898E+03  0.67641381853E+03  0.80161492127E+02 0.  0.
          6    2    1    2  501    0  0.27366581748E+02  0.27968405282E+02 -0.91640070181E+02  0.19924311316E+03  0.17253624022E+03 0.  0.
         24    2    5    5    0    0  0.13395257970E+02 -0.52107598128E+01  0.10055233865E+02  0.91261263994E+02  0.89559620498E+02 0.  0.
          5    1    5    5  501    0  0.13971323778E+02  0.33179165095E+02 -0.10169530405E+03  0.10798184917E+03  0.47000000000E+01 0. -1.
        -13    1    6    6    0    0  0.41277567888E+02 -0.15243863651E+02 -0.20634562188E+02  0.48600392451E+02  0.00000000000E+00 0.  1.
         14    1    6    6    0    0 -0.27882309918E+02  0.10033103838E+02  0.30689796053E+02  0.42660871543E+02  0.00000000000E+00 0. -1.
         -5    1    3    3    0  503  0.49977342168E+02  0.21092079853E+02 -0.41120449407E+03  0.41479372766E+03  0.47000000000E+01 0.  1.
         13    1    4    4    0    0 -0.17707890178E+02 -0.48835802888E+02 -0.17858869980E+03  0.18599039953E+03  0.00000000000E+00 0. -1.
        -14    1    4    4    0    0 -0.59636033738E+02 -0.22468224667E+00 -0.48678395917E+03  0.49042341901E+03  0.00000000000E+00 0.  1.
</event>
<event>
12    1  0.8462562E-002  0.3573961E+03  0.7818608E-02  0.1059643E+00
         21   -1    0    0  501  502  0.00000000000E+00  0.00000000000E+00  0.64209800481E+03  0.64209800481E+03  0.00000000000E+00 0.  1.
         21   -1    0    0  502  503 -0.00000000000E+00 -0.00000000000E+00 -0.21389900019E+03  0.21389900019E+03  0.00000000000E+00 0. -1.
         -6    2    1    2    0  503 -0.29687532170E+03  0.99709667603E+02  0.10044414866E+03  0.37124250876E+03  0.17220626836E+03 0.  0.
        -24    2    3    3    0    0 -0.26527842779E+03  0.12785748886E+03  0.56100911673E+02  0.30976831732E+03  0.78031509121E+02 0.  0.
          6    2    1    2  501    0  0.29687532170E+03 -0.99709667603E+02  0.32775485596E+03  0.48475449624E+03  0.17171692282E+03 0.  0.
         24    2    5    5    0    0  0.22649343767E+03 -0.87078330751E+02  0.32346904661E+03  0.41296578939E+03  0.83824853723E+02 0.  0.
          5    1    5    5  501    0  0.70381884029E+02 -0.12631336851E+02  0.42858093505E+01  0.71788706855E+02  0.47000000000E+01 0. -1.
        -13    1    6    6    0    0  0.19622523543E+03 -0.41545038673E+02  0.27131135041E+03  0.33740210746E+03  0.00000000000E+00 0.  1.
         14    1    6    6    0    0  0.30268202234E+02 -0.45533292079E+02  0.52157696200E+02  0.75563681931E+02  0.00000000000E+00 0. -1.
         -5    1    3    3    0  503 -0.31596893901E+02 -0.28147821260E+02  0.44343236990E+02  0.61474191436E+02  0.47000000000E+01 0.  1.
         13    1    4    4    0    0  0.10692245834E+01  0.77837317207E+01 -0.73908190416E+01  0.10786747740E+02  0.00000000000E+00 0. -1.
        -14    1    4    4    0    0 -0.26634765238E+03  0.12007375714E+03  0.63491730715E+02  0.29898156958E+03  0.00000000000E+00 0.  1.
</event>
<event>
12    1  0.8462562E-002  0.1785513E+03  0.7818608E-02  0.1169723E+00
         21   -1    0    0  501  502  0.00000000000E+00  0.00000000000E+00  0.61546207958E+02  0.61546207958E+02  0.00000000000E+00 0. -1.
         21   -1    0    0  502  503 -0.00000000000E+00 -0.00000000000E+00 -0.85914465284E+03  0.85914465284E+03  0.00000000000E+00 0. -1.
         -6    2    1    2    0  503 -0.41191554965E+02  0.10800495504E+02 -0.69280643870E+03  0.71544485475E+03  0.17339891516E+03 0.  0.
        -24    2    3    3    0    0  0.31391045507E+02 -0.18704440619E+02 -0.22781912727E+03  0.24387930794E+03  0.78995621736E+02 0.  0.
          6    2    1    2  501    0  0.41191554965E+02 -0.10800495504E+02 -0.10479200618E+03  0.20524600605E+03  0.17126343315E+03 0.  0.
         24    2    5    5    0    0  0.28442659236E+02  0.57070819643E+02 -0.74068566857E+02  0.12951576449E+03  0.84983041465E+02 0.  0.
          5    1    5    5  501    0  0.12748895729E+02 -0.67871315147E+02 -0.30723439322E+02  0.75730241555E+02  0.47000000000E+01 0. -1.
        -11    1    6    6    0    0  0.23645527846E+02  0.64337200136E+01 -0.74732475389E+02  0.78647610378E+02  0.00000000000E+00 0.  1.
         12    1    6    6    0    0  0.47971313899E+01  0.50637099630E+02  0.66390853203E+00  0.50868154115E+02  0.00000000000E+00 0. -1.
         -5    1    3    3    0  503 -0.72582600472E+02  0.29504936123E+02 -0.46498731143E+03  0.47156554681E+03  0.47000000000E+01 0.  1.
         13    1    4    4    0    0 -0.22490385166E+02 -0.94178036629E+01 -0.12571252704E+03  0.12805526895E+03  0.00000000000E+00 0. -1.
        -14    1    4    4    0    0  0.53881430673E+02 -0.92866369561E+01 -0.10210660023E+03  0.11582403899E+03  0.00000000000E+00 0.  1.
</event>
<event>
12    1  0.8462562E-002  0.1730870E+03  0.7818608E-02  0.1174773E+00
         21   -1    0    0  503  502  0.00000000000E+00  0.00000000000E+00  0.15867575575E+03  0.15867575575E+03  0.00000000000E+00 0.  1.
         21   -1    0    0  501  503 -0.00000000000E+00 -0.00000000000E+00 -0.19112892116E+03  0.19112892116E+03  0.00000000000E+00 0.  1.
          6    2    1    2  501    0  0.12488606842E+02 -0.12259341885E+02  0.48409678840E+01  0.17315468238E+03  0.17220003570E+03 0.  0.
         24    2    3    3    0    0 -0.42621414348E+02  0.14226722769E+02  0.43209238137E+02  0.10081630931E+03  0.79233233940E+02 0.  0.
         -6    2    1    2    0  502 -0.12488606842E+02  0.12259341885E+02 -0.37294133296E+02  0.17664999452E+03  0.17177925202E+03 0.  0.
        -24    2    5    5    0    0  0.29802011905E+02 -0.37625922455E+02  0.12074733712E+02  0.94574352207E+02  0.80589322785E+02 0.  0.
          5    1    3    3  501    0  0.55110021190E+02 -0.26486064654E+02 -0.38368270253E+02  0.72338373071E+02  0.47000000000E+01 0. -1.
        -13    1    4    4    0    0 -0.46054043520E+01  0.12716743708E+02  0.58328655975E+02  0.59876184144E+02  0.00000000000E+00 0.  1.
         14    1    4    4    0    0 -0.38016009996E+02  0.15099790612E+01 -0.15119417838E+02  0.40940125165E+02  0.00000000000E+00 0. -1.
         -5    1    5    5    0  502 -0.42290618747E+02  0.49885264340E+02 -0.49368867008E+02  0.82075642318E+02  0.47000000000E+01 0.  1.
         13    1    6    6    0    0  0.29579447873E+01 -0.23517356199E+02  0.44350422401E+02  0.50286931176E+02  0.00000000000E+00 0. -1.
        -14    1    6    6    0    0  0.26844067118E+02 -0.14108566256E+02 -0.32275688689E+02  0.44287421031E+02  0.00000000000E+00 0.  1.
</event>
<event>
12    1  0.8462562E-002  0.2076198E+03  0.7818608E-02  0.1143970E+00
         21   -1    0    0  503  502  0.00000000000E+00  0.00000000000E+00  0.95850800510E+03  0.95850800510E+03  0.00000000000E+00 0. -1.
         21   -1    0    0  501  503 -0.00000000000E+00 -0.00000000000E+00 -0.74166860413E+02  0.74166860413E+02  0.00000000000E+00 0. -1.
          6    2    1    2  501    0  0.45452855393E+02 -0.10757617366E+03  0.11363501312E+03  0.23449322576E+03  0.16862847185E+03 0.  0.
         24    2    3    3    0    0 -0.16922333594E+02 -0.45955937036E+02  0.87444102137E+00  0.91578025786E+02  0.77378657502E+02 0.  0.
         -6    2    1    2    0  502 -0.45452855393E+02  0.10757617366E+03  0.77070613157E+03  0.79818163976E+03  0.17166069324E+03 0.  0.
        -24    2    5    5    0    0  0.21127493668E+02  0.56204027023E+02  0.59370370425E+03  0.60216125916E+03  0.80677319942E+02 0.  0.
          5    1    3    3  501    0  0.62375188986E+02 -0.61620236628E+02  0.11276057210E+03  0.14291519997E+03  0.47000000000E+01 0. -1.
        -11    1    4    4    0    0  0.52588086294E+01 -0.37925146446E+02 -0.32831553566E+02  0.50436918133E+02  0.00000000000E+00 0.  1.
         12    1    4    4    0    0 -0.22181142223E+02 -0.80307905897E+01  0.33705994588E+02  0.41141107654E+02  0.00000000000E+00 0. -1.
         -5    1    5    5    0  502 -0.66580349061E+02  0.51372146640E+02  0.17700242732E+03  0.19602038060E+03  0.47000000000E+01 0.  1.
         13    1    6    6    0    0 -0.28598564241E+02  0.26213468939E+02  0.32151350169E+03  0.32384557369E+03  0.00000000000E+00 0. -1.
        -14    1    6    6    0    0  0.49726057909E+02  0.29990558085E+02  0.27219020256E+03  0.27831568547E+03  0.00000000000E+00 0.  1.
</event>
<event>
12    1  0.8462562E-002  0.2397366E+03  0.7818608E-02  0.1120239E+00
         21   -1    0    0  501  502  0.00000000000E+00  0.00000000000E+00  0.14956364247E+04  0.14956364247E+04  0.00000000000E+00 0.  1.
         21   -1    0    0  502  503 -0.00000000000E+00 -0.00000000000E+00 -0.55879794459E+02  0.55879794459E+02  0.00000000000E+00 0.  1.
         -6    2    1    2    0  503  0.85729228618E+02  0.14245407383E+03  0.28480450937E+03  0.37227305168E+03  0.17271639373E+03 0.  0.
        -24    2    3    3    0    0  0.96646915901E+02  0.13200161252E+03  0.14912043836E+03  0.23566885347E+03  0.80856980533E+02 0.  0.
          6    2    1    2  501    0 -0.85729228618E+02 -0.14245407383E+03  0.11549521209E+04  0.11792431675E+04  0.17046226193E+03 0.  0.
         24    2    5    5    0    0 -0.87095778874E+02 -0.12387396159E+03  0.11436498052E+04  0.11569514567E+04  0.87586318258E+02 0.  0.
          5    1    5    5  501    0  0.13665502557E+01 -0.18580112235E+02  0.11302315677E+02  0.22291710790E+02  0.47000000000E+01 0. -1.
        -13    1    6    6    0    0 -0.37882579294E+02 -0.35836199923E+02  0.70187751596E+03  0.70381202778E+03  0.00000000000E+00 0.  1.
         14    1    6    6    0    0 -0.49213199580E+02 -0.88037761668E+02  0.44177228927E+03  0.45313942894E+03  0.00000000000E+00 0. -1.
         -5    1    3    3    0  503 -0.10917687282E+02  0.10452461310E+02  0.13568407101E+03  0.13660419821E+03  0.47000000000E+01 0.  1.
         13    1    4    4    0    0  0.67972250519E+02  0.31664405827E+02  0.41250197411E+02  0.85582943531E+02  0.00000000000E+00 0. -1.
        -14    1    4    4    0    0  0.28674665382E+02  0.10033720669E+03  0.10787024095E+03  0.15008590994E+03  0.00000000000E+00 0.  1.
</event>
<event>
12    1  0.8462562E-002  0.2066212E+03  0.7818608E-02  0.1144397E+00
         21   -1    0    0  503  502  0.00000000000E+00  0.00000000000E+00  0.11813162828E+04  0.11813162828E+04  0.00000000000E+00 0. -1.
         21   -1    0    0  501  503 -0.00000000000E+00 -0.00000000000E+00 -0.16872582101E+03  0.16872582101E+03  0.00000000000E+00 0.  1.
          6    2    1    2  501    0 -0.10135466499E+03  0.55357450124E+02 -0.92165702976E+02  0.22624511923E+03  0.17133336444E+03 0.  0.
         24    2    3    3    0    0 -0.21958582761E+01  0.58536834783E+02 -0.77536167506E+02  0.12585243651E+03  0.79972468286E+02 0.  0.
         -6    2    1    2    0  502  0.10135466499E+03 -0.55357450124E+02  0.11047561648E+04  0.11237969846E+04  0.17057626906E+03 0.  0.
        -24    2    5    5    0    0  0.62215018589E+02  0.44734188660E+01  0.93456500052E+03  0.93913846950E+03  0.68400326665E+02 0.  0.
          5    1    3    3  501    0 -0.99158806717E+02 -0.31793846590E+01 -0.14629535471E+02  0.10039268272E+03  0.47000000000E+01 0. -1.
        -11    1    4    4    0    0 -0.25947874466E+02  0.56144420150E+02 -0.80803137097E+02  0.10175772731E+03  0.00000000000E+00 0.  1.
         12    1    4    4    0    0  0.23752016190E+02  0.23924146329E+01  0.32669695914E+01  0.24094709195E+02  0.00000000000E+00 0. -1.
         -5    1    5    5    0  502  0.39139646404E+02 -0.59830868990E+02  0.17019116427E+03  0.18465851511E+03  0.47000000000E+01 0.  1.
         13    1    6    6    0    0  0.76939746870E+02  0.53208296675E+01  0.73723523831E+03  0.74125827650E+03  0.00000000000E+00 0. -1.
        -14    1    6    6    0    0 -0.14724728281E+02 -0.84741080150E+00  0.19732976221E+03  0.19788019300E+03  0.00000000000E+00 0.  1.
</event>
<event>
12    1  0.8462562E-002  0.1756815E+03  0.7818608E-02  0.1172065E+00
         21   -1    0    0  501  502  0.00000000000E+00  0.00000000000E+00  0.10691625995E+03  0.10691625995E+03  0.00000000000E+00 0. -1.
         21   -1    0    0  502  503 -0.00000000000E+00 -0.00000000000E+00 -0.35253595438E+03  0.35253595438E+03  0.00000000000E+00 0. -1.
         -6    2    1    2    0  503 -0.30420159709E+02  0.21666776294E+02 -0.22068345781E+03  0.28207300730E+03  0.17166583116E+03 0.  0.
        -24    2    3    3    0    0 -0.61256561365E+02  0.68521371500E+01 -0.58309007951E+02  0.11606725690E+03  0.79198166786E+02 0.  0.
          6    2    1    2  501    0  0.30420159709E+02 -0.21666776294E+02 -0.24936236621E+02  0.17737920703E+03  0.17160050081E+03 0.  0.
         24    2    5    5    0    0  0.53458362032E+02 -0.38415080225E+02 -0.69789967003E+02  0.12403868228E+03  0.78622136506E+02 0.  0.
          5    1    5    5  501    0 -0.23038202323E+02  0.16748303932E+02  0.44853730381E+02  0.53340524744E+02  0.47000000000E+01 0. -1.
        -11    1    6    6    0    0  0.87156519384E+01  0.80648072188E+01 -0.57055510160E+02  0.58278082877E+02  0.00000000000E+00 0.  1.
         12    1    6    6    0    0  0.44742710094E+02 -0.46479887444E+02 -0.12734456842E+02  0.65760599407E+02  0.00000000000E+00 0. -1.
         -5    1    3    3    0  503  0.30836401655E+02  0.14814639144E+02 -0.16237444986E+03  0.16600575040E+03  0.47000000000E+01 0.  1.
         11    1    4    4    0    0 -0.44938021218E+02 -0.31115292671E+02 -0.49653398365E+02  0.73844750377E+02  0.00000000000E+00 0. -1.
        -12    1    4    4    0    0 -0.16318540147E+02  0.37967429821E+02 -0.86556095861E+01  0.42222506523E+02  0.00000000000E+00 0.  1.
</event>
<event>
12    1  0.8462562E-002  0.2100138E+03  0.7818608E-02  0.1142257E+00
         21   -1    0    0  501  502  0.00000000000E+00  0.00000000000E+00  0.65609375174E+03  0.65609375174E+03  0.00000000000E+00 0. -1.
         21   -1    0    0  502  503 -0.00000000000E+00 -0.00000000000E+00 -0.68983630913E+02  0.68983630913E+02  0.00000000000E+00 0. -1.
         -6    2    1    2    0  503  0.10074200232E+03 -0.53180154483E+02  0.36999331499E+03  0.42544192124E+03  0.17643326032E+03 0.  0.
        -24    2    3    3    0    0  0.94086972403E+02 -0.26820680866E+02  0.37675950891E+03  0.39703448114E+03  0.78210896710E+02 0.  0.
          6    2    1    2  501    0 -0.10074200232E+03  0.53180154483E+02  0.21711680584E+03  0.29963546141E+03  0.17223420827E+03 0.  0.
         24    2    5    5    0    0 -0.13809853124E+03  0.56042735779E+02  0.17214443311E+03  0.24091315787E+03  0.78698482974E+02 0.  0.
          5    1    5    5  501    0  0.37356528916E+02 -0.28625812968E+01  0.44972372728E+02  0.58722303541E+02  0.47000000000E+01 0. -1.
        -11    1    6    6    0    0 -0.11079535613E+03  0.21351983612E+02  0.15877903542E+03  0.19478783389E+03  0.00000000000E+00 0.  1.
         12    1    6    6    0    0 -0.27303175105E+02  0.34690752168E+02  0.13365397690E+02  0.46125323980E+02  0.00000000000E+00 0. -1.
         -5    1    3    3    0  503  0.66550299199E+01 -0.26359473617E+02 -0.67661939207E+01  0.28407440095E+02  0.47000000000E+01 0.  1.
         11    1    4    4    0    0  0.49953719915E+02 -0.49207829488E+02  0.27614691549E+03  0.28491034300E+03  0.00000000000E+00 0. -1.
        -12    1    4    4    0    0  0.44133252488E+02  0.22387148622E+02  0.10061259342E+03  0.11212413814E+03  0.00000000000E+00 0.  1.
</event>
<event>
12    1  0.8462562E-002  0.1950995E+03  0.7818608E-02  0.1154018E+00
         21   -1    0    0  503  502  0.00000000000E+00  0.00000000000E+00  0.37492242397E+03  0.37492242397E+03  0.00000000000E+00 0. -1.
         21   -1    0    0  501  503 -0.00000000000E+00 -0.00000000000E+00 -0.11948681485E+03  0.11948681485E+03  0.00000000000E+00 0. -1.
          6    2    1    2  501    0 -0.56375611700E+02  0.71434361558E+02  0.31279505199E+02  0.19723965537E+03  0.17217432039E+03 0.  0.
         24    2    3    3    0    0 -0.38735089278E+02 -0.96904178516E+01 -0.28658861745E+02  0.94735432547E+02  0.80988644166E+02 0.  0.
         -6    2    1    2    0  502  0.56375611700E+02 -0.71434361558E+02  0.22415610392E+03  0.29716958344E+03  0.17257672147E+03 0.  0.
        -24    2    5    5    0    0 -0.79299627152E+01 -0.66735400170E+02  0.20312620842E+03  0.22918698535E+03  0.82157895313E+02 0.  0.
          5    1    3    3  501    0 -0.17640522423E+02  0.81124779410E+02  0.59938366944E+02  0.10250422283E+03  0.47000000000E+01 0. -1.
        -13    1    4    4    0    0  0.84267312925E+01 -0.91913285103E+01 -0.43530986259E+02  0.45281752227E+02  0.00000000000E+00 0.  1.
         14    1    4    4    0    0 -0.47161820570E+02 -0.49908934131E+00  0.14872124514E+02  0.49453680320E+02  0.00000000000E+00 0. -1.
         -5    1    5    5    0  502  0.64305574415E+02 -0.46989613884E+01  0.21029895501E+02  0.67982598095E+02  0.47000000000E+01 0.  1.
         13    1    6    6    0    0  0.46686025499E+01 -0.79553767034E+02  0.11938524141E+03  0.14353896184E+03  0.00000000000E+00 0. -1.
        -14    1    6    6    0    0 -0.12598565265E+02  0.12818366864E+02  0.83740967005E+02  0.85648023507E+02  0.00000000000E+00 0.  1.
</event>
<event>
12    1  0.8462562E-002  0.2018972E+03  0.7818608E-02  0.1148941E+00
         21   -1    0    0  501  502  0.00000000000E+00  0.00000000000E+00  0.32463145156E+03  0.32463145156E+03  0.00000000000E+00 0.  1.
         21   -1    0    0  502  503 -0.00000000000E+00 -0.00000000000E+00 -0.13454423479E+03  0.13454423479E+03  0.00000000000E+00 0.  1.
         -6    2    1    2    0  503  0.98973750516E+02  0.81482538046E+01  0.27661274624E+02  0.20005280850E+03  0.17144615114E+03 0.  0.
        -24    2    3    3    0    0  0.66316582006E+02  0.34055164419E+02  0.78768255430E+02  0.13393418661E+03  0.78589344111E+02 0.  0.
          6    2    1    2  501    0 -0.98973750516E+02 -0.81482538046E+01  0.16242594214E+03  0.25912287785E+03  0.17578475990E+03 0.  0.
         24    2    5    5    0    0 -0.77370570628E+02 -0.66926582040E+02  0.14940470956E+03  0.19498839610E+03  0.72341791458E+02 0.  0.
          5    1    5    5  501    0 -0.21603179888E+02  0.58778328236E+02  0.13021232581E+02  0.64134481750E+02  0.47000000000E+01 0. -1.
        -11    1    6    6    0    0 -0.83020500319E+02 -0.33632659181E+02  0.92114515430E+02  0.12848596495E+03  0.00000000000E+00 0.  1.
         12    1    6    6    0    0  0.56499296906E+01 -0.33293922859E+02  0.57290194133E+02  0.66502431149E+02  0.00000000000E+00 0. -1.
         -5    1    3    3    0  503  0.32657168511E+02 -0.25906910614E+02 -0.51106980806E+02  0.66118621884E+02  0.47000000000E+01 0.  1.
         13    1    4    4    0    0 -0.12323722532E+02  0.20118307188E+02  0.28876634648E+01  0.23768866643E+02  0.00000000000E+00 0. -1.
        -14    1    4    4    0    0  0.78640304538E+02  0.13936857231E+02  0.75880591965E+02  0.11016531997E+03  0.00000000000E+00 0.  1.
</event>
<event>
12    1  0.8462562E-002  0.1966731E+03  0.7818608E-02  0.1152655E+00
         21   -1    0    0  503  502  0.00000000000E+00  0.00000000000E+00  0.37731004718E+03  0.37731004718E+03  0.00000000000E+00 0. -1.
         21   -1    0    0  501  503 -0.00000000000E+00 -0.00000000000E+00 -0.13852613370E+03  0.13852613370E+03  0.00000000000E+00 0. -1.
          6    2    1    2  501    0 -0.59091923827E+02 -0.72744742745E+02 -0.12370883777E+02  0.19706179850E+03  0.17290650828E+03 0.  0.
         24    2    3    3    0    0  0.22533771635E+02  0.72839841345E+01 -0.22721986019E+01  0.82207870718E+02  0.78690176214E+02 0.  0.
         -6    2    1    2    0  502  0.59091923827E+02  0.72744742745E+02  0.25115479726E+03  0.31877438237E+03  0.17249556983E+03 0.  0.
        -24    2    5    5    0    0  0.88889920240E+02  0.29682691483E+02  0.23204966862E+03  0.26283372820E+03  0.80324590740E+02 0.  0.
          5    1    3    3  501    0 -0.81625695461E+02 -0.80028726879E+02 -0.10098685175E+02  0.11485392779E+03  0.47000000000E+01 0. -1.
        -11    1    4    4    0    0 -0.21646129994E+02  0.26067596085E+02  0.24341329029E+01  0.33970568326E+02  0.00000000000E+00 0.  1.
         12    1    4    4    0    0  0.44179901629E+02 -0.18783611951E+02 -0.47063315048E+01  0.48237302392E+02  0.00000000000E+00 0. -1.
         -5    1    5    5    0  502 -0.29797996413E+02  0.43062051262E+02  0.19105128643E+02  0.55940654176E+02  0.47000000000E+01 0.  1.
         13    1    6    6    0    0  0.70888740214E+02  0.15492651819E+02  0.75878669862E+02  0.10498956276E+03  0.00000000000E+00 0. -1.
        -14    1    6    6    0    0  0.18001180026E+02  0.14190039664E+02  0.15617099876E+03  0.15784416543E+03  0.00000000000E+00 0.  1.
</event>
<event>
12    1  0.8462562E-002  0.1943719E+03  0.7818608E-02  0.1155155E+00
         21   -1    0    0  501  502  0.00000000000E+00  0.00000000000E+00  0.45100649031E+03  0.45100649031E+03  0.00000000000E+00 0.  1.
         21   -1    0    0  502  503 -0.00000000000E+00 -0.00000000000E+00 -0.85899214630E+03  0.85899214630E+03  0.00000000000E+00 0.  1.
         -6    2    1    2    0  503  0.31138323898E+02  0.82566514334E+02 -0.82655251319E+03  0.84850254451E+03  0.17023714774E+03 0.  0.
        -24    2    3    3    0    0  0.32422790666E+02  0.29005603942E+02 -0.19818879847E+03  0.21784140811E+03  0.79268637154E+02 0.  0.
          6    2    1    2  501    0 -0.31138323898E+02 -0.82566514334E+02  0.41856685721E+03  0.46149609210E+03  0.17318661775E+03 0.  0.
         24    2    5    5    0    0 -0.48844801504E+01 -0.11197318917E+03  0.39121526606E+03  0.41328596479E+03  0.72069765205E+02 0.  0.
          5    1    5    5  501    0 -0.26253843747E+02  0.29406674840E+02  0.27351591148E+02  0.48210127307E+02  0.47000000000E+01 0. -1.
        -11    1    6    6    0    0  0.20869195615E+02 -0.14775395456E+02  0.36300282112E+02  0.44402095872E+02  0.00000000000E+00 0.  1.
         12    1    6    6    0    0 -0.25753675765E+02 -0.97197793719E+02  0.35491498395E+03  0.36888386892E+03  0.00000000000E+00 0. -1.
         -5    1    3    3    0  503 -0.12844667679E+01  0.53560910393E+02 -0.62836371473E+03  0.63066113640E+03  0.47000000000E+01 0.  1.
         11    1    4    4    0    0  0.52090190699E+02 -0.72545757078E+00 -0.14246333021E+03  0.15168953395E+03  0.00000000000E+00 0. -1.
        -12    1    4    4    0    0 -0.19667400033E+02  0.29731061512E+02 -0.55725468259E+02  0.66151874164E+02  0.00000000000E+00 0.  1.
</event>
<event>
12    1  0.8462562E-002  0.1766685E+03  0.7818608E-02  0.1171560E+00
         21   -1    0    0  503  502  0.00000000000E+00  0.00000000000E+00  0.68258078941E+02  0.68258078941E+02  0.00000000000E+00 0. -1.
         21   -1    0    0  501  503 -0.00000000000E+00 -0.00000000000E+00 -0.49562378962E+03  0.49562378962E+03  0.00000000000E+00 0. -1.
          6    2    1    2  501    0  0.30039793599E+02  0.26770117180E+02 -0.29608184021E+03  0.34377456432E+03  0.16999254866E+03 0.  0.
         24    2    3    3    0    0  0.24035929764E+02 -0.18369630812E+02 -0.28354404915E+03  0.29630953051E+03  0.80541547115E+02 0.  0.
         -6    2    1    2    0  502 -0.30039793599E+02 -0.26770117180E+02 -0.13128387047E+03  0.22010730424E+03  0.17202541196E+03 0.  0.
        -24    2    5    5    0    0 -0.45667439349E+02 -0.19235441742E+02 -0.45222962037E+01  0.92077692992E+02  0.77474725866E+02 0.  0.
          5    1    3    3  501    0  0.60038638352E+01  0.45139747991E+02 -0.12537791063E+02  0.47465033808E+02  0.47000000000E+01 0. -1.
        -11    1    4    4    0    0  0.21347743547E+02 -0.49893036215E+02 -0.17116844975E+03  0.17956525111E+03  0.00000000000E+00 0.  1.
         12    1    4    4    0    0  0.26881862168E+01  0.31523405404E+02 -0.11237559940E+03  0.11674427940E+03  0.00000000000E+00 0. -1.
         -5    1    5    5    0  502  0.15627645750E+02 -0.75346754377E+01 -0.12676157427E+03  0.12802961125E+03  0.47000000000E+01 0.  1.
         11    1    6    6    0    0  0.22245013400E+01 -0.57917166712E+01  0.30575685158E+02  0.31198796629E+02  0.00000000000E+00 0. -1.
        -12    1    6    6    0    0 -0.47891940689E+02 -0.13443725071E+02 -0.35097981362E+02  0.60878896363E+02  0.00000000000E+00 0.  1.
</event>
<event>
12    1  0.8462562E-002  0.4492805E+03  0.7818608E-02  0.1027974E+00
         21   -1    0    0  501  502  0.00000000000E+00  0.00000000000E+00  0.47118851666E+03  0.47118851666E+03  0.00000000000E+00 0. -1.
         21   -1    0    0  502  503 -0.00000000000E+00 -0.00000000000E+00 -0.10961131163E+04  0.10961131163E+04  0.00000000000E+00 0.  1.
         -6    2    1    2    0  503 -0.11156780541E+03 -0.39910709142E+03 -0.92438428589E+03  0.10277836887E+04  0.17354871676E+03 0.  0.
        -24    2    3    3    0    0 -0.26519352694E+02 -0.30675433613E+03 -0.58743423653E+03  0.66817320986E+03  0.81086110500E+02 0.  0.
          6    2    1    2  501    0  0.11156780541E+03  0.39910709142E+03  0.29945968630E+03  0.53951794423E+03  0.17224883977E+03 0.  0.
         24    2    5    5    0    0  0.90488732946E+02  0.16373767385E+03  0.83893543078E+02  0.21962117631E+03  0.78721648136E+02 0.  0.
          5    1    5    5  501    0  0.21079072462E+02  0.23536941757E+03  0.21556614322E+03  0.31989676792E+03  0.47000000000E+01 0. -1.
        -11    1    6    6    0    0  0.32083885537E+02  0.13784563076E+02  0.39421751012E+02  0.52663690938E+02  0.00000000000E+00 0.  1.
         12    1    6    6    0    0  0.58404847409E+02  0.14995311078E+03  0.44471792066E+02  0.16695748537E+03  0.00000000000E+00 0. -1.
         -5    1    3    3    0  503 -0.85048452714E+02 -0.92352755295E+02 -0.33695004936E+03  0.35961047882E+03  0.47000000000E+01 0.  1.
         13    1    4    4    0    0  0.23107495006E+02 -0.38607081424E+02 -0.68628060967E+02  0.82062621294E+02  0.00000000000E+00 0. -1.
        -14    1    4    4    0    0 -0.49626847700E+02 -0.26814725471E+03 -0.51880617557E+03  0.58611058856E+03  0.00000000000E+00 0.  1.
</event>
<event>
12    1  0.8462562E-002  0.2561189E+03  0.7818608E-02  0.1109512E+00
         21   -1    0    0  501  502  0.00000000000E+00  0.00000000000E+00  0.15694287956E+03  0.15694287956E+03  0.00000000000E+00 0. -1.
         21   -1    0    0  502  503 -0.00000000000E+00 -0.00000000000E+00 -0.16825031834E+04  0.16825031834E+04  0.00000000000E+00 0.  1.
         -6    2    1    2    0  503  0.18990476854E+03 -0.58102311370E+01 -0.15602057545E+04  0.15810878736E+04  0.17175356697E+03 0.  0.
        -24    2    3    3    0    0  0.39698365880E+02  0.30837345666E+02 -0.41915143856E+03  0.42959664471E+03  0.79614361500E+02 0.  0.
          6    2    1    2  501    0 -0.18990476854E+03  0.58102311370E+01  0.34645450658E+02  0.25835818936E+03  0.17161313136E+03 0.  0.
         24    2    5    5    0    0 -0.87252997211E+02 -0.54152744650E+02 -0.24450143363E-01  0.13443467809E+03  0.86758727520E+02 0.  0.
          5    1    5    5  501    0 -0.10265177133E+03  0.59962975787E+02  0.34669900802E+02  0.12392351126E+03  0.47000000000E+01 0. -1.
        -13    1    6    6    0    0  0.51376332121E+01 -0.65436084028E+01 -0.26002927523E+02  0.27301397872E+02  0.00000000000E+00 0.  1.
         14    1    6    6    0    0 -0.92390630423E+02 -0.47609136247E+02  0.25978477380E+02  0.10713328022E+03  0.00000000000E+00 0. -1.
         -5    1    3    3    0  503  0.15020640266E+03 -0.36647576803E+02 -0.11410543160E+04  0.11514912289E+04  0.47000000000E+01 0.  1.
         11    1    4    4    0    0  0.64267050326E+02  0.20861533616E+02 -0.30839036528E+03  0.31570567739E+03  0.00000000000E+00 0. -1.
        -12    1    4    4    0    0 -0.24568684445E+02  0.99758120500E+01 -0.11076107328E+03  0.11389096732E+03  0.00000000000E+00 0.  1.
</event>
<event>
12    1  0.8462562E-002  0.2000942E+03  0.7818608E-02  0.1149827E+00
         21   -1    0    0  501  502  0.00000000000E+00  0.00000000000E+00  0.77272709718E+03  0.77272709718E+03  0.00000000000E+00 0.  1.
         21   -1    0    0  502  503 -0.00000000000E+00 -0.00000000000E+00 -0.51609157066E+02  0.51609157066E+02  0.00000000000E+00 0.  1.
         -6    2    1    2    0  503  0.67528840157E+02  0.75413370114E+02  0.36054557423E+03  0.41196491428E+03  0.17168185360E+03 0.  0.
        -24    2    3    3    0    0 -0.12429271173E+02  0.80931831777E+02  0.25397797139E+03  0.27853891621E+03  0.79841528752E+02 0.  0.
          6    2    1    2  501    0 -0.67528840157E+02 -0.75413370114E+02  0.36057236588E+03  0.41237133997E+03  0.17259887121E+03 0.  0.
         24    2    5    5    0    0 -0.11000450422E+03 -0.78847179814E+02  0.28634425959E+03  0.32665159399E+03  0.79939728170E+02 0.  0.
          5    1    5    5  501    0  0.42475664067E+02  0.34338097003E+01  0.74228106293E+02  0.85719745980E+02  0.47000000000E+01 0. -1.
        -13    1    6    6    0    0  0.13912060824E+01  0.10297170125E+02  0.45923326069E+02  0.47084169784E+02  0.00000000000E+00 0.  1.
         14    1    6    6    0    0 -0.11139571031E+03 -0.89144349939E+02  0.24042093352E+03  0.27956742420E+03  0.00000000000E+00 0. -1.
         -5    1    3    3    0  503  0.79958111330E+02 -0.55184616636E+01  0.10656760284E+03  0.13342599807E+03  0.47000000000E+01 0.  1.
         11    1    4    4    0    0 -0.30402348729E+02  0.37383381020E+00  0.50341056043E+02  0.58810411353E+02  0.00000000000E+00 0. -1.
        -12    1    4    4    0    0  0.17973077556E+02  0.80557997967E+02  0.20363691534E+03  0.21972850485E+03  0.00000000000E+00 0.  1.
</event>
<event>
12    1  0.8462562E-002  0.2111491E+03  0.7818608E-02  0.1140810E+00
         21   -1    0    0  501  502  0.00000000000E+00  0.00000000000E+00  0.13756862791E+04  0.13756862791E+04  0.00000000000E+00 0.  1.
         21   -1    0    0  502  503 -0.00000000000E+00 -0.00000000000E+00 -0.33457164867E+02  0.33457164867E+02  0.00000000000E+00 0.  1.
         -6    2    1    2    0  503 -0.94001250427E+02  0.76628697655E+02  0.80148612859E+03  0.82863768619E+03  0.17190755732E+03 0.  0.
        -24    2    3    3    0    0 -0.79701794656E+02 -0.51247618685E+01  0.60560628246E+03  0.61584880796E+03  0.78308017786E+02 0.  0.
          6    2    1    2  501    0  0.94001250427E+02 -0.76628697655E+02  0.54074298567E+03  0.58050575780E+03  0.17284607577E+03 0.  0.
         24    2    5    5    0    0  0.79452558477E+02  0.10427235468E+02  0.21278514247E+03  0.24084587374E+03  0.79421544633E+02 0.  0.
          5    1    5    5  501    0  0.14548691951E+02 -0.87055933123E+02  0.32795784320E+03  0.33965988407E+03  0.47000000000E+01 0. -1.
        -13    1    6    6    0    0  0.63826370006E+02 -0.10208194675E+02  0.68208002424E+02  0.93969911894E+02  0.00000000000E+00 0.  1.
         14    1    6    6    0    0  0.15626188470E+02  0.20635430143E+02  0.14457714005E+03  0.14687596184E+03  0.00000000000E+00 0. -1.
         -5    1    3    3    0  503 -0.14299455771E+02  0.81753459524E+02  0.19587984613E+03  0.21278887823E+03  0.47000000000E+01 0.  1.
         11    1    4    4    0    0 -0.43746052347E+02 -0.17012596584E+02  0.52152277977E+03  0.52363074332E+03  0.00000000000E+00 0. -1.
        -12    1    4    4    0    0 -0.35955742309E+02  0.11887834716E+02  0.84083502695E+02  0.92218064633E+02  0.00000000000E+00 0.  1.
</event>
<event>
12    1  0.8462562E-002  0.2216977E+03  0.7818608E-02  0.1133340E+00
         21   -1    0    0  503  502  0.00000000000E+00  0.00000000000E+00  0.87066167007E+02  0.87066167007E+02  0.00000000000E+00 0.  1.
         21   -1    0    0  501  503 -0.00000000000E+00 -0.00000000000E+00 -0.59455679890E+03  0.59455679890E+03  0.00000000000E+00 0. -1.
          6    2    1    2  501    0 -0.86279257503E+02 -0.10380244619E+03 -0.34399023297E+03  0.40924218488E+03  0.17587162191E+03 0.  0.
         24    2    3    3    0    0 -0.50681146345E+02 -0.62492720960E+01 -0.25156875245E+03  0.27014629222E+03  0.84169768876E+02 0.  0.
         -6    2    1    2    0  502  0.86279257503E+02  0.10380244619E+03 -0.16350039893E+03  0.27238078103E+03  0.17099664125E+03 0.  0.
        -24    2    5    5    0    0  0.20409649890E+01  0.17863168964E+01 -0.30161781408E+02  0.84485444521E+02  0.78871419489E+02 0.  0.
          5    1    3    3  501    0 -0.35598111158E+02 -0.97553174091E+02 -0.92421480518E+02  0.13909589266E+03  0.47000000000E+01 0. -1.
        -11    1    4    4    0    0  0.17381006508E+02 -0.21075008363E+02 -0.51481264368E+02  0.58280150528E+02  0.00000000000E+00 0.  1.
         12    1    4    4    0    0 -0.68062152853E+02  0.14825736267E+02 -0.20008748808E+03  0.21186614169E+03  0.00000000000E+00 0. -1.
         -5    1    5    5    0  502  0.84238292514E+02  0.10201612929E+03 -0.13333861752E+03  0.18789533651E+03  0.47000000000E+01 0.  1.
         13    1    6    6    0    0 -0.29732968594E+02  0.10788177513E+02 -0.39081860239E+02  0.50277489946E+02  0.00000000000E+00 0. -1.
        -14    1    6    6    0    0  0.31773933583E+02 -0.90018606169E+01  0.89200788314E+01  0.34207954576E+02  0.00000000000E+00 0.  1.
</event>
<event>
12    1  0.8462562E-002  0.1869075E+03  0.7818608E-02  0.1162114E+00
         21   -1    0    0  503  502  0.00000000000E+00  0.00000000000E+00  0.52829277719E+03  0.52829277719E+03  0.00000000000E+00 0. -1.
         21   -1    0    0  501  503 -0.00000000000E+00 -0.00000000000E+00 -0.66078460786E+02  0.66078460786E+02  0.00000000000E+00 0.  1.
          6    2    1    2  501    0 -0.55060540338E+02 -0.57003773309E+02  0.19305352319E+03  0.26870813125E+03  0.16927286761E+03 0.  0.
         24    2    3    3    0    0  0.10640187843E+02 -0.59587022107E+02  0.52364491114E+02  0.11334162068E+03  0.80252453227E+02 0.  0.
         -6    2    1    2    0  502  0.55060540338E+02  0.57003773309E+02  0.26916079321E+03  0.32566310672E+03  0.16531132207E+03 0.  0.
        -24    2    5    5    0    0  0.21868339397E+02  0.99458680080E+02  0.19697590235E+03  0.23545839631E+03  0.79188995291E+02 0.  0.
          5    1    3    3  501    0 -0.65700728181E+02  0.25832487980E+01  0.14068903208E+03  0.15536651057E+03  0.47000000000E+01 0. -1.
        -13    1    4    4    0    0 -0.23627802733E+02 -0.62426071664E+01 -0.80836775887E+01  0.25740805146E+02  0.00000000000E+00 0.  1.
         14    1    4    4    0    0  0.34267990576E+02 -0.53344414940E+02  0.60448168702E+02  0.87600815538E+02  0.00000000000E+00 0. -1.
         -5    1    5    5    0  502  0.33192200941E+02 -0.42454906771E+02  0.72184890855E+02  0.90204710409E+02  0.47000000000E+01 0.  1.
         11    1    6    6    0    0  0.15758832287E+02  0.49329439489E+02  0.17099968545E+03  0.17866904270E+03  0.00000000000E+00 0. -1.
        -12    1    6    6    0    0  0.61095071103E+01  0.50129240591E+02  0.25976216906E+02  0.56789353616E+02  0.00000000000E+00 0.  1.
</event>
<event>
12    1  0.8462562E-002  0.2282390E+03  0.7818608E-02  0.1128043E+00
         21   -1    0    0  501  502  0.00000000000E+00  0.00000000000E+00  0.16850694181E+03  0.16850694181E+03  0.00000000000E+00 0. -1.
         21   -1    0    0  502  503 -0.00000000000E+00 -0.00000000000E+00 -0.33584785983E+03  0.33584785983E+03  0.00000000000E+00 0. -1.
         -6    2    1    2    0  503 -0.14863419357E+03  0.18453487109E+02 -0.15620717078E+03  0.27584439309E+03  0.17104617596E+03 0.  0.
        -24    2    3    3    0    0 -0.90396776298E+02  0.72131676454E+02 -0.12825765531E+03  0.19172418032E+03  0.83268116695E+02 0.  0.
          6    2    1    2  501    0  0.14863419357E+03 -0.18453487109E+02 -0.11133747242E+02  0.22851040855E+03  0.17222192602E+03 0.  0.
         24    2    5    5    0    0  0.35911125637E+01 -0.11833583701E+02 -0.20554783227E+02  0.82935120848E+02  0.79390209496E+02 0.  0.
          5    1    5    5  501    0  0.14504308101E+03 -0.66199034073E+01  0.94210359847E+01  0.14557528770E+03  0.47000000000E+01 0. -1.
        -11    1    6    6    0    0  0.20765247274E+02  0.10248691015E+02 -0.41814869113E+02  0.47798686601E+02  0.00000000000E+00 0.  1.
         12    1    6    6    0    0 -0.17174134711E+02 -0.22082274716E+02  0.21260085886E+02  0.35136434247E+02  0.00000000000E+00 0. -1.
         -5    1    3    3    0  503 -0.58237417274E+02 -0.53678189345E+02 -0.27949515469E+02  0.84120212774E+02  0.47000000000E+01 0.  1.
         13    1    4    4    0    0 -0.65934724361E+02  0.44180760800E+00 -0.69995426297E+02  0.96161025229E+02  0.00000000000E+00 0. -1.
        -14    1    4    4    0    0 -0.24462051937E+02  0.71689868846E+02 -0.58262229017E+02  0.95563155087E+02  0.00000000000E+00 0.  1.
</event>
<event>
12    1  0.8462562E-002  0.2056829E+03  0.7818608E-02  0.1145519E+00
         21   -1    0    0  501  502  0.00000000000E+00  0.00000000000E+00  0.32917491135E+03  0.32917491135E+03  0.00000000000E+00 0. -1.
         21   -1    0    0  502  503 -0.00000000000E+00 -0.00000000000E+00 -0.15982255437E+03  0.15982255437E+03  0.00000000000E+00 0.  1.
         -6    2    1    2    0  503 -0.75355632199E+02 -0.76539462675E+02 -0.26456418509E+02  0.20501416080E+03  0.17260968513E+03 0.  0.
        -24    2    3    3    0    0  0.72264722579E+01 -0.93344642989E-01  0.24248181746E+02  0.81495500571E+02  0.77468133325E+02 0.  0.
          6    2    1    2  501    0  0.75355632199E+02  0.76539462675E+02  0.19580877548E+03  0.28398330492E+03  0.17541003467E+03 0.  0.
         24    2    5    5    0    0  0.60967074626E+02  0.10722351480E+03  0.93054926326E+02  0.17568286558E+03  0.83614494136E+02 0.  0.
          5    1    5    5  501    0  0.14388557572E+02 -0.30684052126E+02  0.10275384916E+03  0.10830043934E+03  0.47000000000E+01 0. -1.
        -11    1    6    6    0    0  0.46770398622E+00  0.64495242140E+02  0.75998466330E+02  0.99677589710E+02  0.00000000000E+00 0.  1.
         12    1    6    6    0    0  0.60499370640E+02  0.42728272660E+02  0.17056459996E+02  0.76005275869E+02  0.00000000000E+00 0. -1.
         -5    1    3    3    0  503 -0.82582104456E+02 -0.76446118032E+02 -0.50704600255E+02  0.12351866023E+03  0.47000000000E+01 0.  1.
         11    1    4    4    0    0 -0.21009362256E+02  0.18630068032E+02  0.35981679284E+02  0.45641581715E+02  0.00000000000E+00 0. -1.
        -12    1    4    4    0    0  0.28235834514E+02 -0.18723412675E+02 -0.11733497538E+02  0.35853918857E+02  0.00000000000E+00 0.  1.
</event>
<event>
12    1  0.8462562E-002  0.2089321E+03  0.7818608E-02  0.1142587E+00
         21   -1    0    0  503  502  0.00000000000E+00  0.00000000000E+00  0.30565735787E+03  0.30565735787E+03  0.00000000000E+00 0. -1.
         21   -1    0    0  501  503 -0.00000000000E+00 -0.00000000000E+00 -0.17679823472E+03  0.17679823472E+03  0.00000000000E+00 0. -1.
          6    2    1    2  501    0  0.90551353007E+02  0.74227511221E+02  0.17120713075E+03  0.27011942785E+03  0.17304147689E+03 0.  0.
         24    2    3    3    0    0  0.13252113875E+03  0.51388540305E+02  0.11631473882E+03  0.19719243559E+03  0.71785123070E+02 0.  0.
         -6    2    1    2    0  502 -0.90551353007E+02 -0.74227511221E+02 -0.42348007600E+02  0.21233616474E+03  0.17200006441E+03 0.  0.
        -24    2    5    5    0    0 -0.13023517195E+03 -0.61567742088E+02 -0.42670257868E+02  0.17041637125E+03  0.80431348401E+02 0.  0.
          5    1    3    3  501    0 -0.41969785747E+02  0.22838970916E+02  0.54892391930E+02  0.72926992259E+02  0.47000000000E+01 0. -1.
        -13    1    4    4    0    0  0.35300136235E+02  0.94701782053E+00  0.69745770755E+02  0.78175885023E+02  0.00000000000E+00 0.  1.
         14    1    4    4    0    0  0.97221002518E+02  0.50441522484E+02  0.46568968067E+02  0.11901655056E+03  0.00000000000E+00 0. -1.
         -5    1    5    5    0  502  0.39683818946E+02 -0.12659769134E+02  0.32225026862E+00  0.41919793486E+02  0.47000000000E+01 0.  1.
         11    1    6    6    0    0 -0.71834274501E+02 -0.76003929430E+02 -0.31588028626E+02  0.10924542935E+03  0.00000000000E+00 0. -1.
        -12    1    6    6    0    0 -0.58400897452E+02  0.14436187343E+02 -0.11082229242E+02  0.61170941902E+02  0.00000000000E+00 0.  1.
</event>
<event>
12    1  0.8462562E-002  0.2284660E+03  0.7818608E-02  0.1128160E+00
         21   -1    0    0  501  502  0.00000000000E+00  0.00000000000E+00  0.12989891652E+04  0.12989891652E+04  0.00000000000E+00 0. -1.
         21   -1    0    0  502  503 -0.00000000000E+00 -0.00000000000E+00 -0.91026672486E+02  0.91026672486E+02  0.00000000000E+00 0.  1.
         -6    2    1    2    0  503 -0.10945260288E+03 -0.10127674893E+03  0.83789365287E+02  0.24334616016E+03  0.17308912091E+03 0.  0.
        -24    2    3    3    0    0 -0.47652761010E+02 -0.12874243985E+03  0.72775288658E+02  0.17466585354E+03  0.79790452473E+02 0.  0.
          6    2    1    2  501    0  0.10945260288E+03  0.10127674893E+03  0.11241731274E+04  0.11466696775E+04  0.16985074854E+03 0.  0.
         24    2    5    5    0    0  0.40800113025E+01  0.86743838569E+02  0.64562987182E+03  0.65642450822E+03  0.80709749025E+02 0.  0.
          5    1    5    5  501    0  0.10537259158E+03  0.14532910364E+02  0.47854325557E+03  0.49024516926E+03  0.47000000000E+01 0. -1.
        -13    1    6    6    0    0 -0.14576957658E+02 -0.10463666486E+02  0.14476666284E+03  0.14587447577E+03  0.00000000000E+00 0.  1.
         14    1    6    6    0    0  0.18656968961E+02  0.97207505054E+02  0.50086320898E+03  0.51055003245E+03  0.00000000000E+00 0. -1.
         -5    1    3    3    0  503 -0.61799841869E+02  0.27465690914E+02  0.11014076629E+02  0.68680306612E+02  0.47000000000E+01 0.  1.
         13    1    4    4    0    0 -0.67344146985E+02 -0.73346343920E+02  0.39595196064E+02  0.10715736023E+03  0.00000000000E+00 0. -1.
        -14    1    4    4    0    0  0.19691385974E+02 -0.55396095927E+02  0.33180092593E+02  0.67508493317E+02  0.00000000000E+00 0.  1.
</event>
<event>
12    1  0.8462562E-002  0.1792605E+03  0.7818608E-02  0.1172610E+00
         21   -1    0    0  503  502  0.00000000000E+00  0.00000000000E+00  0.39529593753E+03  0.39529593753E+03  0.00000000000E+00 0.  1.
         21   -1    0    0  501  503 -0.00000000000E+00 -0.00000000000E+00 -0.23177785720E+03  0.23177785720E+03  0.00000000000E+00 0.  1.
          6    2    1    2  501    0  0.36978522240E+02  0.29720768529E+02 -0.17789517067E+03  0.24146086835E+03  0.15622395466E+03 0.  0.
         24    2    3    3    0    0 -0.98300696427E-01 -0.37351654258E+02 -0.98488898719E+02  0.13100342532E+03  0.77888885825E+02 0.  0.
         -6    2    1    2    0  502 -0.36978522240E+02 -0.29720768529E+02  0.34141325100E+03  0.38561292638E+03  0.17286869538E+03 0.  0.
        -24    2    5    5    0    0  0.11884792846E+02  0.23839899651E+02  0.90314641431E+02  0.12421481915E+03  0.81012330680E+02 0.  0.
          5    1    3    3  501    0  0.37076822936E+02  0.67072422786E+02 -0.79406271946E+02  0.11045744304E+03  0.47000000000E+01 0. -1.
        -11    1    4    4    0    0  0.22556067028E+02 -0.12897161965E+02 -0.93809447278E+02  0.97341282841E+02  0.00000000000E+00 0.  1.
         12    1    4    4    0    0 -0.22654367724E+02 -0.24454492293E+02 -0.46794514410E+01  0.33662142476E+02  0.00000000000E+00 0. -1.
         -5    1    5    5    0  502 -0.48863315085E+02 -0.53560668180E+02  0.25109860957E+03  0.26139810723E+03  0.47000000000E+01 0.  1.
         13    1    6    6    0    0  0.33804192510E+02  0.98768946979E+01  0.56710327503E+01  0.35671236208E+02  0.00000000000E+00 0. -1.
        -14    1    6    6    0    0 -0.21919399664E+02  0.13963004953E+02  0.84643608681E+02  0.88543582938E+02  0.00000000000E+00 0.  1.
</event>
<event>
12    1  0.8462562E-002  0.1716618E+03  0.7818608E-02  0.1176566E+00
         21   -1    0    0  503  502  0.00000000000E+00  0.00000000000E+00  0.26983256120E+04  0.26983256120E+04  0.00000000000E+00 0.  1.
         21   -1    0    0  501  503 -0.00000000000E+00 -0.00000000000E+00 -0.28516287157E+02  0.28516287157E+02  0.00000000000E+00 0.  1.
          6    2    1    2  501    0  0.11399104677E+02  0.21556506719E+01  0.25811895126E+03  0.30904988543E+03  0.16956371153E+03 0.  0.
         24    2    3    3    0    0  0.21814751124E+02 -0.58448889500E+02  0.19991926229E+03  0.22425195046E+03  0.80181480388E+02 0.  0.
         -6    2    1    2    0  502 -0.11399104677E+02 -0.21556506719E+01  0.24116903736E+04  0.24177920138E+04  0.17126931184E+03 0.  0.
        -24    2    5    5    0    0  0.55884463531E+02 -0.23016829126E+02  0.15365105657E+04  0.15397692045E+04  0.79822534802E+02 0.  0.
          5    1    3    3  501    0 -0.10415646447E+02  0.60604540172E+02  0.58199688965E+02  0.84797934975E+02  0.47000000000E+01 0. -1.
        -11    1    4    4    0    0 -0.30051490366E+02 -0.29745859142E+02  0.80511642568E+02  0.90939720685E+02  0.00000000000E+00 0.  1.
         12    1    4    4    0    0  0.51866241491E+02 -0.28703030359E+02  0.11940761973E+03  0.13331222977E+03  0.00000000000E+00 0. -1.
         -5    1    5    5    0  502 -0.67283568208E+02  0.20861178454E+02  0.87517980794E+03  0.87802280924E+03  0.47000000000E+01 0.  1.
         13    1    6    6    0    0 -0.11064375135E+02 -0.17522795033E+02  0.78193180081E+03  0.78220637293E+03  0.00000000000E+00 0. -1.
        -14    1    6    6    0    0  0.66948838666E+02 -0.54940340922E+01  0.75457876487E+03  0.75756283158E+03  0.00000000000E+00 0.  1.
</event>
<event>
12    1  0.8462562E-002  0.2052779E+03  0.7818608E-02  0.1145368E+00
         21   -1    0    0  501  502  0.00000000000E+00  0.00000000000E+00  0.27071809763E+03  0.27071809763E+03  0.00000000000E+00 0. -1.
         21   -1    0    0  502  503 -0.00000000000E+00 -0.00000000000E+00 -0.24337368848E+03  0.24337368848E+03  0.00000000000E+00 0.  1.
         -6    2    1    2    0  503  0.26219547359E+02 -0.10891201049E+03 -0.14066869994E+03  0.24882316958E+03  0.17197673065E+03 0.  0.
        -24    2    3    3    0    0 -0.12145525770E+02 -0.54386498351E+01 -0.16186151359E+02  0.82400184083E+02  0.79691317800E+02 0.  0.
          6    2    1    2  501    0 -0.26219547359E+02  0.10891201049E+03  0.16801310908E+03  0.26526861653E+03  0.17201669512E+03 0.  0.
         24    2    5    5    0    0  0.38198598783E+02  0.23785912100E+02  0.48697425327E+02  0.10509848021E+03  0.81543538955E+02 0.  0.
          5    1    5    5  501    0 -0.64418146142E+02  0.85126098388E+02  0.11931568376E+03  0.16017013632E+03  0.47000000000E+01 0. -1.
        -11    1    6    6    0    0 -0.10026317144E+02 -0.17716158305E+02 -0.59701819308E+01  0.21213966457E+02  0.00000000000E+00 0.  1.
         12    1    6    6    0    0  0.48224915927E+02  0.41502070404E+02  0.54667607258E+02  0.83884513752E+02  0.00000000000E+00 0. -1.
         -5    1    3    3    0  503  0.38365073129E+02 -0.10347336065E+03 -0.12448254858E+03  0.16642298549E+03  0.47000000000E+01 0.  1.
         11    1    4    4    0    0 -0.38758374399E+02 -0.25419429829E+02 -0.25021967913E+01  0.46417884352E+02  0.00000000000E+00 0. -1.
        -12    1    4    4    0    0  0.26612848629E+02  0.19980779993E+02 -0.13683954568E+02  0.35982299731E+02  0.00000000000E+00 0.  1.
</event>
<event>
12    1  0.8462562E-002  0.2098929E+03  0.7818608E-02  0.1141741E+00
         21   -1    0    0  503  502  0.00000000000E+00  0.00000000000E+00  0.22633815373E+03  0.22633815373E+03  0.00000000000E+00 0. -1.
         21   -1    0    0  501  503 -0.00000000000E+00 -0.00000000000E+00 -0.22307940385E+03  0.22307940385E+03  0.00000000000E+00 0. -1.
          6    2    1    2  501    0 -0.96896410362E+02  0.68887785293E+02  0.82447474873E+02  0.22508320064E+03  0.17242511359E+03 0.  0.
         24    2    3    3    0    0 -0.12139652984E+03  0.26471295979E+02  0.29959089611E+02  0.15313505955E+03  0.84350177505E+02 0.  0.
         -6    2    1    2    0  502  0.96896410362E+02 -0.68887785293E+02 -0.79188724994E+02  0.22433435693E+03  0.17297574463E+03 0.  0.
        -24    2    5    5    0    0  0.83748481517E+02  0.20661872127E+02 -0.36385159962E+02  0.12410340185E+03  0.81468112587E+02 0.  0.
          5    1    3    3  501    0  0.24500119474E+02  0.42416489313E+02  0.52488385262E+02  0.71948141097E+02  0.47000000000E+01 0. -1.
        -13    1    4    4    0    0  0.39805990372E+01  0.13730256743E+02 -0.13664155590E+02  0.19775597764E+02  0.00000000000E+00 0.  1.
         14    1    4    4    0    0 -0.12537712887E+03  0.12741039237E+02  0.43623245201E+02  0.13335946178E+03  0.00000000000E+00 0. -1.
         -5    1    5    5    0  502  0.13147928845E+02 -0.89549657420E+02 -0.42803565032E+02  0.10023095508E+03  0.47000000000E+01 0.  1.
         11    1    6    6    0    0  0.20579038589E+02 -0.19684636406E+02 -0.39953331140E+02  0.49063738228E+02  0.00000000000E+00 0. -1.
        -12    1    6    6    0    0  0.63169442928E+02  0.40346508533E+02  0.35681711784E+01  0.75039663620E+02  0.00000000000E+00 0.  1.
</event>
<event>
12    1  0.8462562E-002  0.2123894E+03  0.7818608E-02  0.1140548E+00
         21   -1    0    0  501  502  0.00000000000E+00  0.00000000000E+00  0.97803591693E+02  0.97803591693E+02  0.00000000000E+00 0.  1.
         21   -1    0    0  502  503 -0.00000000000E+00 -0.00000000000E+00 -0.91117009883E+03  0.91117009883E+03  0.00000000000E+00 0.  1.
         -6    2    1    2    0  503 -0.79746809276E+02  0.84830048537E+02 -0.76278556306E+03  0.79064438741E+03  0.17239791588E+03 0.  0.
        -24    2    3    3    0    0 -0.53574915707E+02  0.12734502352E+03 -0.58568533797E+03  0.60658170559E+03  0.76334945036E+02 0.  0.
          6    2    1    2  501    0  0.79746809276E+02 -0.84830048537E+02 -0.50580944077E+02  0.21832930312E+03  0.17763322316E+03 0.  0.
         24    2    5    5    0    0  0.29156104814E+02 -0.59195203847E+02  0.38888513035E+02  0.11229422215E+03  0.82118970254E+02 0.  0.
          5    1    5    5  501    0  0.50590704462E+02 -0.25634844690E+02 -0.89469457112E+02  0.10603508097E+03  0.47000000000E+01 0. -1.
        -11    1    6    6    0    0  0.16991414443E+02  0.18128206886E+02 -0.10133676606E+00  0.24846535349E+02  0.00000000000E+00 0.  1.
         12    1    6    6    0    0  0.12164690371E+02 -0.77323410733E+02  0.38989849801E+02  0.87447686800E+02  0.00000000000E+00 0. -1.
         -5    1    3    3    0  503 -0.26171893569E+02 -0.42514974981E+02 -0.17710022509E+03  0.18406268182E+03  0.47000000000E+01 0.  1.
         13    1    4    4    0    0 -0.21837697987E+02  0.12264980794E+03 -0.49316694977E+03  0.50865853063E+03  0.00000000000E+00 0. -1.
        -14    1    4    4    0    0 -0.31737217720E+02  0.46952155741E+01 -0.92518388204E+02  0.97923174957E+02  0.00000000000E+00 0.  1.
</event>
<event>
12    1  0.8462562E-002  0.2517443E+03  0.7818608E-02  0.1112363E+00
         21   -1    0    0  501  502  0.00000000000E+00  0.00000000000E+00  0.22404086021E+03  0.22404086021E+03  0.00000000000E+00 0.  1.
         21   -1    0    0  502  503 -0.00000000000E+00 -0.00000000000E+00 -0.52711144346E+03  0.52711144346E+03  0.00000000000E+00 0.  1.
         -6    2    1    2    0  503 -0.14387531194E+03 -0.11450739180E+03 -0.40793063881E+03  0.47935644703E+03  0.17193937613E+03 0.  0.
        -24    2    3    3    0    0 -0.17906051292E+02 -0.76193741054E+02 -0.25465269503E+03  0.27723665950E+03  0.76720645432E+02 0.  0.
          6    2    1    2  501    0  0.14387531194E+03  0.11450739180E+03  0.10486005555E+03  0.27179585664E+03  0.17048550752E+03 0.  0.
         24    2    5    5    0    0  0.60913700709E+02  0.13049534740E+03  0.69080673084E+02  0.17992367439E+03  0.82830396518E+02 0.  0.
          5    1    5    5  501    0  0.82961611228E+02 -0.15987955594E+02  0.35779382470E+02  0.91872182251E+02  0.47000000000E+01 0. -1.
        -13    1    6    6    0    0  0.71318943684E+02  0.69325993266E+02  0.62639282327E+02  0.11754218290E+03  0.00000000000E+00 0.  1.
         14    1    6    6    0    0 -0.10405242974E+02  0.61169354130E+02  0.64413907573E+01  0.62381491493E+02  0.00000000000E+00 0. -1.
         -5    1    3    3    0  503 -0.12596926065E+03 -0.38313650747E+02 -0.15327794377E+03  0.20211978752E+03  0.47000000000E+01 0.  1.
         11    1    4    4    0    0  0.51784294385E+01 -0.61212582843E+02 -0.82290586644E+02  0.10269146547E+03  0.00000000000E+00 0. -1.
        -12    1    4    4    0    0 -0.23084480730E+02 -0.14981158211E+02 -0.17236210839E+03  0.17454519404E+03  0.00000000000E+00 0.  1.
</event>
<event>
12    1  0.8462562E-002  0.2081346E+03  0.7818608E-02  0.1146155E+00
         21   -1    0    0  501  502  0.00000000000E+00  0.00000000000E+00  0.16345155344E+03  0.16345155344E+03  0.00000000000E+00 0. -1.
         21   -1    0    0  502  503 -0.00000000000E+00 -0.00000000000E+00 -0.10537934018E+04  0.10537934018E+04  0.00000000000E+00 0. -1.
         -6    2    1    2    0  503 -0.37853782176E+01 -0.89967331976E+02 -0.98168022601E+03  0.10035019111E+04  0.18764746055E+03 0.  0.
        -24    2    3    3    0    0 -0.35835069505E+02 -0.98130040513E+02 -0.40812899729E+03  0.42897870483E+03  0.80868991071E+02 0.  0.
          6    2    1    2  501    0  0.37853782176E+01  0.89967331976E+02  0.91338377668E+02  0.21374304415E+03  0.17098227913E+03 0.  0.
         24    2    5    5    0    0 -0.57257591633E+02  0.90097975897E+01  0.60413210829E+02  0.10763544553E+03  0.67646321696E+02 0.  0.
          5    1    5    5  501    0  0.61042969851E+02  0.80957534387E+02  0.30925166839E+02  0.10610759863E+03  0.47000000000E+01 0. -1.
        -13    1    6    6    0    0 -0.34830964367E+02  0.38530686348E+02  0.33165992945E+02  0.61626235949E+02  0.00000000000E+00 0.  1.
         14    1    6    6    0    0 -0.22426627266E+02 -0.29520888758E+02  0.27247217884E+02  0.46009209578E+02  0.00000000000E+00 0. -1.
         -5    1    3    3    0  503  0.32049691287E+02  0.81627085366E+01 -0.57355122872E+03  0.57452320622E+03  0.47000000000E+01 0.  1.
         13    1    4    4    0    0 -0.24246803294E+02 -0.25949531356E+02 -0.27337276568E+03  0.27567001045E+03  0.00000000000E+00 0. -1.
        -14    1    4    4    0    0 -0.11588266211E+02 -0.72180509156E+02 -0.13475623161E+03  0.15330869438E+03  0.00000000000E+00 0.  1.
</event>
<event>
12    1  0.8462562E-002  0.3116465E+03  0.7818608E-02  0.1079967E+00
         21   -1    0    0  503  502  0.00000000000E+00  0.00000000000E+00  0.80226957608E+02  0.80226957608E+02  0.00000000000E+00 0. -1.
         21   -1    0    0  501  503 -0.00000000000E+00 -0.00000000000E+00 -0.13224418771E+04  0.13224418771E+04  0.00000000000E+00 0.  1.
          6    2    1    2  501    0  0.25116276213E+03 -0.45009032616E+02 -0.83364956218E+03  0.88881167370E+03  0.17293366560E+03 0.  0.
         24    2    3    3    0    0  0.26575148096E+03 -0.51294843990E+02 -0.81962980592E+03  0.86710946858E+03  0.82648660613E+02 0.  0.
         -6    2    1    2    0  502 -0.25116276213E+03  0.45009032616E+02 -0.40856535729E+03  0.51385716098E+03  0.17892731657E+03 0.  0.
        -24    2    5    5    0    0 -0.13060923442E+03  0.90568679868E+02 -0.18992208825E+03  0.26001507700E+03  0.79221100562E+02 0.  0.
          5    1    3    3  501    0 -0.14588718827E+02  0.62858113737E+01 -0.14019756255E+02  0.21702205120E+02  0.47000000000E+01 0. -1.
        -13    1    4    4    0    0  0.16643895751E+02 -0.12120687213E+02 -0.15299958068E+03  0.15437876154E+03  0.00000000000E+00 0.  1.
         14    1    4    4    0    0  0.24910758521E+03 -0.39174156777E+02 -0.66663022524E+03  0.71273070705E+03  0.00000000000E+00 0. -1.
         -5    1    5    5    0  502 -0.12055352771E+03 -0.45559647251E+02 -0.21864326904E+03  0.25384208398E+03  0.47000000000E+01 0.  1.
         13    1    6    6    0    0 -0.28975185796E+02  0.55227151967E+02 -0.35383123081E+02  0.71704707692E+02  0.00000000000E+00 0. -1.
        -14    1    6    6    0    0 -0.10163404862E+03  0.35341527901E+02 -0.15453896517E+03  0.18831036931E+03  0.00000000000E+00 0.  1.
</event>
<event>
12    1  0.8462562E-002  0.2014860E+03  0.7818608E-02  0.1148991E+00
         21   -1    0    0  501  502  0.00000000000E+00  0.00000000000E+00  0.13472559614E+03  0.13472559614E+03  0.00000000000E+00 0.  1.
         21   -1    0    0  502  503 -0.00000000000E+00 -0.00000000000E+00 -0.44407168948E+03  0.44407168948E+03  0.00000000000E+00 0. -1.
         -6    2    1    2    0  503 -0.92579783441E+02  0.34977167967E+02 -0.32015746128E+03  0.37702138628E+03  0.17277125664E+03 0.  0.
        -24    2    3    3    0    0 -0.73833183572E+01  0.35058926026E+02 -0.69850098798E+02  0.11257042663E+03  0.80680995076E+02 0.  0.
          6    2    1    2  501    0  0.92579783441E+02 -0.34977167967E+02  0.10811367941E+02  0.20177589934E+03  0.17550558195E+03 0.  0.
         24    2    5    5    0    0  0.99544535222E+02 -0.78599256411E+02 -0.15056572092E+02  0.15036933663E+03  0.79355399537E+02 0.  0.
          5    1    5    5  501    0 -0.69647517807E+01  0.43622088444E+02  0.25867940033E+02  0.51406562705E+02  0.47000000000E+01 0. -1.
        -11    1    6    6    0    0  0.10968299830E+03 -0.64432316333E+02  0.20605085032E+00  0.12720819927E+03  0.00000000000E+00 0.  1.
         12    1    6    6    0    0 -0.10138463082E+02 -0.14166940078E+02 -0.15262622943E+02  0.23161137363E+02  0.00000000000E+00 0. -1.
         -5    1    3    3    0  503 -0.85196465084E+02 -0.81758059433E-01 -0.25030736248E+03  0.26445095965E+03  0.47000000000E+01 0.  1.
         11    1    4    4    0    0 -0.44069131454E+02  0.15646847237E+02 -0.37796632731E+02  0.60129008152E+02  0.00000000000E+00 0. -1.
        -12    1    4    4    0    0  0.36685813097E+02  0.19412078790E+02 -0.32053466067E+02  0.52441418482E+02  0.00000000000E+00 0.  1.
</event>
<event>
12    1  0.8462562E-002  0.1856848E+03  0.7818608E-02  0.1162868E+00
         21   -1    0    0  501  502  0.00000000000E+00  0.00000000000E+00  0.59668843903E+03  0.59668843903E+03  0.00000000000E+00 0.  1.
         21   -1    0    0  502  503 -0.00000000000E+00 -0.00000000000E+00 -0.96069299713E+02  0.96069299713E+02  0.00000000000E+00 0. -1.
         -6    2    1    2    0  503 -0.65277756504E+02  0.76957174938E+01  0.30711827109E+02  0.18820754105E+03  0.17366189168E+03 0.  0.
        -24    2    3    3    0    0 -0.48983568254E+02  0.70129176091E+02  0.37882045356E+02  0.12311576466E+03  0.80030936834E+02 0.  0.
          6    2    1    2  501    0  0.65277756504E+02 -0.76957174938E+01  0.46990731220E+03  0.50455019769E+03  0.17157392099E+03 0.  0.
         24    2    5    5    0    0  0.16461818166E+02 -0.33694686501E+02  0.42241030636E+03  0.43149543885E+03  0.79696445785E+02 0.  0.
          5    1    5    5  501    0  0.48815938338E+02  0.25998969008E+02  0.47497005840E+02  0.73054758839E+02  0.47000000000E+01 0. -1.
        -13    1    6    6    0    0  0.42453347770E+02 -0.31649636618E+02  0.35976907638E+03  0.36364512172E+03  0.00000000000E+00 0.  1.
         14    1    6    6    0    0 -0.25991529604E+02 -0.20450498831E+01  0.62641229986E+02  0.67850317128E+02  0.00000000000E+00 0. -1.
         -5    1    3    3    0  503 -0.16294188250E+02 -0.62433458597E+02 -0.71702182461E+01  0.65091776384E+02  0.47000000000E+01 0.  1.
         11    1    4    4    0    0  0.84379189821E+01  0.77391661240E+01  0.36562342380E+02  0.38313157653E+02  0.00000000000E+00 0. -1.
        -12    1    4    4    0    0 -0.57421487236E+02  0.62390009967E+02  0.13197029759E+01  0.84802607012E+02  0.00000000000E+00 0.  1.
</event>
<event>
12    1  0.8462562E-002  0.1978785E+03  0.7818608E-02  0.1151936E+00
         21   -1    0    0  503  502  0.00000000000E+00  0.00000000000E+00  0.16486489049E+04  0.16486489049E+04  0.00000000000E+00 0.  1.
         21   -1    0    0  501  503 -0.00000000000E+00 -0.00000000000E+00 -0.25854237045E+02  0.25854237045E+02  0.00000000000E+00 0.  1.
          6    2    1    2  501    0 -0.84976704275E+02  0.42780348145E+02  0.56383937728E+03  0.59755396731E+03  0.17350706617E+03 0.  0.
         24    2    3    3    0    0  0.80059439085E+01  0.57422051895E+02  0.31394200241E+03  0.33047543893E+03  0.85399342364E+02 0.  0.
         -6    2    1    2    0  502  0.84976704275E+02 -0.42780348145E+02  0.10589552905E+04  0.10769491746E+04  0.17141183992E+03 0.  0.
        -24    2    5    5    0    0  0.39448331978E+02 -0.52993270596E+02  0.97706190775E+03  0.98257887942E+03  0.80292123374E+02 0.  0.
          5    1    3    3  501    0 -0.92982648184E+02 -0.14641703750E+02  0.24989737488E+03  0.26707852838E+03  0.47000000000E+01 0. -1.
        -13    1    4    4    0    0 -0.15867356380E+02  0.16854793897E+01  0.66977496873E+01  0.17305308149E+02  0.00000000000E+00 0.  1.
         14    1    4    4    0    0  0.23873300289E+02  0.55736572505E+02  0.30724425272E+03  0.31317013078E+03  0.00000000000E+00 0. -1.
         -5    1    5    5    0  502  0.45528372297E+02  0.10212922451E+02  0.81893382780E+02  0.94370295179E+02  0.47000000000E+01 0.  1.
         13    1    6    6    0    0  0.22269977464E+01  0.18689481802E+02  0.32312743386E+03  0.32367513770E+03  0.00000000000E+00 0. -1.
        -14    1    6    6    0    0  0.37221334232E+02 -0.71682752398E+02  0.65393447388E+03  0.65890374172E+03  0.00000000000E+00 0.  1.
</event>
<event>
12    1  0.8462562E-002  0.3148931E+03  0.7818608E-02  0.1078221E+00
         21   -1    0    0  503  502  0.00000000000E+00  0.00000000000E+00  0.25531889663E+03  0.25531889663E+03  0.00000000000E+00 0.  1.
         21   -1    0    0  501  503 -0.00000000000E+00 -0.00000000000E+00 -0.39411339623E+03  0.39411339623E+03  0.00000000000E+00 0. -1.
          6    2    1    2  501    0  0.10276004182E+03  0.24147758780E+03 -0.23872395681E+02  0.31579671481E+03  0.17403052091E+03 0.  0.
         24    2    3    3    0    0  0.81688019991E+02  0.13095240137E+03  0.49125860528E+02  0.18159283130E+03  0.82104458920E+02 0.  0.
         -6    2    1    2    0  502 -0.10276004182E+03 -0.24147758780E+03 -0.11492210392E+03  0.33363557804E+03  0.17098116084E+03 0.  0.
        -24    2    5    5    0    0 -0.69498020763E+02 -0.25075113183E+03 -0.12173312667E+03  0.29812725937E+03  0.79717022312E+02 0.  0.
          5    1    3    3  501    0  0.21072021825E+02  0.11052518643E+03 -0.72998256209E+02  0.13420388351E+03  0.47000000000E+01 0. -1.
        -11    1    4    4    0    0  0.44144237140E+02  0.11421972260E+03  0.68745424773E+01  0.12264631278E+03  0.00000000000E+00 0.  1.
         12    1    4    4    0    0  0.37543782851E+02  0.16732678768E+02  0.42251318051E+02  0.58946518528E+02  0.00000000000E+00 0. -1.
         -5    1    5    5    0  502 -0.33262021053E+02  0.92735440338E+01  0.68110227548E+01  0.35508318665E+02  0.47000000000E+01 0.  1.
         13    1    6    6    0    0 -0.56512343001E+02 -0.66893248501E+02 -0.45294360082E+02  0.98589708701E+02  0.00000000000E+00 0. -1.
        -14    1    6    6    0    0 -0.12985677761E+02 -0.18385788333E+03 -0.76438766592E+02  0.19953755067E+03  0.00000000000E+00 0.  1.
</event>
<event>
12    1  0.8462562E-002  0.2004248E+03  0.7818608E-02  0.1149716E+00
         21   -1    0    0  501  502  0.00000000000E+00  0.00000000000E+00  0.53356255243E+02  0.53356255243E+02  0.00000000000E+00 0.  1.
         21   -1    0    0  502  503 -0.00000000000E+00 -0.00000000000E+00 -0.10596056570E+04  0.10596056570E+04  0.00000000000E+00 0. -1.
         -6    2    1    2    0  503 -0.79537068615E+02  0.64171255240E+02 -0.80400825743E+03  0.82823118052E+03  0.17056821241E+03 0.  0.
        -24    2    3    3    0    0 -0.29206512971E+02  0.57133557210E+02 -0.22388939829E+03  0.24587160538E+03  0.78797968924E+02 0.  0.
          6    2    1    2  501    0  0.79537068615E+02 -0.64171255240E+02 -0.20224114434E+03  0.28473073174E+03  0.17241233671E+03 0.  0.
         24    2    5    5    0    0  0.46665392151E+02 -0.56148298467E+02 -0.35909247969E+02  0.11492700769E+03  0.81169284598E+02 0.  0.
          5    1    5    5  501    0  0.32871676465E+02 -0.80229567734E+01 -0.16633189638E+03  0.16980372405E+03  0.47000000000E+01 0. -1.
        -11    1    6    6    0    0  0.28988153849E+02  0.70497170720E+01  0.13536403905E+02  0.32760430477E+02  0.00000000000E+00 0.  1.
         12    1    6    6    0    0  0.17677238302E+02 -0.63198015539E+02 -0.49445651874E+02  0.82166577215E+02  0.00000000000E+00 0. -1.
         -5    1    3    3    0  503 -0.50330555644E+02  0.70376980301E+01 -0.58011885915E+03  0.58235957515E+03  0.47000000000E+01 0.  1.
         11    1    4    4    0    0 -0.24998070108E+02  0.55427408453E+02 -0.23020118708E+03  0.23809596311E+03  0.00000000000E+00 0. -1.
        -12    1    4    4    0    0 -0.42084428631E+01  0.17061487573E+01  0.63117887923E+01  0.77756422675E+01  0.00000000000E+00 0.  1.
</event>
<event>
12    1  0.8462562E-002  0.2135360E+03  0.7818608E-02  0.1138907E+00
         21   -1    0    0  501  502  0.00000000000E+00  0.00000000000E+00  0.18701462377E+03  0.18701462377E+03  0.00000000000E+00 0. -1.
         21   -1    0    0  502  503 -0.00000000000E+00 -0.00000000000E+00 -0.32648822929E+03  0.32648822929E+03  0.00000000000E+00 0. -1.
         -6    2    1    2    0  503 -0.12364528246E+03 -0.27858793640E+02 -0.19951412208E+03  0.29223876718E+03  0.17185268072E+03 0.  0.
        -24    2    3    3    0    0 -0.80404524486E+01 -0.49725840282E+02 -0.12275483852E+03  0.15168015996E+03  0.73490220273E+02 0.  0.
          6    2    1    2  501    0  0.12364528246E+03  0.27858793640E+02  0.60040516563E+02  0.22126408589E+03  0.17113931114E+03 0.  0.
         24    2    5    5    0    0  0.13379078132E+02 -0.30329093657E+02  0.57761169922E+01  0.85208284449E+02  0.78283041315E+02 0.  0.
          5    1    5    5  501    0  0.11026620433E+03  0.58187887298E+02  0.54264399570E+02  0.13605580144E+03  0.47000000000E+01 0. -1.
        -13    1    6    6    0    0 -0.62521724055E+01  0.17065390404E+02 -0.20644664955E+02  0.27504897756E+02  0.00000000000E+00 0.  1.
         14    1    6    6    0    0  0.19631250538E+02 -0.47394484062E+02  0.26420781948E+02  0.57703386693E+02  0.00000000000E+00 0. -1.
         -5    1    3    3    0  503 -0.11560483001E+03  0.21867046642E+02 -0.76759283558E+02  0.14055860722E+03  0.47000000000E+01 0.  1.
         11    1    4    4    0    0 -0.29912373519E+02 -0.44434312296E+02 -0.11665540351E+03  0.12836526542E+03  0.00000000000E+00 0. -1.
        -12    1    4    4    0    0  0.21871921071E+02 -0.52915279865E+01 -0.60994350177E+01  0.23314894537E+02  0.00000000000E+00 0.  1.
</event>
<event>
12    1  0.8462562E-002  0.1778904E+03  0.7818608E-02  0.1171399E+00
         21   -1    0    0  503  502  0.00000000000E+00  0.00000000000E+00  0.97673628337E+02  0.97673628337E+02  0.00000000000E+00 0. -1.
         21   -1    0    0  501  503 -0.00000000000E+00 -0.00000000000E+00 -0.61774639816E+03  0.61774639816E+03  0.00000000000E+00 0. -1.
          6    2    1    2  501    0 -0.34586708150E+02  0.19906288600E+02 -0.51362044361E+03  0.54355398910E+03  0.17335650628E+03 0.  0.
         24    2    3    3    0    0  0.37109831372E+02  0.77902561705E+01 -0.39365680543E+03  0.40319531816E+03  0.78504499589E+02 0.  0.
         -6    2    1    2    0  502  0.34586708150E+02 -0.19906288600E+02 -0.64523262129E+01  0.17186603739E+03  0.16704431026E+03 0.  0.
        -24    2    5    5    0    0  0.41761627388E+02 -0.40080609612E+02  0.49425597981E+02  0.11184174975E+03  0.81946314519E+02 0.  0.
          5    1    3    3  501    0 -0.71696539522E+02  0.12116032430E+02 -0.11996363818E+03  0.14035867094E+03  0.47000000000E+01 0. -1.
        -11    1    4    4    0    0  0.58721138981E+02 -0.64844812588E+00 -0.20922944833E+03  0.21731441438E+03  0.00000000000E+00 0.  1.
         12    1    4    4    0    0 -0.21611307609E+02  0.84387042964E+01 -0.18442735710E+03  0.18588090379E+03  0.00000000000E+00 0. -1.
         -5    1    5    5    0  502 -0.71749192374E+01  0.20174321012E+02 -0.55877924194E+02  0.60024287639E+02  0.47000000000E+01 0.  1.
         11    1    6    6    0    0  0.28742427862E+02 -0.65628855893E+02  0.34709559335E+02  0.79611729000E+02  0.00000000000E+00 0. -1.
        -12    1    6    6    0    0  0.13019199526E+02  0.25548246281E+02  0.14716038646E+02  0.32230020753E+02  0.00000000000E+00 0.  1.
</event>
<event>
12    1  0.8462562E-002  0.2653887E+03  0.7818608E-02  0.1104081E+00
         21   -1    0    0  503  502  0.00000000000E+00  0.00000000000E+00  0.12517727580E+03  0.12517727580E+03  0.00000000000E+00 0. -1.
         21   -1    0    0  501  503 -0.00000000000E+00 -0.00000000000E+00 -0.64866233506E+03  0.64866233506E+03  0.00000000000E+00 0.  1.
          6    2    1    2  501    0  0.18275192593E+03 -0.83771164887E+02 -0.40380826946E+03  0.48271470857E+03  0.17186185407E+03 0.  0.
         24    2    3    3    0    0  0.19256996254E+03 -0.10955495023E+03 -0.34493592948E+03  0.41752851490E+03  0.79144094651E+02 0.  0.
         -6    2    1    2    0  502 -0.18275192593E+03  0.83771164887E+02 -0.11967678979E+03  0.29112490228E+03  0.17324924305E+03 0.  0.
        -24    2    5    5    0    0 -0.16880601173E+03  0.24779400806E+02 -0.41026893622E+02  0.19171457626E+03  0.77212592574E+02 0.  0.
          5    1    3    3  501    0 -0.98180366111E+01  0.25783785344E+02 -0.58872339988E+02  0.65186193670E+02  0.47000000000E+01 0. -1.
        -11    1    4    4    0    0  0.13737138971E+03 -0.43303074236E+02 -0.17245887078E+03  0.22469560979E+03  0.00000000000E+00 0.  1.
         12    1    4    4    0    0  0.55198572828E+02 -0.66251875995E+02 -0.17247705870E+03  0.19283290511E+03  0.00000000000E+00 0. -1.
         -5    1    5    5    0  502 -0.13945914205E+02  0.58991764081E+02 -0.78649896170E+02  0.99410326023E+02  0.47000000000E+01 0.  1.
         11    1    6    6    0    0 -0.17455010753E+02 -0.22690391731E+02 -0.74073349540E+01  0.29570253439E+02  0.00000000000E+00 0. -1.
        -12    1    6    6    0    0 -0.15135100097E+03  0.47469792537E+02 -0.33619558668E+02  0.16214432282E+03  0.00000000000E+00 0.  1.
</event>
<event>
12    1  0.8462562E-002  0.2792095E+03  0.7818608E-02  0.1098232E+00
         21   -1    0    0  501  502  0.00000000000E+00  0.00000000000E+00  0.30179108910E+03  0.30179108910E+03  0.00000000000E+00 0. -1.
         21   -1    0    0  502  503 -0.00000000000E+00 -0.00000000000E+00 -0.34660786872E+03  0.34660786872E+03  0.00000000000E+00 0.  1.
         -6    2    1    2    0  503  0.19816403275E+03  0.36416285861E+02 -0.19774550583E+03  0.33005145434E+03  0.17098405682E+03 0.  0.
        -24    2    3    3    0    0  0.19185735946E+03  0.31097162433E+02 -0.10124315071E+03  0.23308309998E+03  0.79380577241E+02 0.  0.
          6    2    1    2  501    0 -0.19816403275E+03 -0.36416285861E+02  0.15292872621E+03  0.31834750347E+03  0.19329461430E+03 0.  0.
         24    2    5    5    0    0 -0.21377108412E+03  0.11039091502E+02  0.11792164310E+03  0.25716598043E+03  0.80055540926E+02 0.  0.
          5    1    5    5  501    0  0.15607051378E+02 -0.47455377363E+02  0.35007083113E+02  0.61181523040E+02  0.47000000000E+01 0. -1.
        -13    1    6    6    0    0 -0.47972643054E+02 -0.14160733154E+02 -0.34699734740E+01  0.50139221782E+02  0.00000000000E+00 0.  1.
         14    1    6    6    0    0 -0.16579844107E+03  0.25199824656E+02  0.12139161657E+03  0.20702675865E+03  0.00000000000E+00 0. -1.
         -5    1    3    3    0  503  0.63066732861E+01  0.53191234282E+01 -0.96502355122E+02  0.96968354354E+02  0.47000000000E+01 0.  1.
         11    1    4    4    0    0  0.11648820411E+03  0.44353904204E+02 -0.94190638722E+02  0.15623266924E+03  0.00000000000E+00 0. -1.
        -12    1    4    4    0    0  0.75369155349E+02 -0.13256741771E+02 -0.70525119864E+01  0.76850430745E+02  0.00000000000E+00 0.  1.
</event>
<event>
12    1  0.8462562E-002  0.2035236E+03  0.7818608E-02  0.1147824E+00
         21   -1    0    0  501  502  0.00000000000E+00  0.00000000000E+00  0.19128701207E+03  0.19128701207E+03  0.00000000000E+00 0.  1.
         21   -1    0    0  502  503 -0.00000000000E+00 -0.00000000000E+00 -0.21415248465E+03  0.21415248465E+03  0.00000000000E+00 0.  1.
         -6    2    1    2    0  503  0.79186925086E+02 -0.72177096769E+02  0.11851718271E+02  0.19897611870E+03  0.16724512007E+03 0.  0.
        -24    2    3    3    0    0  0.95835699417E+02 -0.78891693147E+02  0.50125402453E+02  0.15644104621E+03  0.80949764902E+02 0.  0.
          6    2    1    2  501    0 -0.79186925086E+02  0.72177096769E+02 -0.34717190846E+02  0.20646337802E+03  0.17303681897E+03 0.  0.
         24    2    5    5    0    0 -0.91525962654E+02  0.94189615874E+02 -0.62452794439E+02  0.16867241942E+03  0.85447925429E+02 0.  0.
          5    1    5    5  501    0  0.12339037567E+02 -0.22012519106E+02  0.27735603593E+02  0.37790958603E+02  0.47000000000E+01 0. -1.
        -13    1    6    6    0    0 -0.36107916215E+01  0.21776210778E+02  0.18610860614E+02  0.28872223759E+02  0.00000000000E+00 0.  1.
         14    1    6    6    0    0 -0.87915171032E+02  0.72413405096E+02 -0.81063655053E+02  0.13980019566E+03  0.00000000000E+00 0. -1.
         -5    1    3    3    0  503 -0.16648774331E+02  0.67145963781E+01 -0.38273684182E+02  0.42535072494E+02  0.47000000000E+01 0.  1.
         13    1    4    4    0    0  0.23843254369E+02  0.15891585360E+02  0.14996663834E+02  0.32341044979E+02  0.00000000000E+00 0. -1.
        -14    1    4    4    0    0  0.71992445048E+02 -0.94783278507E+02  0.35128738619E+02  0.12410000123E+03  0.00000000000E+00 0.  1.
</event>
<event>
12    1  0.8462562E-002  0.2363462E+03  0.7818608E-02  0.1122444E+00
         21   -1    0    0  501  502  0.00000000000E+00  0.00000000000E+00  0.30348342494E+03  0.30348342494E+03  0.00000000000E+00 0. -1.
         21   -1    0    0  502  503 -0.00000000000E+00 -0.00000000000E+00 -0.22794606188E+03  0.22794606188E+03  0.00000000000E+00 0.  1.
         -6    2    1    2    0  503 -0.11565136608E+03  0.11103623764E+03  0.15544867300E+03  0.28193933496E+03  0.17210814657E+03 0.  0.
        -24    2    3    3    0    0 -0.14871619523E+03  0.71515654626E+02  0.13369254348E+03  0.22580931999E+03  0.76714778445E+02 0.  0.
          6    2    1    2  501    0  0.11565136608E+03 -0.11103623764E+03 -0.79911309943E+02  0.24949015185E+03  0.17365262414E+03 0.  0.
         24    2    5    5    0    0  0.96275949290E+02 -0.72377738740E+02 -0.12228065211E+03  0.18876834796E+03  0.78570578686E+02 0.  0.
          5    1    5    5  501    0  0.19375416788E+02 -0.38658498900E+02  0.42369342163E+02  0.60721803895E+02  0.47000000000E+01 0. -1.
        -13    1    6    6    0    0  0.21516152205E+02 -0.21032133237E+02 -0.85956939731E+02  0.91070801699E+02  0.00000000000E+00 0.  1.
         14    1    6    6    0    0  0.74759797085E+02 -0.51345605503E+02 -0.36323712376E+02  0.97697546261E+02  0.00000000000E+00 0. -1.
         -5    1    3    3    0  503  0.33064829154E+02  0.39520583015E+02  0.21756129518E+02  0.56130014969E+02  0.47000000000E+01 0.  1.
         11    1    4    4    0    0 -0.94126060408E+02  0.41688364701E+01  0.57395719902E+02  0.11032390089E+03  0.00000000000E+00 0. -1.
        -12    1    4    4    0    0 -0.54590134823E+02  0.67346818156E+02  0.76296823583E+02  0.11548541910E+03  0.00000000000E+00 0.  1.
</event>
<event>
12    1  0.8462562E-002  0.1914000E+03  0.7818608E-02  0.1158369E+00
         21   -1    0    0  501  502  0.00000000000E+00  0.00000000000E+00  0.65467438642E+03  0.65467438642E+03  0.00000000000E+00 0. -1.
         21   -1    0    0  502  503 -0.00000000000E+00 -0.00000000000E+00 -0.57737017782E+02  0.57737017782E+02  0.00000000000E+00 0. -1.
         -6    2    1    2    0  503  0.67646751247E+00  0.84513205407E+02  0.20985365527E+03  0.28059225570E+03  0.16598348662E+03 0.  0.
        -24    2    3    3    0    0  0.29254003264E+02  0.46807632118E+02  0.42184375921E+02  0.10631241451E+03  0.80473950913E+02 0.  0.
          6    2    1    2  501    0 -0.67646751247E+00 -0.84513205407E+02  0.38708371336E+03  0.43181914850E+03  0.17172954424E+03 0.  0.
         24    2    5    5    0    0  0.12172542613E+02 -0.66841732333E+02  0.39468334319E+03  0.40821358993E+03  0.79040531600E+02 0.  0.
          5    1    5    5  501    0 -0.12849010126E+02 -0.17671473074E+02 -0.75996298306E+01  0.23605558569E+02  0.47000000000E+01 0. -1.
        -11    1    6    6    0    0  0.33512719894E+02  0.45938842019E+00  0.13588773126E+03  0.13995995477E+03  0.00000000000E+00 0.  1.
         12    1    6    6    0    0 -0.21340177281E+02 -0.67301120754E+02  0.25879561194E+03  0.26825363516E+03  0.00000000000E+00 0. -1.
         -5    1    3    3    0  503 -0.28577535751E+02  0.37705573289E+02  0.16766927935E+03  0.17427984119E+03  0.47000000000E+01 0.  1.
         13    1    4    4    0    0 -0.27445673915E+01  0.61436866206E+02  0.33673024795E+02  0.70113435076E+02  0.00000000000E+00 0. -1.
        -14    1    4    4    0    0  0.31998570655E+02 -0.14629234088E+02  0.85113511254E+01  0.36198979433E+02  0.00000000000E+00 0.  1.
</event>
<event>
12    1  0.8462562E-002  0.2350159E+03  0.7818608E-02  0.1123246E+00
         21   -1    0    0  501  502  0.00000000000E+00  0.00000000000E+00  0.31840542656E+03  0.31840542656E+03  0.00000000000E+00 0.  1.
         21   -1    0    0  502  503 -0.00000000000E+00 -0.00000000000E+00 -0.38076878675E+03  0.38076878675E+03  0.00000000000E+00 0.  1.
         -6    2    1    2    0  503 -0.96425653508E+02 -0.12693060589E+03 -0.28934709405E+03  0.37244180615E+03  0.17199381606E+03 0.  0.
        -24    2    3    3    0    0 -0.69140829652E+02 -0.40300228966E+02 -0.70255148573E+02  0.13522322679E+03  0.83336500900E+02 0.  0.
          6    2    1    2  501    0  0.96425653508E+02  0.12693060589E+03  0.22698373387E+03  0.32673240716E+03  0.17269384785E+03 0.  0.
         24    2    5    5    0    0 -0.14801363077E+02  0.37523223760E+02  0.65419920248E+02  0.11111681156E+03  0.80250278347E+02 0.  0.
          5    1    5    5  501    0  0.11122701659E+03  0.89407382127E+02  0.16156381362E+03  0.21561559560E+03  0.47000000000E+01 0. -1.
        -11    1    6    6    0    0 -0.30074573177E+02  0.54371528469E+02  0.29933657545E+02  0.68969318641E+02  0.00000000000E+00 0.  1.
         12    1    6    6    0    0  0.15273210100E+02 -0.16848304709E+02  0.35486262703E+02  0.42147492914E+02  0.00000000000E+00 0. -1.
         -5    1    3    3    0  503 -0.27284823856E+02 -0.86630376920E+02 -0.21909194548E+03  0.23721857936E+03  0.47000000000E+01 0.  1.
         13    1    4    4    0    0 -0.42449361064E+00 -0.44114073858E+02 -0.13847410636E+02  0.46238322725E+02  0.00000000000E+00 0. -1.
        -14    1    4    4    0    0 -0.68716336042E+02  0.38138448912E+01 -0.56407737938E+02  0.88984904063E+02  0.00000000000E+00 0.  1.
</event>
<event>
12    1  0.8462562E-002  0.1806368E+03  0.7818608E-02  0.1167436E+00
         21   -1    0    0  503  502  0.00000000000E+00  0.00000000000E+00  0.11703039856E+03  0.11703039856E+03  0.00000000000E+00 0. -1.
         21   -1    0    0  501  503 -0.00000000000E+00 -0.00000000000E+00 -0.46460081144E+03  0.46460081144E+03  0.00000000000E+00 0. -1.
          6    2    1    2  501    0  0.51081103754E+02  0.42895193681E+01 -0.35876063038E+03  0.40167008201E+03  0.17321081297E+03 0.  0.
         24    2    3    3    0    0  0.85763452164E+02  0.37841859274E+02 -0.31089122317E+03  0.33353642695E+03  0.76195927831E+02 0.  0.
         -6    2    1    2    0  502 -0.51081103754E+02 -0.42895193681E+01  0.11190217507E+02  0.17996112800E+03  0.17214269513E+03 0.  0.
        -24    2    5    5    0    0 -0.19616116169E+02 -0.37124215141E+02 -0.50427762895E+02  0.10323415622E+03  0.79695246882E+02 0.  0.
          5    1    3    3  501    0 -0.34682348410E+02 -0.33552339906E+02 -0.47869407210E+02  0.68133655054E+02  0.47000000000E+01 0. -1.
        -13    1    4    4    0    0  0.91482239984E+01  0.40927904878E+02 -0.81297346568E+02  0.91477002351E+02  0.00000000000E+00 0.  1.
         14    1    4    4    0    0  0.76615228166E+02 -0.30860456037E+01 -0.22959387660E+03  0.24205942460E+03  0.00000000000E+00 0. -1.
         -5    1    5    5    0  502 -0.31464987585E+02  0.32834695773E+02  0.61617980402E+02  0.76726971783E+02  0.47000000000E+01 0.  1.
         11    1    6    6    0    0 -0.47200892180E+02 -0.13269604948E+02 -0.12460252356E+02  0.50589174008E+02  0.00000000000E+00 0. -1.
        -12    1    6    6    0    0  0.27584776011E+02 -0.23854610193E+02 -0.37967510539E+02  0.52644982207E+02  0.00000000000E+00 0.  1.
</event>
<event>
12    1  0.8462562E-002  0.2760487E+03  0.7818608E-02  0.1097999E+00
         21   -1    0    0  501  502  0.00000000000E+00  0.00000000000E+00  0.21716607196E+03  0.21716607196E+03  0.00000000000E+00 0. -1.
         21   -1    0    0  502  503 -0.00000000000E+00 -0.00000000000E+00 -0.69434436301E+03  0.69434436301E+03  0.00000000000E+00 0.  1.
         -6    2    1    2    0  503  0.97472766687E+02 -0.19125976716E+03 -0.55947710566E+03  0.62345491203E+03  0.17204696102E+03 0.  0.
        -24    2    3    3    0    0 -0.13795027687E+02 -0.97546732334E+02 -0.22062378064E+03  0.25466456395E+03  0.80458186464E+02 0.  0.
          6    2    1    2  501    0 -0.97472766687E+02  0.19125976716E+03  0.82298814606E+02  0.28805552294E+03  0.17355590060E+03 0.  0.
         24    2    5    5    0    0 -0.93991683583E+02  0.11607250885E+03 -0.93578465609E+01  0.16936148229E+03  0.79299927463E+02 0.  0.
          5    1    5    5  501    0 -0.34810831042E+01  0.75187258304E+02  0.91656661167E+02  0.11869404066E+03  0.47000000000E+01 0. -1.
        -13    1    6    6    0    0  0.11255512787E+02 -0.37607527345E+00  0.37067890457E+01  0.11856149702E+02  0.00000000000E+00 0.  1.
         14    1    6    6    0    0 -0.10524719637E+03  0.11644858413E+03 -0.13064635607E+02  0.15750533258E+03  0.00000000000E+00 0. -1.
         -5    1    3    3    0  503  0.11126779437E+03 -0.93713034822E+02 -0.33885332502E+03  0.36879034808E+03  0.47000000000E+01 0.  1.
         11    1    4    4    0    0 -0.22981985373E+02 -0.82356185262E+02 -0.22094171671E+03  0.23690917054E+03  0.00000000000E+00 0. -1.
        -12    1    4    4    0    0  0.91869576861E+01 -0.15190547073E+02  0.31793606690E+00  0.17755393412E+02  0.00000000000E+00 0.  1.
</event>
<event>
12    1  0.8462562E-002  0.2325967E+03  0.7818608E-02  0.1124949E+00
         21   -1    0    0  503  502  0.00000000000E+00  0.00000000000E+00  0.13587573167E+04  0.13587573167E+04  0.00000000000E+00 0.  1.
         21   -1    0    0  501  503 -0.00000000000E+00 -0.00000000000E+00 -0.11116059971E+03  0.11116059971E+03  0.00000000000E+00 0. -1.
          6    2    1    2  501    0  0.43791336880E+02  0.14855714130E+03  0.34840384353E+02  0.23519160881E+03  0.17353482376E+03 0.  0.
         24    2    3    3    0    0  0.30160664624E+02  0.22025076173E+02  0.58962413938E+02  0.10557632791E+03  0.79215055937E+02 0.  0.
         -6    2    1    2    0  502 -0.43791336880E+02 -0.14855714130E+03  0.12127563326E+04  0.12347263076E+04  0.17258107348E+03 0.  0.
        -24    2    5    5    0    0 -0.96578817076E+01 -0.30604573621E+02  0.25239686553E+03  0.26653712308E+03  0.79422576393E+02 0.  0.
          5    1    3    3  501    0  0.13630672256E+02  0.12653206513E+03 -0.24122029585E+02  0.12961528090E+03  0.47000000000E+01 0. -1.
        -13    1    4    4    0    0  0.45754876333E+02 -0.60280282070E+01  0.10305386183E+02  0.47286856701E+02  0.00000000000E+00 0.  1.
         14    1    4    4    0    0 -0.15594211709E+02  0.28053104380E+02  0.48657027755E+02  0.58289471211E+02  0.00000000000E+00 0. -1.
         -5    1    5    5    0  502 -0.34133455172E+02 -0.11795256768E+03  0.96035946707E+03  0.96818918450E+03  0.47000000000E+01 0.  1.
         13    1    6    6    0    0  0.23312788808E+02  0.16205377864E+02  0.81453072305E+02  0.86259511833E+02  0.00000000000E+00 0. -1.
        -14    1    6    6    0    0 -0.32970670515E+02 -0.46809951485E+02  0.17094379323E+03  0.18027761124E+03  0.00000000000E+00 0.  1.
</event>
<event>
12    1  0.8462562E-002  0.1781313E+03  0.7818608E-02  0.1169862E+00
         21   -1    0    0  501  502  0.00000000000E+00  0.00000000000E+00  0.17044262818E+03  0.17044262818E+03  0.00000000000E+00 0. -1.
         21   -1    0    0  502  503 -0.00000000000E+00 -0.00000000000E+00 -0.24490710266E+03  0.24490710266E+03  0.00000000000E+00 0. -1.
         -6    2    1    2    0  503  0.44961749466E+02  0.56723154695E+01  0.65267900735E+02  0.18971201421E+03  0.17227018137E+03 0.  0.
        -24    2    3    3    0    0  0.51874381746E+02  0.32531363660E+02  0.10246787861E+03  0.14307381839E+03  0.78874649022E+02 0.  0.
          6    2    1    2  501    0 -0.44961749466E+02 -0.56723154695E+01 -0.13973237522E+03  0.22563771664E+03  0.17127027882E+03 0.  0.
         24    2    5    5    0    0 -0.36205066300E+02  0.61104363265E+02 -0.69858257081E+02  0.12847657879E+03  0.81126476438E+02 0.  0.
          5    1    5    5  501    0 -0.87566831656E+01 -0.66776678735E+02 -0.69874118136E+02  0.97161137849E+02  0.47000000000E+01 0. -1.
        -11    1    6    6    0    0  0.19234500663E+01  0.62128721465E+02 -0.19183664198E+02  0.65051446279E+02  0.00000000000E+00 0.  1.
         12    1    6    6    0    0 -0.38128516367E+02 -0.10243581993E+01 -0.50674592884E+02  0.63425132510E+02  0.00000000000E+00 0. -1.
         -5    1    3    3    0  503 -0.69126322799E+01 -0.26859048191E+02 -0.37199977879E+02  0.46638195816E+02  0.47000000000E+01 0.  1.
         11    1    4    4    0    0  0.42572274634E+01  0.43201483008E+02  0.21271730899E+02  0.48342307095E+02  0.00000000000E+00 0. -1.
        -12    1    4    4    0    0  0.47617154282E+02 -0.10670119348E+02  0.81196147716E+02  0.94731511298E+02  0.00000000000E+00 0.  1.
</event>
<event>
12    1  0.8462562E-002  0.2533034E+03  0.7818608E-02  0.1111340E+00
         21   -1    0    0  501  502  0.00000000000E+00  0.00000000000E+00  0.22509036843E+03  0.22509036843E+03  0.00000000000E+00 0.  1.
         21   -1    0    0  502  503 -0.00000000000E+00 -0.00000000000E+00 -0.36457017043E+03  0.36457017043E+03  0.00000000000E+00 0. -1.
         -6    2    1    2    0  503  0.71065363330E+02 -0.17188035432E+03 -0.20801908716E+03  0.32724819396E+03  0.17095700558E+03 0.  0.
        -24    2    3    3    0    0  0.53045626246E+02 -0.42790469738E+02 -0.15647006333E+03  0.18700447365E+03  0.76439058617E+02 0.  0.
          6    2    1    2  501    0 -0.71065363330E+02  0.17188035432E+03  0.68539285160E+02  0.26241234491E+03  0.17195773632E+03 0.  0.
         24    2    5    5    0    0 -0.41507285380E+02  0.10899823137E+03  0.11188961563E+03  0.18038075031E+03  0.80090322867E+02 0.  0.
          5    1    5    5  501    0 -0.29558077950E+02  0.62882122956E+02 -0.43350330469E+02  0.82031594593E+02  0.47000000000E+01 0. -1.
        -13    1    6    6    0    0  0.17505713262E+01  0.96232951146E+02  0.72493352930E+02  0.12049535927E+03  0.00000000000E+00 0.  1.
         14    1    6    6    0    0 -0.43257856706E+02  0.12765280222E+02  0.39396262699E+02  0.59885391045E+02  0.00000000000E+00 0. -1.
         -5    1    3    3    0  503  0.18019737084E+02 -0.12908988459E+03 -0.51549023831E+02  0.14024372031E+03  0.47000000000E+01 0.  1.
         11    1    4    4    0    0  0.57672421867E+02 -0.57515632760E+02 -0.14910736561E+03  0.16990339236E+03  0.00000000000E+00 0. -1.
        -12    1    4    4    0    0 -0.46267956204E+01  0.14725163022E+02 -0.73626977271E+01  0.17101081298E+02  0.00000000000E+00 0.  1.
</event>
<event>
12    1  0.8462562E-002  0.3180474E+03  0.7818608E-02  0.1076627E+00
         21   -1    0    0  501  502  0.00000000000E+00  0.00000000000E+00  0.10874597443E+04  0.10874597443E+04  0.00000000000E+00 0.  1.
         21   -1    0    0  502  503 -0.00000000000E+00 -0.00000000000E+00 -0.30367487533E+03  0.30367487533E+03  0.00000000000E+00 0.  1.
         -6    2    1    2    0  503 -0.23684441521E+02 -0.26589741274E+03 -0.18781826953E+03  0.36880061630E+03  0.17168519255E+03 0.  0.
        -24    2    3    3    0    0 -0.71229871160E+02 -0.15591724848E+03 -0.74531441691E+02  0.20383940943E+03  0.81312275310E+02 0.  0.
          6    2    1    2  501    0  0.23684441521E+02  0.26589741274E+03  0.97160313852E+03  0.10223340033E+04  0.17289236171E+03 0.  0.
         24    2    5    5    0    0 -0.39674392286E+02  0.14081955626E+03  0.65426417058E+03  0.67536869877E+03  0.81590866822E+02 0.  0.
          5    1    5    5  501    0  0.63358833807E+02  0.12507785648E+03  0.31733896794E+03  0.34696530457E+03  0.47000000000E+01 0. -1.
        -11    1    6    6    0    0  0.16967310662E+02  0.89413704669E+02  0.35996081523E+03  0.37128760916E+03  0.00000000000E+00 0.  1.
         12    1    6    6    0    0 -0.56641702948E+02  0.51405851593E+02  0.29430335535E+03  0.30408108961E+03  0.00000000000E+00 0. -1.
         -5    1    3    3    0  503  0.47545429639E+02 -0.10998016426E+03 -0.11328682784E+03  0.16496120687E+03  0.47000000000E+01 0.  1.
         11    1    4    4    0    0  0.11966368664E+02 -0.51290394499E+02 -0.38968998810E+02  0.65517031489E+02  0.00000000000E+00 0. -1.
        -12    1    4    4    0    0 -0.83196239825E+02 -0.10462685398E+03 -0.35562442881E+02  0.13832237794E+03  0.00000000000E+00 0.  1.
</event>
<event>
12    1  0.8462562E-002  0.2088836E+03  0.7818608E-02  0.1144411E+00
         21   -1    0    0  503  502  0.00000000000E+00  0.00000000000E+00  0.50802580726E+03  0.50802580726E+03  0.00000000000E+00 0.  1.
         21   -1    0    0  501  503 -0.00000000000E+00 -0.00000000000E+00 -0.86367065288E+02  0.86367065288E+02  0.00000000000E+00 0.  1.
          6    2    1    2  501    0 -0.72635715626E+02 -0.69297221442E+02  0.13926186705E+03  0.24313750535E+03  0.17217411772E+03 0.  0.
         24    2    3    3    0    0 -0.11239656064E+03 -0.36903101403E+02  0.12582519669E+03  0.18991215500E+03  0.78992536091E+02 0.  0.
         -6    2    1    2    0  502  0.72635715626E+02  0.69297221442E+02  0.28239687492E+03  0.35125536719E+03  0.18317829001E+03 0.  0.
        -24    2    5    5    0    0  0.25797582280E+02 -0.32687974402E+02  0.65895563839E+02  0.10735026555E+03  0.73809452362E+02 0.  0.
          5    1    3    3  501    0  0.39760845018E+02 -0.32394120039E+02  0.13436670361E+02  0.53225350351E+02  0.47000000000E+01 0. -1.
        -13    1    4    4    0    0 -0.76214109752E+02 -0.50314719730E+02  0.12013640255E+03  0.15090698050E+03  0.00000000000E+00 0.  1.
         14    1    4    4    0    0 -0.36182450892E+02  0.13411618327E+02  0.56887941323E+01  0.39005174495E+02  0.00000000000E+00 0. -1.
         -5    1    5    5    0  502  0.46838133346E+02  0.10198519584E+03  0.21650131108E+03  0.24390510164E+03  0.47000000000E+01 0.  1.
         13    1    6    6    0    0  0.13121175395E+02  0.18012003876E+02 -0.11839747646E+01  0.22315898450E+02  0.00000000000E+00 0. -1.
        -14    1    6    6    0    0  0.12676406885E+02 -0.50699978278E+02  0.67079538603E+02  0.85034367100E+02  0.00000000000E+00 0.  1.
</event>
<event>
12    1  0.8462562E-002  0.2313436E+03  0.7818608E-02  0.1125979E+00
         21   -1    0    0  501  502  0.00000000000E+00  0.00000000000E+00  0.40156331700E+03  0.40156331700E+03  0.00000000000E+00 0.  1.
         21   -1    0    0  502  503 -0.00000000000E+00 -0.00000000000E+00 -0.14710689792E+03  0.14710689792E+03  0.00000000000E+00 0.  1.
         -6    2    1    2    0  503  0.14993585368E+03  0.34956713452E+02  0.39953041453E+02  0.23318400102E+03  0.17051627716E+03 0.  0.
        -24    2    3    3    0    0  0.12980832025E+03 -0.22071606979E+02  0.65694130129E+02  0.16728983907E+03  0.79578990204E+02 0.  0.
          6    2    1    2  501    0 -0.14993585368E+03 -0.34956713452E+02  0.21450337762E+03  0.31548621390E+03  0.17267634497E+03 0.  0.
         24    2    5    5    0    0 -0.43206166860E+02 -0.81505834515E+02  0.79179112759E+02  0.13690067870E+03  0.62948312263E+02 0.  0.
          5    1    5    5  501    0 -0.10672968682E+03  0.46549121063E+02  0.13532426486E+03  0.17858553520E+03  0.47000000000E+01 0. -1.
        -13    1    6    6    0    0 -0.59431503262E+02 -0.69152955628E+02  0.66958015724E+02  0.11312652528E+03  0.00000000000E+00 0.  1.
         14    1    6    6    0    0  0.16225336402E+02 -0.12352878886E+02  0.12221097035E+02  0.23774153421E+02  0.00000000000E+00 0. -1.
         -5    1    3    3    0  503  0.20127533432E+02  0.57028320430E+02 -0.25741088676E+02  0.65894161953E+02  0.47000000000E+01 0.  1.
         13    1    4    4    0    0  0.12307276625E+02 -0.20819065113E+02 -0.11412972604E+02  0.26742447042E+02  0.00000000000E+00 0. -1.
        -14    1    4    4    0    0  0.11750104362E+03 -0.12525418654E+01  0.77107102733E+02  0.14054739203E+03  0.00000000000E+00 0.  1.
</event>
<event>
12    1  0.8462562E-002  0.2344414E+03  0.7818608E-02  0.1123602E+00
         21   -1    0    0  501  502  0.00000000000E+00  0.00000000000E+00  0.16575197067E+03  0.16575197067E+03  0.00000000000E+00 0. -1.
         21   -1    0    0  502  503 -0.00000000000E+00 -0.00000000000E+00 -0.33186367546E+03  0.33186367546E+03  0.00000000000E+00 0. -1.
         -6    2    1    2    0  503  0.15690052010E+03  0.21550070416E+02 -0.71876906014E+02  0.24521225633E+03  0.17286000779E+03 0.  0.
        -24    2    3    3    0    0  0.17985548827E+03 -0.10546248695E+02 -0.78394168927E+02  0.20494230500E+03  0.58279349972E+02 0.  0.
          6    2    1    2  501    0 -0.15690052010E+03 -0.21550070416E+02 -0.94234798779E+02  0.25240338980E+03  0.17246766404E+03 0.  0.
         24    2    5    5    0    0 -0.14561242010E+03  0.38308570608E+02 -0.56671618404E+02  0.18068476860E+03  0.82248342248E+02 0.  0.
          5    1    5    5  501    0 -0.11288099996E+02 -0.59858641024E+02 -0.37563180376E+02  0.71718621199E+02  0.47000000000E+01 0. -1.
        -13    1    6    6    0    0 -0.14041208910E+02  0.17087211619E+02  0.17464728238E+02  0.28180579856E+02  0.00000000000E+00 0.  1.
         14    1    6    6    0    0 -0.13157121119E+03  0.21221358989E+02 -0.74136346642E+02  0.15250418875E+03  0.00000000000E+00 0. -1.
         -5    1    3    3    0  503 -0.22954968174E+02  0.32096319111E+02  0.65172629137E+01  0.40269951332E+02  0.47000000000E+01 0.  1.
         13    1    4    4    0    0  0.47658612892E+02  0.13595256145E+01 -0.50230593912E+02  0.69255355442E+02  0.00000000000E+00 0. -1.
        -14    1    4    4    0    0  0.13219687538E+03 -0.11905774310E+02 -0.28163575015E+02  0.13568694956E+03  0.00000000000E+00 0.  1.
</event>
<event>
12    1  0.8462562E-002  0.2214529E+03  0.7818608E-02  0.1132903E+00
         21   -1    0    0  503  502  0.00000000000E+00  0.00000000000E+00  0.10071784031E+03  0.10071784031E+03  0.00000000000E+00 0.  1.
         21   -1    0    0  501  503 -0.00000000000E+00 -0.00000000000E+00 -0.49499629656E+03  0.49499629656E+03  0.00000000000E+00 0.  1.
          6    2    1    2  501    0 -0.61598382035E+02  0.12579201381E+03 -0.15618667931E+03  0.27055406853E+03  0.17084271655E+03 0.  0.
         24    2    3    3    0    0  0.18388915378E+02  0.51929477632E+02 -0.11676432166E+03  0.15466682040E+03  0.85165108241E+02 0.  0.
         -6    2    1    2    0  502  0.61598382035E+02 -0.12579201381E+03 -0.23809177695E+03  0.32516006833E+03  0.17153245868E+03 0.  0.
        -24    2    5    5    0    0  0.24310420113E+02 -0.67458417858E+02 -0.22862322105E+03  0.25512476244E+03  0.87626665697E+02 0.  0.
          5    1    3    3  501    0 -0.79987297413E+02  0.73862536178E+02 -0.39422357642E+02  0.11588724813E+03  0.47000000000E+01 0. -1.
        -11    1    4    4    0    0 -0.63282894854E+00  0.42397976876E+02 -0.71433357967E+01  0.43000187929E+02  0.00000000000E+00 0.  1.
         12    1    4    4    0    0  0.19021744326E+02  0.95315007558E+01 -0.10962098587E+03  0.11166663247E+03  0.00000000000E+00 0. -1.
         -5    1    5    5    0  502  0.37287961922E+02 -0.58333595951E+02 -0.94685558963E+01  0.70035305894E+02  0.47000000000E+01 0.  1.
         11    1    6    6    0    0 -0.28589799426E+02 -0.30989840605E+02 -0.13608621401E+03  0.14246825785E+03  0.00000000000E+00 0. -1.
        -12    1    6    6    0    0  0.52900219539E+02 -0.36468577253E+02 -0.92537007040E+02  0.11265650459E+03  0.00000000000E+00 0.  1.
</event>
<event>
12    1  0.8462562E-002  0.2731958E+03  0.7818608E-02  0.1099606E+00
         21   -1    0    0  501  502  0.00000000000E+00  0.00000000000E+00  0.44971572348E+03  0.44971572348E+03  0.00000000000E+00 0. -1.
         21   -1    0    0  502  503 -0.00000000000E+00 -0.00000000000E+00 -0.17051034994E+03  0.17051034994E+03  0.00000000000E+00 0.  1.
         -6    2    1    2    0  503  0.88752702346E+02 -0.19184437192E+03  0.85915527357E+02  0.28638688310E+03  0.17307415683E+03 0.  0.
        -24    2    3    3    0    0  0.10970698566E+03 -0.10302292404E+03  0.93338189412E+02  0.19470527370E+03  0.80924535344E+02 0.  0.
          6    2    1    2  501    0 -0.88752702346E+02  0.19184437192E+03  0.19328984618E+03  0.33383919031E+03  0.17148275465E+03 0.  0.
         24    2    5    5    0    0  0.12944941919E+02  0.13095412692E+03  0.10591718826E+03  0.18650927435E+03  0.79061392429E+02 0.  0.
          5    1    5    5  501    0 -0.10169764426E+03  0.60890244999E+02  0.87372657921E+02  0.14732991596E+03  0.47000000000E+01 0. -1.
        -13    1    6    6    0    0  0.34765702696E+02  0.65106170219E+02  0.88018077433E+02  0.11486796525E+03  0.00000000000E+00 0.  1.
         14    1    6    6    0    0 -0.21820760777E+02  0.65847956699E+02  0.17899110826E+02  0.71641309108E+02  0.00000000000E+00 0. -1.
         -5    1    3    3    0  503 -0.20954283315E+02 -0.88821447873E+02 -0.74226620547E+01  0.91681609407E+02  0.47000000000E+01 0.  1.
         13    1    4    4    0    0  0.10419234282E+02 -0.58368813155E+02  0.16799393773E+02  0.61625468950E+02  0.00000000000E+00 0. -1.
        -14    1    4    4    0    0  0.99287751379E+02 -0.44654110889E+02  0.76538795639E+02  0.13307980475E+03  0.00000000000E+00 0.  1.
</event>
<event>
12    1  0.8462562E-002  0.1861261E+03  0.7818608E-02  0.1162341E+00
         21   -1    0    0  501  502  0.00000000000E+00  0.00000000000E+00  0.66746500130E+02  0.66746500130E+02  0.00000000000E+00 0.  1.
         21   -1    0    0  502  503 -0.00000000000E+00 -0.00000000000E+00 -0.93364164062E+03  0.93364164062E+03  0.00000000000E+00 0.  1.
         -6    2    1    2    0  503  0.74198976223E+02  0.30715556526E+02 -0.76933992661E+03  0.79153448595E+03  0.16791064974E+03 0.  0.
        -24    2    3    3    0    0 -0.30239722273E+01  0.37329333857E+02 -0.21730044559E+03  0.23406089517E+03  0.78500926236E+02 0.  0.
          6    2    1    2  501    0 -0.74198976223E+02 -0.30715556526E+02 -0.97555213884E+02  0.20885365480E+03  0.16629460569E+03 0.  0.
         24    2    5    5    0    0 -0.17483762868E+02  0.26972170270E+02 -0.96054542715E+02  0.12780532809E+03  0.77939378866E+02 0.  0.
          5    1    5    5  501    0 -0.56715213355E+02 -0.57687726796E+02 -0.15006711693E+01  0.81048326712E+02  0.47000000000E+01 0. -1.
        -11    1    6    6    0    0 -0.76616832754E+01 -0.27699927063E+02 -0.31441305425E+02  0.42597453407E+02  0.00000000000E+00 0.  1.
         12    1    6    6    0    0 -0.98220795928E+01  0.54672097333E+02 -0.64613237290E+02  0.85207874680E+02  0.00000000000E+00 0. -1.
         -5    1    3    3    0  503  0.77222948451E+02 -0.66137773317E+01 -0.55203948102E+03  0.55747359078E+03  0.47000000000E+01 0.  1.
         13    1    4    4    0    0  0.28480401949E+02 -0.90162184039E+01 -0.58959545089E+02  0.66095789930E+02  0.00000000000E+00 0. -1.
        -14    1    4    4    0    0 -0.31504374176E+02  0.46345552261E+02 -0.15834090050E+03  0.16796510524E+03  0.00000000000E+00 0.  1.
</event>
<event>
12    1  0.8462562E-002  0.1931402E+03  0.7818608E-02  0.1160466E+00
         21   -1    0    0  503  502  0.00000000000E+00  0.00000000000E+00  0.24184152752E+03  0.24184152752E+03  0.00000000000E+00 0.  1.
         21   -1    0    0  501  503 -0.00000000000E+00 -0.00000000000E+00 -0.48528573908E+03  0.48528573908E+03  0.00000000000E+00 0.  1.
          6    2    1    2  501    0  0.44396971375E+01  0.18361057598E+02 -0.42706272884E+03  0.46063358033E+03  0.17159219568E+03 0.  0.
         24    2    3    3    0    0  0.54889687466E+02  0.46594411314E+02 -0.30450983207E+03  0.32504734839E+03  0.88009226276E+02 0.  0.
         -6    2    1    2    0  502 -0.44396971375E+01 -0.18361057598E+02  0.18361851728E+03  0.26649368627E+03  0.19221416593E+03 0.  0.
        -24    2    5    5    0    0  0.38097865848E+02 -0.75196575990E+02  0.83999593824E+02  0.14407742784E+03  0.81218230884E+02 0.  0.
          5    1    3    3  501    0 -0.50449990329E+02 -0.28233353716E+02 -0.12255289677E+03  0.13558623194E+03  0.47000000000E+01 0. -1.
        -13    1    4    4    0    0 -0.13967679744E+01  0.28549695018E+02 -0.22039768608E+03  0.22224350626E+03  0.00000000000E+00 0.  1.
         14    1    4    4    0    0  0.56286455441E+02  0.18044716295E+02 -0.84112145988E+02  0.10280384212E+03  0.00000000000E+00 0. -1.
         -5    1    5    5    0  502 -0.42537562985E+02  0.56835518392E+02  0.99618923460E+02  0.12241625843E+03  0.47000000000E+01 0.  1.
         11    1    6    6    0    0 -0.50922073745E+01 -0.44563921564E+02  0.85665625179E-01  0.44853996698E+02  0.00000000000E+00 0. -1.
        -12    1    6    6    0    0  0.43190073222E+02 -0.30632654425E+02  0.83913928199E+02  0.99223431144E+02  0.00000000000E+00 0.  1.
</event>
<event>
12    1  0.8462562E-002  0.2397443E+03  0.7818608E-02  0.1120034E+00
         21   -1    0    0  501  502  0.00000000000E+00  0.00000000000E+00  0.30878408549E+02  0.30878408549E+02  0.00000000000E+00 0.  1.
         21   -1    0    0  502  503 -0.00000000000E+00 -0.00000000000E+00 -0.20339270246E+04  0.20339270246E+04  0.00000000000E+00 0.  1.
         -6    2    1    2    0  503  0.15167816705E+03 -0.68585438542E+02 -0.13042324319E+04  0.13260081856E+04  0.17194546539E+03 0.  0.
        -24    2    3    3    0    0  0.39210066611E+02 -0.28522951770E+02 -0.28062402835E+03  0.29544992412E+03  0.78675436252E+02 0.  0.
          6    2    1    2  501    0 -0.15167816705E+03  0.68585438542E+02 -0.69881618415E+03  0.73879724756E+03  0.17253140306E+03 0.  0.
         24    2    5    5    0    0 -0.88009258163E+02  0.64917030414E+02 -0.63166213388E+03  0.64606675827E+03  0.80282964576E+02 0.  0.
          5    1    5    5  501    0 -0.63668908891E+02  0.36684081278E+01 -0.67154050261E+02  0.92730489291E+02  0.47000000000E+01 0. -1.
        -13    1    6    6    0    0 -0.61799249286E+02  0.69207089586E+02 -0.31737454069E+03  0.33065898980E+03  0.00000000000E+00 0.  1.
         14    1    6    6    0    0 -0.26210008876E+02 -0.42900591722E+01 -0.31428759320E+03  0.31540776847E+03  0.00000000000E+00 0. -1.
         -5    1    3    3    0  503  0.11246810044E+03 -0.40062486772E+02 -0.10236084036E+04  0.10305582615E+04  0.47000000000E+01 0.  1.
         13    1    4    4    0    0  0.31776536141E+02 -0.48907461187E-01 -0.32024047114E+02  0.45114191055E+02  0.00000000000E+00 0. -1.
        -14    1    4    4    0    0  0.74335304707E+01 -0.28474044309E+02 -0.24859998124E+03  0.25033573306E+03  0.00000000000E+00 0.  1.
</event>
<event>
12    1  0.8462562E-002  0.2222466E+03  0.7818608E-02  0.1132358E+00
         21   -1    0    0  503  502  0.00000000000E+00  0.00000000000E+00  0.38517615697E+03  0.38517615697E+03  0.00000000000E+00 0.  1.
         21   -1    0    0  501  503 -0.00000000000E+00 -0.00000000000E+00 -0.15284954899E+03  0.15284954899E+03  0.00000000000E+00 0.  1.
          6    2    1    2  501    0 -0.12044032743E+03  0.72027314536E+02  0.70971357604E+01  0.22160533643E+03  0.17136145800E+03 0.  0.
         24    2    3    3    0    0 -0.22864740546E+02 -0.21887320609E+02 -0.66596726834E+01  0.85398531800E+02  0.79036110922E+02 0.  0.
         -6    2    1    2    0  502  0.12044032743E+03 -0.72027314536E+02  0.22522947223E+03  0.31642036953E+03  0.17233609193E+03 0.  0.
        -24    2    5    5    0    0  0.92507587015E+02 -0.26797654458E+02  0.23086981991E+03  0.26275600836E+03  0.80399491558E+02 0.  0.
          5    1    3    3  501    0 -0.97575586879E+02  0.93914635145E+02  0.13756808444E+02  0.13620680463E+03  0.47000000000E+01 0. -1.
        -11    1    4    4    0    0 -0.39968455844E+02 -0.23349015859E+02 -0.30929661697E+02  0.55671338917E+02  0.00000000000E+00 0.  1.
         12    1    4    4    0    0  0.17103715297E+02  0.14616952498E+01  0.24269989014E+02  0.29727192883E+02  0.00000000000E+00 0. -1.
         -5    1    5    5    0  502  0.27932740410E+02 -0.45229660078E+02 -0.56403476853E+01  0.53664361169E+02  0.47000000000E+01 0.  1.
         11    1    6    6    0    0  0.79537778763E+01  0.22528256630E+02  0.23844951195E+02  0.33754505281E+02  0.00000000000E+00 0. -1.
        -12    1    6    6    0    0  0.84553809139E+02 -0.49325911088E+02  0.20702486872E+03  0.22900150308E+03  0.00000000000E+00 0.  1.
</event>
<event>
12    1  0.8462562E-002  0.1872115E+03  0.7818608E-02  0.1161650E+00
         21   -1    0    0  503  502  0.00000000000E+00  0.00000000000E+00  0.61036108231E+03  0.61036108231E+03  0.00000000000E+00 0.  1.
         21   -1    0    0  501  503 -0.00000000000E+00 -0.00000000000E+00 -0.56573082857E+02  0.56573082857E+02  0.00000000000E+00 0.  1.
          6    2    1    2  501    0  0.67836025670E+02 -0.27288357074E+02  0.27517041734E+03  0.33281660265E+03  0.17234196125E+03 0.  0.
         24    2    3    3    0    0  0.99721276518E+02  0.10044251346E+02  0.14302208273E+03  0.19176460793E+03  0.79203085368E+02 0.  0.
         -6    2    1    2    0  502 -0.67836025670E+02  0.27288357074E+02  0.27861758212E+03  0.33411756252E+03  0.16929385018E+03 0.  0.
        -24    2    5    5    0    0 -0.65388195791E+01 -0.40591370380E+02  0.16422688831E+03  0.18758317849E+03  0.80787143147E+02 0.  0.
          5    1    3    3  501    0 -0.31885250848E+02 -0.37332608420E+02  0.13214833461E+03  0.14105199472E+03  0.47000000000E+01 0. -1.
        -13    1    4    4    0    0  0.97720507458E+02  0.29190273576E+02  0.13848511812E+03  0.17198691110E+03  0.00000000000E+00 0.  1.
         14    1    4    4    0    0  0.20007690599E+01 -0.19146022230E+02  0.45369646072E+01  0.19777696830E+02  0.00000000000E+00 0. -1.
         -5    1    5    5    0  502 -0.61297206091E+02  0.67879727454E+02  0.11439069381E+03  0.14653438403E+03  0.47000000000E+01 0.  1.
         11    1    6    6    0    0  0.24176226639E+02 -0.38841926487E+02  0.43975940944E+02  0.63459188221E+02  0.00000000000E+00 0. -1.
        -12    1    6    6    0    0 -0.30715046218E+02 -0.17494438930E+01  0.12025094736E+03  0.12412399027E+03  0.00000000000E+00 0.  1.
</event>
<event>
12    1  0.8462562E-002  0.1892357E+03  0.7818608E-02  0.1159238E+00
         21   -1    0    0  503  502  0.00000000000E+00  0.00000000000E+00  0.24209165771E+03  0.24209165771E+03  0.00000000000E+00 0. -1.
         21   -1    0    0  501  503 -0.00000000000E+00 -0.00000000000E+00 -0.17300410104E+03  0.17300410104E+03  0.00000000000E+00 0. -1.
          6    2    1    2  501    0  0.14070661411E+02 -0.76430641017E+02 -0.44976049513E+02  0.19414180105E+03  0.17212950789E+03 0.  0.
         24    2    3    3    0    0  0.65343270394E+02 -0.88374144083E+02 -0.24829285308E+02  0.13757759147E+03  0.78939014044E+02 0.  0.
         -6    2    1    2    0  502 -0.14070661411E+02  0.76430641017E+02  0.11406360618E+03  0.22095395770E+03  0.17254135379E+03 0.  0.
        -24    2    5    5    0    0  0.94244716799E+01 -0.25167714588E+02  0.39888720732E+02  0.92898302716E+02  0.79477984888E+02 0.  0.
          5    1    3    3  501    0 -0.51272608982E+02  0.11943503066E+02 -0.20146764205E+02  0.56564209579E+02  0.47000000000E+01 0. -1.
        -11    1    4    4    0    0  0.13867627265E+02 -0.82027892318E+02 -0.11126532734E+02  0.83932627356E+02  0.00000000000E+00 0.  1.
         12    1    4    4    0    0  0.51475643129E+02 -0.63462517650E+01 -0.13702752573E+02  0.53644964117E+02  0.00000000000E+00 0. -1.
         -5    1    5    5    0  502 -0.23495133091E+02  0.10159835561E+03  0.74174885451E+02  0.12805565498E+03  0.47000000000E+01 0.  1.
         13    1    6    6    0    0  0.24588493406E+02 -0.16893306617E+01 -0.16708353062E+02  0.29776113046E+02  0.00000000000E+00 0. -1.
        -14    1    6    6    0    0 -0.15164021726E+02 -0.23478383927E+02  0.56597073794E+02  0.63122189671E+02  0.00000000000E+00 0.  1.
</event>
<event>
12    1  0.8462562E-002  0.2431558E+03  0.7818608E-02  0.1118096E+00
         21   -1    0    0  503  502  0.00000000000E+00  0.00000000000E+00  0.28776812147E+03  0.28776812147E+03  0.00000000000E+00 0. -1.
         21   -1    0    0  501  503 -0.00000000000E+00 -0.00000000000E+00 -0.21010985628E+03  0.21010985628E+03  0.00000000000E+00 0.  1.
          6    2    1    2  501    0  0.32387154538E+02 -0.16800431229E+03  0.83244457142E+02  0.25701045492E+03  0.17277256023E+03 0.  0.
         24    2    3    3    0    0  0.85773231972E+02 -0.10968442243E+03  0.37446042579E+02  0.16551800937E+03  0.81279059257E+02 0.  0.
         -6    2    1    2    0  502 -0.32387154538E+02  0.16800431229E+03 -0.55861919519E+01  0.24086752282E+03  0.16944492108E+03 0.  0.
        -24    2    5    5    0    0  0.11167749515E+02  0.14232253924E+03 -0.52728748516E+02  0.17157759734E+03  0.79234633731E+02 0.  0.
          5    1    3    3  501    0 -0.53386077434E+02 -0.58319889861E+02  0.45798414563E+02  0.91492445555E+02  0.47000000000E+01 0. -1.
        -11    1    4    4    0    0  0.24158808278E+02 -0.72807936899E+02 -0.12942556179E+02  0.77795587621E+02  0.00000000000E+00 0.  1.
         12    1    4    4    0    0  0.61614423695E+02 -0.36876485529E+02  0.50388598758E+02  0.87722421746E+02  0.00000000000E+00 0. -1.
         -5    1    5    5    0  502 -0.43554904053E+02  0.25681773049E+02  0.47142556564E+02  0.69289925483E+02  0.47000000000E+01 0.  1.
         11    1    6    6    0    0  0.85946177168E+01  0.19482236021E+02  0.19651395515E+02  0.28975892044E+02  0.00000000000E+00 0. -1.
        -12    1    6    6    0    0  0.25731317980E+01  0.12284030322E+03 -0.72380144031E+02  0.14260170529E+03  0.00000000000E+00 0.  1.
</event>
<event>
12    1  0.8462562E-002  0.1719046E+03  0.7818608E-02  0.1176165E+00
         21   -1    0    0  503  502  0.00000000000E+00  0.00000000000E+00  0.75902388411E+02  0.75902388411E+02  0.00000000000E+00 0.  1.
         21   -1    0    0  501  503 -0.00000000000E+00 -0.00000000000E+00 -0.62474691002E+03  0.62474691002E+03  0.00000000000E+00 0.  1.
          6    2    1    2  501    0 -0.27318230994E+01  0.12670288679E+02 -0.49117760203E+03  0.52039083663E+03  0.17141524739E+03 0.  0.
         24    2    3    3    0    0  0.39012762095E+02  0.38035837565E+02 -0.43570277924E+03  0.44632622006E+03  0.80009139070E+02 0.  0.
         -6    2    1    2    0  502  0.27318230994E+01 -0.12670288679E+02 -0.57666919572E+02  0.18025846180E+03  0.17029280773E+03 0.  0.
        -24    2    5    5    0    0  0.42358319968E+02 -0.58843670920E+02 -0.46687598265E+02  0.11825139786E+03  0.80912646639E+02 0.  0.
          5    1    3    3  501    0 -0.41744585194E+02 -0.25365548886E+02 -0.55474822793E+02  0.74064616567E+02  0.47000000000E+01 0. -1.
        -11    1    4    4    0    0  0.59509889074E+02  0.12685543091E+02 -0.33490968381E+03  0.34039219470E+03  0.00000000000E+00 0.  1.
         12    1    4    4    0    0 -0.20497126979E+02  0.25350294474E+02 -0.10079309543E+03  0.10593402537E+03  0.00000000000E+00 0. -1.
         -5    1    5    5    0  502 -0.39626496869E+02  0.46173382240E+02 -0.10979321307E+02  0.62007063936E+02  0.47000000000E+01 0.  1.
         13    1    6    6    0    0 -0.22660826756E+02 -0.95005822993E+01 -0.73576535234E+00  0.24582829047E+02  0.00000000000E+00 0. -1.
        -14    1    6    6    0    0  0.65019146724E+02 -0.49343088620E+02 -0.45951832913E+02  0.93668568813E+02  0.00000000000E+00 0.  1.
</event>
<event>
12    1  0.8462562E-002  0.2827014E+03  0.7818608E-02  0.1094304E+00
         21   -1    0    0  503  502  0.00000000000E+00  0.00000000000E+00  0.45603317388E+03  0.45603317388E+03  0.00000000000E+00 0. -1.
         21   -1    0    0  501  503 -0.00000000000E+00 -0.00000000000E+00 -0.27955070841E+03  0.27955070841E+03  0.00000000000E+00 0. -1.
          6    2    1    2  501    0  0.11757903915E+03  0.19120099168E+03 -0.13675626413E+03  0.31404196409E+03  0.17186456810E+03 0.  0.
         24    2    3    3    0    0  0.69940827499E+02  0.26362098881E+02 -0.34518602774E+02  0.11425235179E+03  0.79217336123E+02 0.  0.
         -6    2    1    2    0  502 -0.11757903915E+03 -0.19120099168E+03  0.31323872959E+03  0.42154191820E+03  0.17086965036E+03 0.  0.
        -24    2    5    5    0    0 -0.12026067779E+03 -0.11073321720E+03  0.13695721351E+03  0.22768754804E+03  0.79748762916E+02 0.  0.
          5    1    3    3  501    0  0.47638211648E+02  0.16483889280E+03 -0.10223766135E+03  0.19978961231E+03  0.47000000000E+01 0. -1.
        -13    1    4    4    0    0  0.47603795576E+02  0.20302348984E+02 -0.60395217351E+02  0.79535457542E+02  0.00000000000E+00 0.  1.
         14    1    4    4    0    0  0.22337031923E+02  0.60597498964E+01  0.25876614577E+02  0.34716894244E+02  0.00000000000E+00 0. -1.
         -5    1    5    5    0  502  0.26816386434E+01 -0.80467774480E+02  0.17628151609E+03  0.19385437016E+03  0.47000000000E+01 0.  1.
         11    1    6    6    0    0 -0.74942086149E+02 -0.11403048754E+03  0.10260095629E+03  0.17072265403E+03  0.00000000000E+00 0. -1.
        -12    1    6    6    0    0 -0.45318591641E+02  0.32972703444E+01  0.34356257217E+02  0.56964894014E+02  0.00000000000E+00 0.  1.
</event>
<event>
12    1  0.8462562E-002  0.2359586E+03  0.7818608E-02  0.1122777E+00
         21   -1    0    0  503  502  0.00000000000E+00  0.00000000000E+00  0.41961137404E+03  0.41961137404E+03  0.00000000000E+00 0. -1.
         21   -1    0    0  501  503 -0.00000000000E+00 -0.00000000000E+00 -0.44046286249E+03  0.44046286249E+03  0.00000000000E+00 0.  1.
          6    2    1    2  501    0 -0.15150361001E+03  0.48900716408E+02 -0.37041368945E+03  0.43918422133E+03  0.17416042897E+03 0.  0.
         24    2    3    3    0    0 -0.47122337610E+02  0.78118304695E+02 -0.26377261343E+03  0.28705425522E+03  0.67090756548E+02 0.  0.
         -6    2    1    2    0  502  0.15150361001E+03 -0.48900716408E+02  0.34956220100E+03  0.42089001520E+03  0.17207570605E+03 0.  0.
        -24    2    5    5    0    0  0.10694697249E+03  0.17739587539E+02  0.28787510000E+03  0.31962989231E+03  0.86826533768E+02 0.  0.
          5    1    3    3  501    0 -0.10438127240E+03 -0.29217588287E+02 -0.10664107602E+03  0.15212996611E+03  0.47000000000E+01 0. -1.
        -13    1    4    4    0    0 -0.21260238708E+02  0.22501792869E+02 -0.18317450763E+03  0.18577198034E+03  0.00000000000E+00 0.  1.
         14    1    4    4    0    0 -0.25862098902E+02  0.55616511827E+02 -0.80598105801E+02  0.10128227489E+03  0.00000000000E+00 0. -1.
         -5    1    5    5    0  502  0.44556637517E+02 -0.66640303948E+02  0.61687100998E+02  0.10126012288E+03  0.47000000000E+01 0.  1.
         13    1    6    6    0    0  0.87563438949E+02 -0.23375015895E+01  0.27552171652E+03  0.28911076775E+03  0.00000000000E+00 0. -1.
        -14    1    6    6    0    0  0.19383533545E+02  0.20077089129E+02  0.12353383481E+02  0.30519124562E+02  0.00000000000E+00 0.  1.
</event>
<event>
12    1  0.8462562E-002  0.2087680E+03  0.7818608E-02  0.1143111E+00
         21   -1    0    0  501  502  0.00000000000E+00  0.00000000000E+00  0.10293645917E+04  0.10293645917E+04  0.00000000000E+00 0. -1.
         21   -1    0    0  502  503 -0.00000000000E+00 -0.00000000000E+00 -0.43565576554E+02  0.43565576554E+02  0.00000000000E+00 0. -1.
         -6    2    1    2    0  503 -0.84259326921E+02  0.69116440416E+02  0.38724922772E+03  0.43993869172E+03  0.17806563842E+03 0.  0.
        -24    2    3    3    0    0 -0.57556122604E+02  0.11158196591E+03  0.33718565545E+03  0.36891170216E+03  0.81476594090E+02 0.  0.
          6    2    1    2  501    0  0.84259326921E+02 -0.69116440416E+02  0.59854978740E+03  0.63299147651E+03  0.17475595794E+03 0.  0.
         24    2    5    5    0    0  0.22284936075E+02  0.76284332773E+01  0.13550272279E+03  0.15953052269E+03  0.80834326958E+02 0.  0.
          5    1    5    5  501    0  0.61974390845E+02 -0.76744873693E+02  0.46304706460E+03  0.47346095383E+03  0.47000000000E+01 0. -1.
        -11    1    6    6    0    0  0.24907971971E+02 -0.26695872623E+02  0.26210757326E+02  0.44945305455E+02  0.00000000000E+00 0.  1.
         12    1    6    6    0    0 -0.26230358962E+01  0.34324305900E+02  0.10929196547E+03  0.11458521723E+03  0.00000000000E+00 0. -1.
         -5    1    3    3    0  503 -0.26703204317E+02 -0.42465525494E+02  0.50063572275E+02  0.71026989555E+02  0.47000000000E+01 0.  1.
         13    1    4    4    0    0 -0.62076817997E+02  0.36123393075E+02  0.19630237699E+03  0.20902883550E+03  0.00000000000E+00 0. -1.
        -14    1    4    4    0    0  0.45206953926E+01  0.75458572835E+02  0.14088327846E+03  0.15988286666E+03  0.00000000000E+00 0.  1.
</event>
<event>
12    1  0.8462562E-002  0.2270120E+03  0.7818608E-02  0.1128938E+00
         21   -1    0    0  501  502  0.00000000000E+00  0.00000000000E+00  0.51298726267E+03  0.51298726267E+03  0.00000000000E+00 0. -1.
         21   -1    0    0  502  503 -0.00000000000E+00 -0.00000000000E+00 -0.11797365008E+03  0.11797365008E+03  0.00000000000E+00 0.  1.
         -6    2    1    2    0  503 -0.13093146018E+03  0.68023137777E+02  0.74080425853E+02  0.23785462389E+03  0.17122125473E+03 0.  0.
        -24    2    3    3    0    0 -0.51295215525E+02  0.39639004870E+02  0.10583209058E+03  0.14742316545E+03  0.79565749362E+02 0.  0.
          6    2    1    2  501    0  0.13093146018E+03 -0.68023137777E+02  0.32093318674E+03  0.39310628885E+03  0.17252318525E+03 0.  0.
         24    2    5    5    0    0  0.14267044786E+03 -0.61727872224E+02  0.17908862534E+03  0.25056014265E+03  0.80885489783E+02 0.  0.
          5    1    5    5  501    0 -0.11738987676E+02 -0.62952655530E+01  0.14184456139E+03  0.14254614620E+03  0.47000000000E+01 0. -1.
        -13    1    6    6    0    0  0.85798204656E+02 -0.63614795597E+02  0.70538670623E+02  0.12799952420E+03  0.00000000000E+00 0.  1.
         14    1    6    6    0    0  0.56872243199E+02  0.18869233731E+01  0.10854995472E+03  0.12256061845E+03  0.00000000000E+00 0. -1.
         -5    1    3    3    0  503 -0.79636244654E+02  0.28384132907E+02 -0.31751664723E+02  0.90431458443E+02  0.47000000000E+01 0.  1.
         11    1    4    4    0    0  0.71096293179E+01  0.28062710168E+02  0.36758565323E+01  0.29181748615E+02  0.00000000000E+00 0. -1.
        -12    1    4    4    0    0 -0.58404844843E+02  0.11576294703E+02  0.10215623404E+03  0.11824141683E+03  0.00000000000E+00 0.  1.
</event>
<event>
12    1  0.8462562E-002  0.2612490E+03  0.7818608E-02  0.1106445E+00
         21   -1    0    0  503  502  0.00000000000E+00  0.00000000000E+00  0.57799835288E+03  0.57799835288E+03  0.00000000000E+00 0. -1.
         21   -1    0    0  501  503 -0.00000000000E+00 -0.00000000000E+00 -0.37450905997E+03  0.37450905997E+03  0.00000000000E+00 0. -1.
          6    2    1    2  501    0 -0.70813170767E+02 -0.18308700464E+03 -0.29243544320E+03  0.39213460200E+03  0.17238242725E+03 0.  0.
         24    2    3    3    0    0 -0.44228826588E+02 -0.98183022433E+02 -0.26847805036E+03  0.29987702658E+03  0.79054870505E+02 0.  0.
         -6    2    1    2    0  502  0.70813170767E+02  0.18308700464E+03  0.49592473610E+03  0.56037281086E+03  0.17187491630E+03 0.  0.
        -24    2    5    5    0    0 -0.18871053428E+01  0.15934186583E+03  0.28255703994E+03  0.33366368989E+03  0.78099844816E+02 0.  0.
          5    1    3    3  501    0 -0.26584344179E+02 -0.84903982204E+02 -0.23957392833E+02  0.92257575412E+02  0.47000000000E+01 0. -1.
        -13    1    4    4    0    0 -0.27532332171E+02 -0.51765094981E+02 -0.53700056508E+02  0.79506920718E+02  0.00000000000E+00 0.  1.
         14    1    4    4    0    0 -0.16696494417E+02 -0.46417927452E+02 -0.21477799385E+03  0.22037010587E+03  0.00000000000E+00 0. -1.
         -5    1    5    5    0  502  0.72700276110E+02  0.23745138802E+02  0.21336769616E+03  0.22670912096E+03  0.47000000000E+01 0.  1.
         13    1    6    6    0    0  0.29383516289E+02  0.12173897674E+03  0.22990946674E+03  0.26180552397E+03  0.00000000000E+00 0. -1.
        -14    1    6    6    0    0 -0.31270621632E+02  0.37602889097E+02  0.52647573202E+02  0.71858165922E+02  0.00000000000E+00 0.  1.
</event>
<event>
12    1  0.8462562E-002  0.1818730E+03  0.7818608E-02  0.1166256E+00
         21   -1    0    0  503  502  0.00000000000E+00  0.00000000000E+00  0.96121284101E+02  0.96121284101E+02  0.00000000000E+00 0. -1.
         21   -1    0    0  501  503 -0.00000000000E+00 -0.00000000000E+00 -0.35569709034E+03  0.35569709034E+03  0.00000000000E+00 0.  1.
          6    2    1    2  501    0 -0.51384083779E+02  0.27216682947E+02 -0.85298040713E+02  0.19992450161E+03  0.17121033467E+03 0.  0.
         24    2    3    3    0    0  0.32484356976E+02  0.27978555889E+02 -0.19296471709E+02  0.93093827571E+02  0.80349697408E+02 0.  0.
         -6    2    1    2    0  502  0.51384083779E+02 -0.27216682947E+02 -0.17427776552E+03  0.25189387283E+03  0.17232733885E+03 0.  0.
        -24    2    5    5    0    0  0.50644297317E+02 -0.39605308535E+02 -0.29736281388E+02  0.10674444650E+03  0.79854274226E+02 0.  0.
          5    1    3    3  501    0 -0.83868440755E+02 -0.76187294276E+00 -0.66001569004E+02  0.10683067404E+03  0.47000000000E+01 0. -1.
        -13    1    4    4    0    0 -0.13307631533E+02 -0.15031503959E+02 -0.22543178024E+02  0.30186653404E+02  0.00000000000E+00 0.  1.
         14    1    4    4    0    0  0.45791988509E+02  0.43010059849E+02  0.32467063148E+01  0.62907174167E+02  0.00000000000E+00 0. -1.
         -5    1    5    5    0  502  0.73978646195E+00  0.12388625588E+02 -0.14454148414E+03  0.14514942633E+03  0.47000000000E+01 0.  1.
         11    1    6    6    0    0  0.32783670236E+02 -0.52312042885E+02 -0.48010200531E+02  0.78206765819E+02  0.00000000000E+00 0. -1.
        -12    1    6    6    0    0  0.17860627081E+02  0.12706734350E+02  0.18273919143E+02  0.28537680677E+02  0.00000000000E+00 0.  1.
</event>
<event>
12    1  0.8462562E-002  0.1835042E+03  0.7818608E-02  0.1164539E+00
         21   -1    0    0  503  502  0.00000000000E+00  0.00000000000E+00  0.14914552128E+04  0.14914552128E+04  0.00000000000E+00 0. -1.
         21   -1    0    0  501  503 -0.00000000000E+00 -0.00000000000E+00 -0.36479043246E+02  0.36479043246E+02  0.00000000000E+00 0. -1.
          6    2    1    2  501    0  0.59629366437E+02 -0.21564775740E+02  0.25469847327E+03  0.31371008379E+03  0.17181968306E+03 0.  0.
         24    2    3    3    0    0  0.44471958233E+02 -0.80351648398E+02  0.14790002301E+03  0.19077252891E+03  0.78010246195E+02 0.  0.
         -6    2    1    2    0  502 -0.59629366437E+02  0.21564775740E+02  0.12002776963E+04  0.12142241723E+04  0.17220073000E+03 0.  0.
        -24    2    5    5    0    0 -0.64185343000E+02 -0.17181144831E+02  0.40852849085E+03  0.42150045141E+03  0.79700393441E+02 0.  0.
          5    1    3    3  501    0  0.15157408205E+02  0.58786872659E+02  0.10679845026E+03  0.12293755488E+03  0.47000000000E+01 0. -1.
        -13    1    4    4    0    0  0.63219799340E+02 -0.38564955616E+02  0.10077257936E+03  0.12505643359E+03  0.00000000000E+00 0.  1.
         14    1    4    4    0    0 -0.18747841107E+02 -0.41786692783E+02  0.47127443647E+02  0.65716095324E+02  0.00000000000E+00 0. -1.
         -5    1    5    5    0  502  0.45559765628E+01  0.38745920571E+02  0.79174920547E+03  0.79272372088E+03  0.47000000000E+01 0.  1.
         11    1    6    6    0    0 -0.80257706481E+02 -0.26812578030E+02  0.34788947606E+03  0.35803254230E+03  0.00000000000E+00 0. -1.
        -12    1    6    6    0    0  0.16072363481E+02  0.96314331995E+01  0.60639014787E+02  0.63467909117E+02  0.00000000000E+00 0.  1.
</event>
<event>
12    1  0.8462562E-002  0.1854542E+03  0.7818608E-02  0.1162642E+00
         21   -1    0    0  501  502  0.00000000000E+00  0.00000000000E+00  0.26145087152E+03  0.26145087152E+03  0.00000000000E+00 0.  1.
         21   -1    0    0  502  503 -0.00000000000E+00 -0.00000000000E+00 -0.19903763799E+03  0.19903763799E+03  0.00000000000E+00 0. -1.
         -6    2    1    2    0  503  0.46230273232E+02 -0.51756649003E+02 -0.10291797408E+03  0.21203798962E+03  0.17190698291E+03 0.  0.
        -24    2    3    3    0    0 -0.67416621806E+00 -0.11243086922E+02 -0.12281309246E+03  0.14677482322E+03  0.79579718206E+02 0.  0.
          6    2    1    2  501    0 -0.46230273232E+02  0.51756649003E+02  0.16533120761E+03  0.24845051990E+03  0.17198041676E+03 0.  0.
         24    2    5    5    0    0 -0.31434292154E+02  0.88737608795E+02  0.16792036479E+03  0.20825964807E+03  0.79450325149E+02 0.  0.
          5    1    5    5  501    0 -0.14795981078E+02 -0.36980959792E+02 -0.25891571761E+01  0.40190871825E+02  0.47000000000E+01 0. -1.
        -13    1    6    6    0    0 -0.35686321483E+02  0.12280226058E+02  0.96217623927E+02  0.10335448054E+03  0.00000000000E+00 0.  1.
         14    1    6    6    0    0  0.42520293285E+01  0.76457382737E+02  0.71702740863E+02  0.10490516754E+03  0.00000000000E+00 0. -1.
         -5    1    3    3    0  503  0.46904439450E+02 -0.40513562081E+02  0.19895118377E+02  0.65263166394E+02  0.47000000000E+01 0.  1.
         11    1    4    4    0    0 -0.39161159543E+02 -0.75414440202E+01 -0.77873623174E+02  0.87491548054E+02  0.00000000000E+00 0. -1.
        -12    1    4    4    0    0  0.38486993325E+02 -0.37016429020E+01 -0.44939469283E+02  0.59283275169E+02  0.00000000000E+00 0.  1.
</event>
<event>
12    1  0.8462562E-002  0.2037621E+03  0.7818608E-02  0.1146781E+00
         21   -1    0    0  501  502  0.00000000000E+00  0.00000000000E+00  0.11570202473E+03  0.11570202473E+03  0.00000000000E+00 0.  1.
         21   -1    0    0  502  503 -0.00000000000E+00 -0.00000000000E+00 -0.10384047980E+04  0.10384047980E+04  0.00000000000E+00 0. -1.
         -6    2    1    2    0  503 -0.74282862512E+02  0.78202013585E+02 -0.92835239871E+03  0.95026645280E+03  0.17185649987E+03 0.  0.
        -24    2    3    3    0    0 -0.25036994861E+02  0.11129220791E+03 -0.59325262390E+03  0.60992241287E+03  0.83927750507E+02 0.  0.
          6    2    1    2  501    0  0.74282862512E+02 -0.78202013585E+02  0.56496254763E+01  0.20384036989E+03  0.17287417256E+03 0.  0.
         24    2    5    5    0    0  0.57514156014E+02 -0.83215743785E+02 -0.56092635835E+02  0.13949346756E+03  0.77969901500E+02 0.  0.
          5    1    5    5  501    0  0.16768706498E+02  0.50137302008E+01  0.61742261311E+02  0.64346902334E+02  0.47000000000E+01 0. -1.
        -11    1    6    6    0    0  0.55282479875E+02 -0.51329850663E+02 -0.58489089663E+00  0.75440362191E+02  0.00000000000E+00 0.  1.
         12    1    6    6    0    0  0.22316761391E+01 -0.31885893123E+02 -0.55507744938E+02  0.64053105364E+02  0.00000000000E+00 0. -1.
         -5    1    3    3    0  503 -0.49245867651E+02 -0.33090194326E+02 -0.33509977481E+03  0.34034403994E+03  0.47000000000E+01 0.  1.
         13    1    4    4    0    0 -0.27777928095E+02 -0.22387154862E+01 -0.12993510553E+03  0.13289001762E+03  0.00000000000E+00 0. -1.
        -14    1    4    4    0    0  0.27409332331E+01  0.11353092340E+03 -0.46331751837E+03  0.47703239524E+03  0.00000000000E+00 0.  1.
</event>
<event>
12    1  0.8462562E-002  0.2177702E+03  0.7818608E-02  0.1136044E+00
         21   -1    0    0  501  502  0.00000000000E+00  0.00000000000E+00  0.12150810817E+03  0.12150810817E+03  0.00000000000E+00 0. -1.
         21   -1    0    0  502  503 -0.00000000000E+00 -0.00000000000E+00 -0.39428992960E+03  0.39428992960E+03  0.00000000000E+00 0. -1.
         -6    2    1    2    0  503 -0.11998692006E+03 -0.58627284735E+02 -0.17522102087E+03  0.27951078988E+03  0.17201702243E+03 0.  0.
        -24    2    3    3    0    0 -0.12330081137E+02 -0.87983900165E+01 -0.13178608847E+03  0.15309244838E+03  0.76421738195E+02 0.  0.
          6    2    1    2  501    0  0.11998692006E+03  0.58627284735E+02 -0.97560800557E+02  0.23628724789E+03  0.16875880483E+03 0.  0.
         24    2    5    5    0    0  0.15016606065E+03  0.54431796096E+02 -0.61694356895E+02  0.18899164098E+03  0.79993627820E+02 0.  0.
          5    1    5    5  501    0 -0.30179140589E+02  0.41954886385E+01 -0.35866443663E+02  0.47295606906E+02  0.47000000000E+01 0. -1.
        -11    1    6    6    0    0  0.93683510586E+02 -0.27532975328E+01 -0.54197434145E+02  0.10826607350E+03  0.00000000000E+00 0.  1.
         12    1    6    6    0    0  0.56482550064E+02  0.57185093629E+02 -0.74969227500E+01  0.80725567485E+02  0.00000000000E+00 0. -1.
         -5    1    3    3    0  503 -0.10765683892E+03 -0.49828894718E+02 -0.43434932404E+02  0.12641834151E+03  0.47000000000E+01 0.  1.
         11    1    4    4    0    0  0.88423364493E+00 -0.20628890379E+02 -0.13367090028E+03  0.13525621084E+03  0.00000000000E+00 0. -1.
        -12    1    4    4    0    0 -0.13214314782E+02  0.11830500363E+02  0.18848118164E+01  0.17836237539E+02  0.00000000000E+00 0.  1.
</event>
<event>
12    1  0.8462562E-002  0.1850467E+03  0.7818608E-02  0.1163106E+00
         21   -1    0    0  501  502  0.00000000000E+00  0.00000000000E+00  0.21242995617E+02  0.21242995617E+02  0.00000000000E+00 0. -1.
         21   -1    0    0  502  503 -0.00000000000E+00 -0.00000000000E+00 -0.19438557785E+04  0.19438557785E+04  0.00000000000E+00 0. -1.
         -6    2    1    2    0  503  0.10997139461E+02 -0.68509987362E+02 -0.13705187143E+04  0.13829547482E+04  0.17154513656E+03 0.  0.
        -24    2    3    3    0    0  0.39424459718E+02 -0.49158863435E+02 -0.47247769535E+03  0.48424325931E+03  0.85355021601E+02 0.  0.
          6    2    1    2  501    0 -0.10997139461E+02  0.68509987362E+02 -0.55209406859E+03  0.58214402592E+03  0.17108258503E+03 0.  0.
         24    2    5    5    0    0 -0.29330185288E+02  0.13750606395E+01 -0.45047054833E+03  0.45888564355E+03  0.82402478015E+02 0.  0.
          5    1    5    5  501    0  0.18333045827E+02  0.67134926722E+02 -0.10162352026E+03  0.12325838237E+03  0.47000000000E+01 0. -1.
        -11    1    6    6    0    0 -0.46000757891E+02  0.13790282200E+02 -0.14576729392E+03  0.15347425057E+03  0.00000000000E+00 0.  1.
         12    1    6    6    0    0  0.16670572603E+02 -0.12415221560E+02 -0.30470325441E+03  0.30541139298E+03  0.00000000000E+00 0. -1.
         -5    1    3    3    0  503 -0.28427320256E+02 -0.19351123927E+02 -0.89804101894E+03  0.89871148888E+03  0.47000000000E+01 0.  1.
         11    1    4    4    0    0  0.31408512333E+02 -0.32947224318E+02 -0.46005752947E+03  0.46230395268E+03  0.00000000000E+00 0. -1.
        -12    1    4    4    0    0  0.80159473848E+01 -0.16211639117E+02 -0.12420165874E+02  0.21939306636E+02  0.00000000000E+00 0.  1.
</event>
<event>
12    1  0.8462562E-002  0.1900421E+03  0.7818608E-02  0.1158472E+00
         21   -1    0    0  501  502  0.00000000000E+00  0.00000000000E+00  0.23033979419E+03  0.23033979419E+03  0.00000000000E+00 0. -1.
         21   -1    0    0  502  503 -0.00000000000E+00 -0.00000000000E+00 -0.17359155847E+03  0.17359155847E+03  0.00000000000E+00 0.  1.
         -6    2    1    2    0  503 -0.86960488038E+01  0.81577803407E+02 -0.34770036393E+02  0.19319671148E+03  0.17142186156E+03 0.  0.
        -24    2    3    3    0    0  0.17776892510E+02 -0.20307581452E+02  0.75791751737E+01  0.79631778555E+02  0.74534290684E+02 0.  0.
          6    2    1    2  501    0  0.86960488038E+01 -0.81577803407E+02  0.91518272116E+02  0.21073464118E+03  0.17118100241E+03 0.  0.
         24    2    5    5    0    0  0.37904617294E+02 -0.29739623568E+02 -0.88012013534E+01  0.94002365778E+02  0.80235767613E+02 0.  0.
          5    1    5    5  501    0 -0.29208568491E+02 -0.51838179839E+02  0.10031947347E+03  0.11673227540E+03  0.47000000000E+01 0. -1.
        -13    1    6    6    0    0  0.29387247370E+02 -0.56909614722E+02  0.48961298605E+00  0.64051184819E+02  0.00000000000E+00 0.  1.
         14    1    6    6    0    0  0.85173699242E+01  0.27169991154E+02 -0.92908143394E+01  0.29951180959E+02  0.00000000000E+00 0. -1.
         -5    1    3    3    0  503 -0.26472941314E+02  0.10188538486E+03 -0.42349211567E+02  0.11356493292E+03  0.47000000000E+01 0.  1.
         13    1    4    4    0    0  0.19842053701E+02 -0.44115816071E+02 -0.10703513260E+02  0.49542683807E+02  0.00000000000E+00 0. -1.
        -14    1    4    4    0    0 -0.20651611916E+01  0.23808234619E+02  0.18282688433E+02  0.30089094748E+02  0.00000000000E+00 0.  1.
</event>
<event>
12    1  0.8462562E-002  0.1859724E+03  0.7818608E-02  0.1164273E+00
         21   -1    0    0  503  502  0.00000000000E+00  0.00000000000E+00  0.32224166173E+03  0.32224166173E+03  0.00000000000E+00 0. -1.
         21   -1    0    0  501  503 -0.00000000000E+00 -0.00000000000E+00 -0.11148124408E+03  0.11148124408E+03  0.00000000000E+00 0. -1.
          6    2    1    2  501    0  0.24788613688E+02 -0.36389458392E+02  0.40554659128E+02  0.18162024424E+03  0.17147176062E+03 0.  0.
         24    2    3    3    0    0  0.23253040997E+02 -0.29637354105E+02  0.93554899225E+02  0.12796333092E+03  0.78759242111E+02 0.  0.
         -6    2    1    2    0  502 -0.24788613688E+02  0.36389458392E+02  0.17020575852E+03  0.25210266158E+03  0.18068504003E+03 0.  0.
        -24    2    5    5    0    0 -0.55923100491E+01  0.47014240431E+02  0.19652263051E+03  0.21751867947E+03  0.80321970101E+02 0.  0.
          5    1    3    3  501    0  0.15355726911E+01 -0.67521042870E+01 -0.53000240098E+02  0.53656913312E+02  0.47000000000E+01 0. -1.
        -13    1    4    4    0    0 -0.73200557239E+01  0.24210188513E+02  0.24528522695E+02  0.35233008234E+02  0.00000000000E+00 0.  1.
         14    1    4    4    0    0  0.30573096721E+02 -0.53847542618E+02  0.69026376530E+02  0.92730322689E+02  0.00000000000E+00 0. -1.
         -5    1    5    5    0  502 -0.19196303639E+02 -0.10624782039E+02 -0.26316871991E+02  0.34583982104E+02  0.47000000000E+01 0.  1.
         13    1    6    6    0    0 -0.35722129982E+02  0.28834559337E+02  0.54777653022E+02  0.71470928728E+02  0.00000000000E+00 0. -1.
        -14    1    6    6    0    0  0.30129819933E+02  0.18179681094E+02  0.14174497749E+03  0.14604775074E+03  0.00000000000E+00 0.  1.
</event>
<event>
12    1  0.8462562E-002  0.2255070E+03  0.7818608E-02  0.1130676E+00
         21   -1    0    0  503  502  0.00000000000E+00  0.00000000000E+00  0.52604592095E+03  0.52604592095E+03  0.00000000000E+00 0. -1.
         21   -1    0    0  501  503 -0.00000000000E+00 -0.00000000000E+00 -0.10454467389E+03  0.10454467389E+03  0.00000000000E+00 0.  1.
          6    2    1    2  501    0  0.13635446714E+03 -0.24451988110E+02  0.11607331523E+03  0.25362654811E+03  0.17794091988E+03 0.  0.
         24    2    3    3    0    0  0.13970319752E+03 -0.72895307793E+02  0.87793223712E+02  0.19723663063E+03  0.79774237938E+02 0.  0.
         -6    2    1    2    0  502 -0.13635446714E+03  0.24451988110E+02  0.30542793183E+03  0.37696404674E+03  0.17211981454E+03 0.  0.
        -24    2    5    5    0    0 -0.10520591075E+03  0.81400453727E+02  0.23298382211E+03  0.27958027327E+03  0.78672424089E+02 0.  0.
          5    1    3    3  501    0 -0.33487303741E+01  0.48443319683E+02  0.28280091516E+02  0.56389917479E+02  0.47000000000E+01 0. -1.
        -13    1    4    4    0    0  0.31767143077E+02  0.11527798263E+02  0.39409391620E+02  0.51914753779E+02  0.00000000000E+00 0.  1.
         14    1    4    4    0    0  0.10793605444E+03 -0.84423106056E+02  0.48383832092E+02  0.14532187685E+03  0.00000000000E+00 0. -1.
         -5    1    5    5    0  502 -0.31148556393E+02 -0.56948465617E+02  0.72444109715E+02  0.97383773464E+02  0.47000000000E+01 0.  1.
         11    1    6    6    0    0 -0.13404421568E+02  0.23671264185E+02  0.11972086332E+03  0.12277252290E+03  0.00000000000E+00 0. -1.
        -12    1    6    6    0    0 -0.91801489181E+02  0.57729189542E+02  0.11326295880E+03  0.15680775037E+03  0.00000000000E+00 0.  1.
</event>
<event>
12    1  0.8462562E-002  0.3088184E+03  0.7818608E-02  0.1081039E+00
         21   -1    0    0  501  502  0.00000000000E+00  0.00000000000E+00  0.17203660147E+03  0.17203660147E+03  0.00000000000E+00 0.  1.
         21   -1    0    0  502  503 -0.00000000000E+00 -0.00000000000E+00 -0.10554530166E+04  0.10554530166E+04  0.00000000000E+00 0. -1.
         -6    2    1    2    0  503  0.17068864728E+03 -0.19145524196E+03 -0.86499656346E+03  0.91812234079E+03  0.17011717690E+03 0.  0.
        -24    2    3    3    0    0  0.17230925525E+03 -0.10367824224E+03 -0.67148597785E+03  0.70557619335E+03  0.80651651022E+02 0.  0.
          6    2    1    2  501    0 -0.17068864728E+03  0.19145524196E+03 -0.18419851704E+02  0.30936727731E+03  0.17198574751E+03 0.  0.
         24    2    5    5    0    0 -0.65454961966E+02  0.15820006512E+03  0.27678672908E+02  0.18967099799E+03  0.76794308987E+02 0.  0.
          5    1    5    5  501    0 -0.10523368532E+03  0.33255176837E+02 -0.46098524612E+02  0.11969627932E+03  0.47000000000E+01 0. -1.
        -13    1    6    6    0    0 -0.54882651125E+02  0.40255862063E+02  0.20290948106E+02  0.71023674926E+02  0.00000000000E+00 0.  1.
         14    1    6    6    0    0 -0.10572310841E+02  0.11794420306E+03  0.73877248018E+01  0.11864732306E+03  0.00000000000E+00 0. -1.
         -5    1    3    3    0  503 -0.16206079624E+01 -0.87776999718E+02 -0.19351058561E+03  0.21254614744E+03  0.47000000000E+01 0.  1.
         13    1    4    4    0    0  0.41137481587E+02  0.11901819727E+01 -0.71172210580E+02  0.82214308264E+02  0.00000000000E+00 0. -1.
        -14    1    4    4    0    0  0.13117177366E+03 -0.10486842421E+03 -0.60031376727E+03  0.62336188509E+03  0.00000000000E+00 0.  1.
</event>
<event>
12    1  0.8462562E-002  0.1987738E+03  0.7818608E-02  0.1151103E+00
         21   -1    0    0  503  502  0.00000000000E+00  0.00000000000E+00  0.33998056268E+03  0.33998056268E+03  0.00000000000E+00 0.  1.
         21   -1    0    0  501  503 -0.00000000000E+00 -0.00000000000E+00 -0.20802038029E+03  0.20802038029E+03  0.00000000000E+00 0.  1.
          6    2    1    2  501    0 -0.67082905091E+02  0.74465679284E+02 -0.11706300901E+03  0.22937330956E+03  0.16989147569E+03 0.  0.
         24    2    3    3    0    0 -0.13661889749E+02  0.60541016535E+02 -0.27874640959E+02  0.12437637575E+03  0.10411832366E+03 0.  0.
         -6    2    1    2    0  502  0.67082905091E+02 -0.74465679284E+02  0.24902319140E+03  0.31862763341E+03  0.17165595058E+03 0.  0.
        -24    2    5    5    0    0  0.46632305833E+02  0.11712891198E+02  0.64454502252E+02  0.11385296692E+03  0.80599946950E+02 0.  0.
          5    1    3    3  501    0 -0.53421015341E+02  0.13924662749E+02 -0.89188368054E+02  0.10499693381E+03  0.47000000000E+01 0. -1.
        -13    1    4    4    0    0 -0.10426494795E+02 -0.29289283872E+01 -0.54431496771E+02  0.55498452734E+02  0.00000000000E+00 0.  1.
         14    1    4    4    0    0 -0.32353949543E+01  0.63469944923E+02  0.26556855812E+02  0.68877923020E+02  0.00000000000E+00 0. -1.
         -5    1    5    5    0  502  0.20450599257E+02 -0.86178570482E+02  0.18456868915E+03  0.20477466649E+03  0.47000000000E+01 0.  1.
         13    1    6    6    0    0 -0.56977575314E+01 -0.18898896010E+02 -0.62596524332E+01  0.20707871930E+02  0.00000000000E+00 0. -1.
        -14    1    6    6    0    0  0.52330063365E+02  0.30611787208E+02  0.70714154685E+02  0.93145094989E+02  0.00000000000E+00 0.  1.
</event>
<event>
12    1  0.8462562E-002  0.2823786E+03  0.7818608E-02  0.1094659E+00
         21   -1    0    0  501  502  0.00000000000E+00  0.00000000000E+00  0.13072807537E+03  0.13072807537E+03  0.00000000000E+00 0. -1.
         21   -1    0    0  502  503 -0.00000000000E+00 -0.00000000000E+00 -0.60671743578E+03  0.60671743578E+03  0.00000000000E+00 0. -1.
         -6    2    1    2    0  503  0.13578293774E+03 -0.17800694627E+03 -0.22437552231E+03  0.36066889951E+03  0.17208777108E+03 0.  0.
        -24    2    3    3    0    0  0.15599925817E+03 -0.11882491701E+03 -0.13332458064E+03  0.25010861650E+03  0.79521989358E+02 0.  0.
          6    2    1    2  501    0 -0.13578293774E+03  0.17800694627E+03 -0.25161383810E+03  0.37677661165E+03  0.16890119141E+03 0.  0.
         24    2    5    5    0    0 -0.42061472431E+02  0.14747273569E+03 -0.20292980770E+03  0.26673900039E+03  0.80323173745E+02 0.  0.
          5    1    5    5  501    0 -0.93721465313E+02  0.30534210574E+02 -0.48684030403E+02  0.11003761126E+03  0.47000000000E+01 0. -1.
        -13    1    6    6    0    0  0.46660543123E+01  0.65349193002E+01 -0.60360041647E+02  0.60891804545E+02  0.00000000000E+00 0.  1.
         14    1    6    6    0    0 -0.46727526743E+02  0.14093781639E+03 -0.14256976605E+03  0.20584719584E+03  0.00000000000E+00 0. -1.
         -5    1    3    3    0  503 -0.20216320430E+02 -0.59182029255E+02 -0.91050941677E+02  0.11056028301E+03  0.47000000000E+01 0.  1.
         11    1    4    4    0    0  0.94713083391E+01 -0.44999166346E+02 -0.42269842093E+02  0.62460949433E+02  0.00000000000E+00 0. -1.
        -12    1    4    4    0    0  0.14652794983E+03 -0.73825750666E+02 -0.91054738542E+02  0.18764766707E+03  0.00000000000E+00 0.  1.
</event>
<event>
12    1  0.8462562E-002  0.1732101E+03  0.7818608E-02  0.1174639E+00
         21   -1    0    0  501  502  0.00000000000E+00  0.00000000000E+00  0.10859445187E+04  0.10859445187E+04  0.00000000000E+00 0. -1.
         21   -1    0    0  502  503 -0.00000000000E+00 -0.00000000000E+00 -0.45386141712E+02  0.45386141712E+02  0.00000000000E+00 0. -1.
         -6    2    1    2    0  503  0.17545046565E+02  0.10834974454E+02  0.16547544258E+03  0.23927018312E+03  0.17158925695E+03 0.  0.
        -24    2    3    3    0    0 -0.85171640116E+01  0.59923280692E+02  0.56220961254E+02  0.11660179958E+03  0.82291199582E+02 0.  0.
          6    2    1    2  501    0 -0.17545046565E+02 -0.10834974454E+02  0.87508293443E+03  0.89206047732E+03  0.17197827694E+03 0.  0.
         24    2    5    5    0    0 -0.62495914423E+02 -0.51320710518E+02  0.53249082287E+03  0.54413646227E+03  0.77449715842E+02 0.  0.
          5    1    5    5  501    0  0.44950867858E+02  0.40485736064E+02  0.34259211155E+03  0.34792401504E+03  0.47000000000E+01 0. -1.
        -11    1    6    6    0    0 -0.29842747469E+02 -0.37209171680E+02  0.10686397175E+03  0.11702572577E+03  0.00000000000E+00 0.  1.
         12    1    6    6    0    0 -0.32653166954E+02 -0.14111538839E+02  0.42562685112E+03  0.42711073651E+03  0.00000000000E+00 0. -1.
         -5    1    3    3    0  503  0.26062210577E+02 -0.49088306238E+02  0.10925448133E+03  0.12266838354E+03  0.47000000000E+01 0.  1.
         11    1    4    4    0    0 -0.44663852532E+02  0.22173408654E+02  0.28678152212E+02  0.57523527262E+02  0.00000000000E+00 0. -1.
        -12    1    4    4    0    0  0.36146688520E+02  0.37749872038E+02  0.27542809042E+02  0.59078272316E+02  0.00000000000E+00 0.  1.
</event>
<event>
12    1  0.8462562E-002  0.1904522E+03  0.7818608E-02  0.1158847E+00
         21   -1    0    0  501  502  0.00000000000E+00  0.00000000000E+00  0.54137354512E+02  0.54137354512E+02  0.00000000000E+00 0.  1.
         21   -1    0    0  502  503 -0.00000000000E+00 -0.00000000000E+00 -0.92344057631E+03  0.92344057631E+03  0.00000000000E+00 0.  1.
         -6    2    1    2    0  503 -0.71370340498E+02 -0.41645552898E+02 -0.69967760867E+03  0.72513502510E+03  0.17159245603E+03 0.  0.
        -24    2    3    3    0    0 -0.23127089112E+02  0.39170293345E+02 -0.42370370724E+03  0.43351490135E+03  0.79631426111E+02 0.  0.
          6    2    1    2  501    0  0.71370340498E+02  0.41645552898E+02 -0.16962561312E+03  0.25244290572E+03  0.16770955382E+03 0.  0.
         24    2    5    5    0    0 -0.64569746271E+01 -0.25803786990E+02 -0.78217351180E+02  0.11466023343E+03  0.79507780506E+02 0.  0.
          5    1    5    5  501    0  0.77827315125E+02  0.67449339888E+02 -0.91408261941E+02  0.13778267229E+03  0.47000000000E+01 0. -1.
        -11    1    6    6    0    0  0.32729854158E+02  0.55698913930E+01 -0.25476656260E+02  0.41848859692E+02  0.00000000000E+00 0.  1.
         12    1    6    6    0    0 -0.39186828785E+02 -0.31373678383E+02 -0.52740694919E+02  0.72811373741E+02  0.00000000000E+00 0. -1.
         -5    1    3    3    0  503 -0.48243251386E+02 -0.80815846243E+02 -0.27597390143E+03  0.29162012375E+03  0.47000000000E+01 0.  1.
         13    1    4    4    0    0  0.22440606939E+02 -0.78259511832E+00 -0.48464977199E+02  0.53413924306E+02  0.00000000000E+00 0. -1.
        -14    1    4    4    0    0 -0.45567696051E+02  0.39952888463E+02 -0.37523873005E+03  0.38010097704E+03  0.00000000000E+00 0.  1.
</event>
<event>
12    1  0.8462562E-002  0.1812550E+03  0.7818608E-02  0.1167300E+00
         21   -1    0    0  503  502  0.00000000000E+00  0.00000000000E+00  0.21844420996E+03  0.21844420996E+03  0.00000000000E+00 0. -1.
         21   -1    0    0  501  503 -0.00000000000E+00 -0.00000000000E+00 -0.18113735141E+03  0.18113735141E+03  0.00000000000E+00 0. -1.
          6    2    1    2  501    0 -0.50809943856E+02 -0.95480641464E+01 -0.66939615041E+02  0.19048656881E+03  0.17067924569E+03 0.  0.
         24    2    3    3    0    0  0.19783230425E+02  0.21083388250E+02  0.51999194708E+01  0.84903025723E+02  0.79659269067E+02 0.  0.
         -6    2    1    2    0  502  0.50809943856E+02  0.95480641464E+01  0.10424647359E+03  0.20909499256E+03  0.17372556731E+03 0.  0.
        -24    2    5    5    0    0  0.17327098921E+02 -0.61722854063E+01  0.13755213375E+03  0.15909911980E+03  0.77804980284E+02 0.  0.
          5    1    3    3  501    0 -0.70593174281E+02 -0.30631452396E+02 -0.72139534512E+02  0.10558354309E+03  0.47000000000E+01 0. -1.
        -13    1    4    4    0    0  0.19091504400E+02  0.58405572843E+01 -0.35891191136E+02  0.41070369499E+02  0.00000000000E+00 0.  1.
         14    1    4    4    0    0  0.69172602427E+00  0.15242830966E+02  0.41091110606E+02  0.43832656223E+02  0.00000000000E+00 0. -1.
         -5    1    5    5    0  502  0.33482844935E+02  0.15720349553E+02 -0.33305660159E+02  0.49995872766E+02  0.47000000000E+01 0.  1.
         13    1    6    6    0    0  0.18494399714E+02  0.32667870675E+02  0.44247470438E+02  0.58026470127E+02  0.00000000000E+00 0. -1.
        -14    1    6    6    0    0 -0.11673007926E+01 -0.38840156082E+02  0.93304663314E+02  0.10107264967E+03  0.00000000000E+00 0.  1.
</event>
<event>
12    1  0.8462562E-002  0.2753560E+03  0.7818608E-02  0.1098716E+00
         21   -1    0    0  503  502  0.00000000000E+00  0.00000000000E+00  0.10920946787E+04  0.10920946787E+04  0.00000000000E+00 0.  1.
         21   -1    0    0  501  503 -0.00000000000E+00 -0.00000000000E+00 -0.10009737803E+03  0.10009737803E+03  0.00000000000E+00 0.  1.
          6    2    1    2  501    0 -0.21281743456E+03  0.27369757031E+02  0.15956431854E+03  0.31539926972E+03  0.16725897147E+03 0.  0.
         24    2    3    3    0    0 -0.27880479837E+02 -0.17846623199E+01  0.47563554451E+02  0.97183966534E+02  0.80012033244E+02 0.  0.
         -6    2    1    2    0  502  0.21281743456E+03 -0.27369757031E+02  0.83243298213E+03  0.87679278701E+03  0.17257044230E+03 0.  0.
        -24    2    5    5    0    0  0.62267702292E+02  0.39945059380E+02  0.36162342654E+03  0.37791380967E+03  0.81083107975E+02 0.  0.
          5    1    3    3  501    0 -0.18493695472E+03  0.29154419351E+02  0.11200076408E+03  0.21821530318E+03  0.47000000000E+01 0. -1.
        -11    1    4    4    0    0 -0.38096081148E+02  0.31653170584E+02  0.24142257668E+02  0.55100664353E+02  0.00000000000E+00 0.  1.
         12    1    4    4    0    0  0.10215601311E+02 -0.33437832904E+02  0.23421296784E+02  0.42083302181E+02  0.00000000000E+00 0. -1.
         -5    1    5    5    0  502  0.15054973226E+03 -0.67314816411E+02  0.47080955559E+03  0.49887897734E+03  0.47000000000E+01 0.  1.
         11    1    6    6    0    0  0.30591954400E+02  0.18615457972E+02  0.38647317014E+02  0.52687930894E+02  0.00000000000E+00 0. -1.
        -12    1    6    6    0    0  0.31675747892E+02  0.21329601408E+02  0.32297610953E+03  0.32522587878E+03  0.00000000000E+00 0.  1.
</event>
<event>
12    1  0.8462562E-002  0.1929008E+03  0.7818608E-02  0.1156613E+00
         21   -1    0    0  501  502  0.00000000000E+00  0.00000000000E+00  0.26717570269E+02  0.26717570269E+02  0.00000000000E+00 0.  1.
         21   -1    0    0  502  503 -0.00000000000E+00 -0.00000000000E+00 -0.34602409944E+04  0.34602409944E+04  0.00000000000E+00 0.  1.
         -6    2    1    2    0  503 -0.42890530751E+02 -0.79898569825E+02 -0.30781049684E+04  0.30841434627E+04  0.17025663825E+03 0.  0.
        -24    2    3    3    0    0 -0.62356408691E+00 -0.10347072166E+03 -0.16168751875E+04  0.16221049182E+04  0.78945644643E+02 0.  0.
          6    2    1    2  501    0  0.42890530751E+02  0.79898569825E+02 -0.35541845564E+03  0.40281510189E+03  0.16647627042E+03 0.  0.
         24    2    5    5    0    0  0.38762233166E+02  0.78812542041E+02 -0.10804871724E+03  0.15536389503E+03  0.68916522547E+02 0.  0.
          5    1    5    5  501    0  0.41282975842E+01  0.10860277841E+01 -0.24736973840E+03  0.24745120686E+03  0.47000000000E+01 0. -1.
        -11    1    6    6    0    0 -0.14332615674E+02  0.44486352650E+02 -0.59432428662E+02  0.75608683502E+02  0.00000000000E+00 0.  1.
         12    1    6    6    0    0  0.53094848841E+02  0.34326189391E+02 -0.48616288575E+02  0.79755211531E+02  0.00000000000E+00 0. -1.
         -5    1    3    3    0  503 -0.42266966664E+02  0.23572151834E+02 -0.14612297810E+04  0.14620385445E+04  0.47000000000E+01 0.  1.
         11    1    4    4    0    0  0.74548185814E+01 -0.37580612219E+02 -0.19770987911E+03  0.20138786715E+03  0.00000000000E+00 0. -1.
        -12    1    4    4    0    0 -0.80783826683E+01 -0.65890109440E+02 -0.14191653084E+04  0.14207170511E+04  0.00000000000E+00 0.  1.
</event>
<event>
12    1  0.8462562E-002  0.1816183E+03  0.7818608E-02  0.1168317E+00
         21   -1    0    0  501  502  0.00000000000E+00  0.00000000000E+00  0.11633000280E+03  0.11633000280E+03  0.00000000000E+00 0.  1.
         21   -1    0    0  502  503 -0.00000000000E+00 -0.00000000000E+00 -0.28623106280E+03  0.28623106280E+03  0.00000000000E+00 0.  1.
         -6    2    1    2    0  503 -0.27931254242E+02 -0.18238374123E+02 -0.13018598529E+03  0.21665114609E+03  0.16993097153E+03 0.  0.
        -24    2    3    3    0    0  0.45745210078E+02  0.65641303621E+01 -0.48799418239E+02  0.10400457970E+03  0.79371640568E+02 0.  0.
          6    2    1    2  501    0  0.27931254242E+02  0.18238374123E+02 -0.39715074709E+02  0.18590991950E+03  0.17852847884E+03 0.  0.
         24    2    5    5    0    0 -0.46759844927E+01 -0.55627120045E+01  0.44650180366E+02  0.92265325520E+02  0.80414197072E+02 0.  0.
          5    1    5    5  501    0  0.32607238735E+02  0.23801086127E+02 -0.84365255075E+02  0.93644593985E+02  0.47000000000E+01 0. -1.
        -11    1    6    6    0    0  0.33854515590E+02  0.14967901230E+02  0.22364576782E+02  0.43247434464E+02  0.00000000000E+00 0.  1.
         12    1    6    6    0    0 -0.38530500083E+02 -0.20530613235E+02  0.22285603585E+02  0.49017891056E+02  0.00000000000E+00 0. -1.
         -5    1    3    3    0  503 -0.73676464320E+02 -0.24802504485E+02 -0.81386567047E+02  0.11264656639E+03  0.47000000000E+01 0.  1.
         11    1    4    4    0    0  0.13451485654E+02  0.28644433158E+02  0.10169115189E+02  0.33239388096E+02  0.00000000000E+00 0. -1.
        -12    1    4    4    0    0  0.32293724424E+02 -0.22080302796E+02 -0.58968533428E+02  0.70765191608E+02  0.00000000000E+00 0.  1.
</event>
<event>
12    1  0.8462562E-002  0.3229340E+03  0.7818608E-02  0.1074349E+00
         21   -1    0    0  501  502  0.00000000000E+00  0.00000000000E+00  0.15206734169E+03  0.15206734169E+03  0.00000000000E+00 0. -1.
         21   -1    0    0  502  503 -0.00000000000E+00 -0.00000000000E+00 -0.68885968464E+03  0.68885968464E+03  0.00000000000E+00 0. -1.
         -6    2    1    2    0  503  0.26674479897E+03  0.58550671991E+02 -0.23682514806E+03  0.40017006166E+03  0.17166525136E+03 0.  0.
        -24    2    3    3    0    0  0.11786391504E+03 -0.18143181799E+02 -0.16771489742E+03  0.21893600980E+03  0.74723570953E+02 0.  0.
          6    2    1    2  501    0 -0.26674479897E+03 -0.58550671991E+02 -0.29996719488E+03  0.44075696467E+03  0.17235258900E+03 0.  0.
         24    2    5    5    0    0 -0.12578569682E+03 -0.90879177790E+02 -0.13005527585E+03  0.21758270318E+03  0.79666752566E+02 0.  0.
          5    1    5    5  501    0 -0.14095910215E+03  0.32328505798E+02 -0.16991191903E+03  0.22317426149E+03  0.47000000000E+01 0. -1.
        -13    1    6    6    0    0 -0.44934338497E+02 -0.43324318640E+02 -0.69358282473E+01  0.62802842892E+02  0.00000000000E+00 0.  1.
         14    1    6    6    0    0 -0.80851358324E+02 -0.47554859150E+02 -0.12311944760E+03  0.15477986028E+03  0.00000000000E+00 0. -1.
         -5    1    3    3    0  503  0.14888088392E+03  0.76693853791E+02 -0.69110250644E+02  0.18123405185E+03  0.47000000000E+01 0.  1.
         13    1    4    4    0    0  0.62730445820E+02 -0.10075352663E+02 -0.14583449787E+03  0.15907332376E+03  0.00000000000E+00 0. -1.
        -14    1    4    4    0    0  0.55133469223E+02 -0.80678291363E+01 -0.21880399556E+02  0.59862686043E+02  0.00000000000E+00 0.  1.
</event>
<event>
12    1  0.8462562E-002  0.2132139E+03  0.7818608E-02  0.1141583E+00
         21   -1    0    0  503  502  0.00000000000E+00  0.00000000000E+00  0.62606209864E+02  0.62606209864E+02  0.00000000000E+00 0. -1.
         21   -1    0    0  501  503 -0.00000000000E+00 -0.00000000000E+00 -0.76754069676E+03  0.76754069676E+03  0.00000000000E+00 0. -1.
          6    2    1    2  501    0 -0.11310520385E+03 -0.48730176167E+02 -0.22493131209E+03  0.30992619343E+03  0.17404807672E+03 0.  0.
         24    2    3    3    0    0  0.62647152912E+01 -0.17561925150E+01 -0.12401381535E+03  0.14664066472E+03  0.77985429948E+02 0.  0.
         -6    2    1    2    0  502  0.11310520385E+03  0.48730176167E+02 -0.48000317480E+03  0.52022071319E+03  0.15830074352E+03 0.  0.
        -24    2    5    5    0    0  0.10602740854E+03  0.26249200168E+02 -0.21714502675E+03  0.25626619918E+03  0.81176168466E+02 0.  0.
          5    1    3    3  501    0 -0.11936991915E+03 -0.46973983652E+02 -0.10091749674E+03  0.16328552871E+03  0.47000000000E+01 0. -1.
        -11    1    4    4    0    0  0.76584190129E+01 -0.38620677388E+02 -0.80356340184E+02  0.89483794686E+02  0.00000000000E+00 0.  1.
         12    1    4    4    0    0 -0.13937037217E+01  0.36864484873E+02 -0.43657475162E+02  0.57156870038E+02  0.00000000000E+00 0. -1.
         -5    1    5    5    0  502  0.70777953099E+01  0.22480975999E+02 -0.26285814805E+03  0.26395451401E+03  0.47000000000E+01 0.  1.
         11    1    6    6    0    0  0.95748888782E+02  0.20299499086E+02 -0.22262175165E+03  0.24318791844E+03  0.00000000000E+00 0. -1.
        -12    1    6    6    0    0  0.10278519763E+02  0.59497010820E+01  0.54767249007E+01  0.13078280740E+02  0.00000000000E+00 0.  1.
</event>
<event>
12    1  0.8462562E-002  0.2584369E+03  0.7818608E-02  0.1108137E+00
         21   -1    0    0  501  502  0.00000000000E+00  0.00000000000E+00  0.49368688712E+03  0.49368688712E+03  0.00000000000E+00 0.  1.
         21   -1    0    0  502  503 -0.00000000000E+00 -0.00000000000E+00 -0.26580053791E+03  0.26580053791E+03  0.00000000000E+00 0. -1.
         -6    2    1    2    0  503  0.16725050386E+03 -0.96356718994E+02 -0.15229470673E+03  0.29997214535E+03  0.17184953289E+03 0.  0.
        -24    2    3    3    0    0  0.11611437710E+03 -0.21545333021E+02 -0.27109358567E+02  0.14535937640E+03  0.80297453504E+02 0.  0.
          6    2    1    2  501    0 -0.16725050386E+03  0.96356718994E+02  0.38018105593E+03  0.45951527968E+03  0.17134558246E+03 0.  0.
         24    2    5    5    0    0 -0.31593224046E+02  0.12513320547E+01  0.18198309561E+03  0.20115031752E+03  0.79648637873E+02 0.  0.
          5    1    5    5  501    0 -0.13565727982E+03  0.95105386940E+02  0.19819796032E+03  0.25836496215E+03  0.47000000000E+01 0. -1.
        -11    1    6    6    0    0 -0.55586525294E+02 -0.13907208209E+01  0.15633888054E+03  0.16593264136E+03  0.00000000000E+00 0.  1.
         12    1    6    6    0    0  0.23993301248E+02  0.26420528756E+01  0.25644215066E+02  0.35217676166E+02  0.00000000000E+00 0. -1.
         -5    1    3    3    0  503  0.51136126762E+02 -0.74811385973E+02 -0.12518534816E+03  0.15461276896E+03  0.47000000000E+01 0.  1.
         13    1    4    4    0    0  0.63728521810E+01  0.20992835239E+02 -0.15970201355E+02  0.27135948622E+02  0.00000000000E+00 0. -1.
        -14    1    4    4    0    0  0.10974152492E+03 -0.42538168260E+02 -0.11139157212E+02  0.11822342777E+03  0.00000000000E+00 0.  1.
</event>
<event>
12    1  0.8462562E-002  0.1916100E+03  0.7818608E-02  0.1157283E+00
         21   -1    0    0  501  502  0.00000000000E+00  0.00000000000E+00  0.83812263683E+03  0.83812263683E+03  0.00000000000E+00 0.  1.
         21   -1    0    0  502  503 -0.00000000000E+00 -0.00000000000E+00 -0.52396708877E+02  0.52396708877E+02  0.00000000000E+00 0.  1.
         -6    2    1    2    0  503 -0.82861946558E+02  0.60692116996E+01  0.20872472360E+03  0.28253516367E+03  0.17133934443E+03 0.  0.
        -24    2    3    3    0    0 -0.33139837572E+02  0.32328864548E+02  0.52182180440E+02  0.11613349509E+03  0.92847210017E+02 0.  0.
          6    2    1    2  501    0  0.82861946558E+02 -0.60692116996E+01  0.57700120436E+03  0.60798418204E+03  0.17265989187E+03 0.  0.
         24    2    5    5    0    0  0.57844236731E+02 -0.12776733892E+02  0.15199989352E+03  0.18216839925E+03  0.81068843603E+02 0.  0.
          5    1    5    5  501    0  0.25017709827E+02  0.67075221923E+01  0.42500131084E+03  0.42581578279E+03  0.47000000000E+01 0. -1.
        -13    1    6    6    0    0  0.43279226462E+02 -0.25637249189E+01  0.15765070655E+03  0.16350354554E+03  0.00000000000E+00 0.  1.
         14    1    6    6    0    0  0.14565010268E+02 -0.10213008973E+02 -0.56508130228E+01  0.18664853715E+02  0.00000000000E+00 0. -1.
         -5    1    3    3    0  503 -0.49722108986E+02 -0.26259652848E+02  0.15654254316E+03  0.16640166858E+03  0.47000000000E+01 0.  1.
         11    1    4    4    0    0  0.23454581293E+02  0.26630530379E+02 -0.45738944011E+01  0.35780204609E+02  0.00000000000E+00 0. -1.
        -12    1    4    4    0    0 -0.56594418865E+02  0.56983341685E+01  0.56756074841E+02  0.80353290476E+02  0.00000000000E+00 0.  1.
</event>
<event>
12    1  0.8462562E-002  0.1806602E+03  0.7818608E-02  0.1171200E+00
         21   -1    0    0  503  502  0.00000000000E+00  0.00000000000E+00  0.65634332008E+03  0.65634332008E+03  0.00000000000E+00 0.  1.
         21   -1    0    0  501  503 -0.00000000000E+00 -0.00000000000E+00 -0.64675111956E+02  0.64675111956E+02  0.00000000000E+00 0.  1.
          6    2    1    2  501    0  0.42721542494E+02 -0.26781571179E+02  0.10894327869E+03  0.21096619187E+03  0.17348116149E+03 0.  0.
         24    2    3    3    0    0  0.44541306663E+02  0.45996298157E+02  0.38216646642E+02  0.10935774593E+03  0.79993856452E+02 0.  0.
         -6    2    1    2    0  502 -0.42721542494E+02  0.26781571179E+02  0.48272492943E+03  0.51005224016E+03  0.15680416911E+03 0.  0.
        -24    2    5    5    0    0 -0.29814544565E+02 -0.41585647837E+02  0.28122804843E+03  0.29682993766E+03  0.80003271762E+02 0.  0.
          5    1    3    3  501    0 -0.18197641683E+01 -0.72777869336E+02  0.70726632047E+02  0.10160844595E+03  0.47000000000E+01 0. -1.
        -13    1    4    4    0    0  0.15143138392E+02  0.22798161547E+02 -0.24223035483E+02  0.36548957007E+02  0.00000000000E+00 0.  1.
         14    1    4    4    0    0  0.29398168271E+02  0.23198136609E+02  0.62439682126E+02  0.72808788919E+02  0.00000000000E+00 0. -1.
         -5    1    5    5    0  502 -0.12906997929E+02  0.68367219016E+02  0.20149688100E+03  0.21322230250E+03  0.47000000000E+01 0.  1.
         11    1    6    6    0    0  0.57150080579E+01  0.21029505288E+02  0.47393713857E+02  0.52163833476E+02  0.00000000000E+00 0. -1.
        -12    1    6    6    0    0 -0.35529552623E+02 -0.62615153125E+02  0.23383433458E+03  0.24466610419E+03  0.00000000000E+00 0.  1.
</event>
<event>
12    1  0.8462562E-002  0.1877983E+03  0.7818608E-02  0.1160486E+00
         21   -1    0    0  503  502  0.00000000000E+00  0.00000000000E+00  0.20187659934E+04  0.20187659934E+04  0.00000000000E+00 0. -1.
         21   -1    0    0  501  503 -0.00000000000E+00 -0.00000000000E+00 -0.18614540242E+02  0.18614540242E+02  0.00000000000E+00 0.  1.
          6    2    1    2  501    0 -0.50978265066E+02 -0.57241714285E+02  0.12539715773E+04  0.12679561939E+04  0.17144327209E+03 0.  0.
         24    2    3    3    0    0 -0.77102526307E+02 -0.74550357931E+02  0.11793785159E+04  0.11869112620E+04  0.79511664098E+02 0.  0.
         -6    2    1    2    0  502  0.50978265066E+02  0.57241714285E+02  0.74617987578E+03  0.76942433969E+03  0.17133012030E+03 0.  0.
        -24    2    5    5    0    0  0.68502442118E+02  0.40842154105E+02  0.73331378803E+03  0.74178978578E+03  0.78372880841E+02 0.  0.
          5    1    3    3  501    0  0.26124261242E+02  0.17308643646E+02  0.74593061481E+02  0.81044931929E+02  0.47000000000E+01 0. -1.
        -13    1    4    4    0    0  0.47691086042E+01 -0.46401974030E+02  0.37658158413E+03  0.37945958559E+03  0.00000000000E+00 0.  1.
         14    1    4    4    0    0 -0.81871634911E+02 -0.28148383901E+02  0.80279693174E+03  0.80745167641E+03  0.00000000000E+00 0. -1.
         -5    1    5    5    0  502 -0.17524177052E+02  0.16399560180E+02  0.12866087748E+02  0.27634553902E+02  0.47000000000E+01 0.  1.
         11    1    6    6    0    0  0.21421322618E+02  0.32877149906E+01  0.51110977349E+03  0.51156904000E+03  0.00000000000E+00 0. -1.
        -12    1    6    6    0    0  0.47081119499E+02  0.37554439115E+02  0.22220401454E+03  0.23022074578E+03  0.00000000000E+00 0.  1.
</event>
<event>
12    1  0.8462562E-002  0.2071735E+03  0.7818608E-02  0.1143994E+00
         21   -1    0    0  503  502  0.00000000000E+00  0.00000000000E+00  0.15904344998E+04  0.15904344998E+04  0.00000000000E+00 0.  1.
         21   -1    0    0  501  503 -0.00000000000E+00 -0.00000000000E+00 -0.42979323139E+02  0.42979323139E+02  0.00000000000E+00 0.  1.
          6    2    1    2  501    0 -0.85718614842E+02 -0.74196159625E+02  0.27481976740E+03  0.34416095196E+03  0.17340157227E+03 0.  0.
         24    2    3    3    0    0  0.11137594461E+01  0.21595905048E+02  0.11594389988E+03  0.13927168391E+03  0.74067472254E+02 0.  0.
         -6    2    1    2    0  502  0.85718614842E+02  0.74196159625E+02  0.12726354092E+04  0.12892528710E+04  0.17239295054E+03 0.  0.
        -24    2    5    5    0    0  0.42755325570E+02 -0.19015348048E+02  0.80712046358E+03  0.81253441734E+03  0.81111869114E+02 0.  0.
          5    1    3    3  501    0 -0.86832374288E+02 -0.95792064673E+02  0.15887586752E+03  0.20488926805E+03  0.47000000000E+01 0. -1.
        -13    1    4    4    0    0 -0.27474700602E+02 -0.14521295639E+02  0.45120584339E+02  0.54786808005E+02  0.00000000000E+00 0.  1.
         14    1    4    4    0    0  0.28588460048E+02  0.36117200687E+02  0.70823315537E+02  0.84484875907E+02  0.00000000000E+00 0. -1.
         -5    1    5    5    0  502  0.42963289271E+02  0.93211507673E+02  0.46551494567E+03  0.47671845362E+03  0.47000000000E+01 0.  1.
         13    1    6    6    0    0  0.63114011001E+02 -0.71827519725E+01  0.42852805215E+03  0.43321041283E+03  0.00000000000E+00 0. -1.
        -14    1    6    6    0    0 -0.20358685431E+02 -0.11832596075E+02  0.37859241143E+03  0.37932400451E+03  0.00000000000E+00 0.  1.
</event>
<event>
12    1  0.8462562E-002  0.3033015E+03  0.7818608E-02  0.1083641E+00
         21   -1    0    0  501  502  0.00000000000E+00  0.00000000000E+00  0.74803266818E+03  0.74803266818E+03  0.00000000000E+00 0.  1.
         21   -1    0    0  502  503 -0.00000000000E+00 -0.00000000000E+00 -0.19917426634E+03  0.19917426634E+03  0.00000000000E+00 0.  1.
         -6    2    1    2    0  503  0.22319371721E+03 -0.11009676045E+03 -0.18835518382E+02  0.30357024591E+03  0.17281025832E+03 0.  0.
        -24    2    3    3    0    0  0.18499401929E+03 -0.29468995199E+02  0.22770214535E+02  0.20501477695E+03  0.80133434001E+02 0.  0.
          6    2    1    2  501    0 -0.22319371721E+03  0.11009676045E+03  0.56769392023E+03  0.64363668862E+03  0.17336397494E+03 0.  0.
         24    2    5    5    0    0 -0.15858442107E+03  0.86509942821E+02  0.52942912242E+03  0.56478883598E+03  0.77834727260E+02 0.  0.
          5    1    5    5  501    0 -0.64609296149E+02  0.23586817624E+02  0.38264797805E+02  0.78847852637E+02  0.47000000000E+01 0. -1.
        -11    1    6    6    0    0 -0.14603839496E+03  0.69444022879E+02  0.36781935008E+03  0.40179691314E+03  0.00000000000E+00 0.  1.
         12    1    6    6    0    0 -0.12546026105E+02  0.17065919942E+02  0.16160977234E+03  0.16299192284E+03  0.00000000000E+00 0. -1.
         -5    1    3    3    0  503  0.38199697920E+02 -0.80627765247E+02 -0.41605732917E+02  0.98555468958E+02  0.47000000000E+01 0.  1.
         13    1    4    4    0    0  0.12798709488E+03 -0.83026009431E+01 -0.21169457492E+02  0.12999144421E+03  0.00000000000E+00 0. -1.
        -14    1    4    4    0    0  0.57006924417E+02 -0.21166394256E+02  0.43939672027E+02  0.75023332738E+02  0.00000000000E+00 0.  1.
</event>
<event>
12    1  0.8462562E-002  0.2077651E+03  0.7818608E-02  0.1143791E+00
         21   -1    0    0  503  502  0.00000000000E+00  0.00000000000E+00  0.18972493106E+03  0.18972493106E+03  0.00000000000E+00 0.  1.
         21   -1    0    0  501  503 -0.00000000000E+00 -0.00000000000E+00 -0.37803622366E+03  0.37803622366E+03  0.00000000000E+00 0.  1.
          6    2    1    2  501    0  0.27322280806E+02  0.10727968992E+03 -0.27440247726E+03  0.34286557467E+03  0.17321848592E+03 0.  0.
         24    2    3    3    0    0  0.29174641482E+02  0.77616177500E+02 -0.66724594768E+02  0.13301908771E+03  0.79790196351E+02 0.  0.
         -6    2    1    2    0  502 -0.27322280806E+02 -0.10727968992E+03  0.86091184663E+02  0.22489558005E+03  0.17581493381E+03 0.  0.
        -24    2    5    5    0    0 -0.48662130474E+02 -0.10197244066E+02  0.75462682799E+02  0.12481838220E+03  0.86098927472E+02 0.  0.
          5    1    3    3  501    0 -0.18523606766E+01  0.29663512417E+02 -0.20767788250E+03  0.20984648695E+03  0.47000000000E+01 0. -1.
        -13    1    4    4    0    0 -0.29197196247E+01 -0.13373029196E+02 -0.23718341243E+02  0.27384710769E+02  0.00000000000E+00 0.  1.
         14    1    4    4    0    0  0.32094361107E+02  0.90989206696E+02 -0.43006253524E+02  0.10563437694E+03  0.00000000000E+00 0. -1.
         -5    1    5    5    0  502  0.21339849668E+02 -0.97082445851E+02  0.10628501864E+02  0.10007719784E+03  0.47000000000E+01 0.  1.
         13    1    6    6    0    0 -0.56868029230E+02 -0.39218015109E+02  0.48973421496E+02  0.84678341213E+02  0.00000000000E+00 0. -1.
        -14    1    6    6    0    0  0.82058987565E+01  0.29020771043E+02  0.26489261304E+02  0.40140040991E+02  0.00000000000E+00 0.  1.
</event>
<event>
12    1  0.8462562E-002  0.1876084E+03  0.7818608E-02  0.1160705E+00
         21   -1    0    0  501  502  0.00000000000E+00  0.00000000000E+00  0.29529751580E+03  0.29529751580E+03  0.00000000000E+00 0. -1.
         21   -1    0    0  502  503 -0.00000000000E+00 -0.00000000000E+00 -0.12483202559E+03  0.12483202559E+03  0.00000000000E+00 0. -1.
         -6    2    1    2    0  503 -0.65778143609E+02 -0.33454292470E+02  0.39893284210E+02  0.19180294260E+03  0.17248461034E+03 0.  0.
        -24    2    3    3    0    0 -0.32773582713E+02 -0.20726716557E+02  0.92474588391E+02  0.12825630006E+03  0.79965145554E+02 0.  0.
          6    2    1    2  501    0  0.65778143609E+02  0.33454292470E+02  0.13057220601E+03  0.22832659879E+03  0.17215684963E+03 0.  0.
         24    2    5    5    0    0  0.95278253615E+02  0.60077090509E+02  0.12788041882E+03  0.18822216532E+03  0.79918580974E+02 0.  0.
          5    1    5    5  501    0 -0.29500110006E+02 -0.26622798039E+02  0.26917871848E+01  0.40104433471E+02  0.47000000000E+01 0. -1.
        -11    1    6    6    0    0  0.62063785028E+02 -0.97849087097E+00  0.89221353016E+02  0.10868910107E+03  0.00000000000E+00 0.  1.
         12    1    6    6    0    0  0.33214468587E+02  0.61055581380E+02  0.38659065804E+02  0.79533064257E+02  0.00000000000E+00 0. -1.
         -5    1    3    3    0  503 -0.33004560896E+02 -0.12727575913E+02 -0.52581304182E+02  0.63546642539E+02  0.47000000000E+01 0.  1.
         13    1    4    4    0    0 -0.29684973521E+02 -0.21858331166E+02  0.11601709865E+01  0.36882655694E+02  0.00000000000E+00 0. -1.
        -14    1    4    4    0    0 -0.30886091912E+01  0.11316146091E+01  0.91314417405E+02  0.91373644364E+02  0.00000000000E+00 0.  1.
</event>
<event>
12    1  0.8462562E-002  0.2927074E+03  0.7818608E-02  0.1090253E+00
         21   -1    0    0  503  502  0.00000000000E+00  0.00000000000E+00  0.16235323952E+04  0.16235323952E+04  0.00000000000E+00 0.  1.
         21   -1    0    0  501  503 -0.00000000000E+00 -0.00000000000E+00 -0.55006825184E+02  0.55006825184E+02  0.00000000000E+00 0. -1.
          6    2    1    2  501    0  0.10155647887E+03 -0.19935135968E+03  0.54496510587E+03  0.61394839566E+03  0.17289008909E+03 0.  0.
         24    2    3    3    0    0  0.13000103585E+03 -0.19927458295E+03  0.45675632645E+03  0.52114765491E+03  0.79736489333E+02 0.  0.
         -6    2    1    2    0  502 -0.10155647887E+03  0.19935135968E+03  0.10235604641E+04  0.10645908247E+04  0.18874034367E+03 0.  0.
        -24    2    5    5    0    0 -0.30457490784E+02  0.19835048750E+03  0.67116536283E+03  0.70506271000E+03  0.79874314569E+02 0.  0.
          5    1    3    3  501    0 -0.28444556982E+02 -0.76776726605E-01  0.88208779422E+02  0.92800740750E+02  0.47000000000E+01 0. -1.
        -11    1    4    4    0    0  0.17967422468E+02 -0.51005971971E+02  0.17873073318E+03  0.18673272994E+03  0.00000000000E+00 0.  1.
         12    1    4    4    0    0  0.11203361338E+03 -0.14826861098E+03  0.27802559327E+03  0.33441492497E+03  0.00000000000E+00 0. -1.
         -5    1    5    5    0  502 -0.71098988087E+02  0.10008721779E+01  0.35239510131E+03  0.35952811472E+03  0.47000000000E+01 0.  1.
         11    1    6    6    0    0 -0.55754292043E+02  0.11080561001E+03  0.41683796589E+03  0.43490264899E+03  0.00000000000E+00 0. -1.
        -12    1    6    6    0    0  0.25296801259E+02  0.87544877491E+02  0.25432739694E+03  0.27016006101E+03  0.00000000000E+00 0.  1.
</event>
<event>
12    1  0.8462562E-002  0.2143351E+03  0.7818608E-02  0.1138340E+00
         21   -1    0    0  503  502  0.00000000000E+00  0.00000000000E+00  0.29366799017E+03  0.29366799017E+03  0.00000000000E+00 0. -1.
         21   -1    0    0  501  503 -0.00000000000E+00 -0.00000000000E+00 -0.19888675897E+03  0.19888675897E+03  0.00000000000E+00 0. -1.
          6    2    1    2  501    0  0.12600456850E+03 -0.15897407561E+02 -0.67281169531E+02  0.22384716531E+03  0.17161269998E+03 0.  0.
         24    2    3    3    0    0  0.11309437995E+02  0.32908159676E+02 -0.24946548617E+02  0.92122959172E+02  0.81568737625E+02 0.  0.
         -6    2    1    2    0  502 -0.12600456850E+03  0.15897407561E+02  0.16206240074E+03  0.26870758383E+03  0.17265475674E+03 0.  0.
        -24    2    5    5    0    0 -0.13844766809E+03  0.16665137936E+01  0.18125218219E+03  0.24136372205E+03  0.78952889138E+02 0.  0.
          5    1    3    3  501    0  0.11469513050E+03 -0.48805567236E+02 -0.42334620914E+02  0.13172420613E+03  0.47000000000E+01 0. -1.
        -11    1    4    4    0    0  0.29144504620E+02  0.45987777322E+02 -0.38042742483E+02  0.66419335048E+02  0.00000000000E+00 0.  1.
         12    1    4    4    0    0 -0.17835066626E+02 -0.13079617646E+02  0.13096193866E+02  0.25703624124E+02  0.00000000000E+00 0. -1.
         -5    1    5    5    0  502  0.12443099598E+02  0.14230893767E+02 -0.19189781452E+02  0.27343861783E+02  0.47000000000E+01 0.  1.
         11    1    6    6    0    0 -0.12465739018E+03  0.10604083661E+02  0.10490989538E+03  0.16327277074E+03  0.00000000000E+00 0. -1.
        -12    1    6    6    0    0 -0.13790277910E+02 -0.89375698674E+01  0.76342286813E+02  0.78090951305E+02  0.00000000000E+00 0.  1.
</event>
<event>
12    1  0.8462562E-002  0.1955170E+03  0.7818608E-02  0.1154267E+00
         21   -1    0    0  501  502  0.00000000000E+00  0.00000000000E+00  0.32494646370E+03  0.32494646370E+03  0.00000000000E+00 0.  1.
         21   -1    0    0  502  503 -0.00000000000E+00 -0.00000000000E+00 -0.27001498008E+03  0.27001498008E+03  0.00000000000E+00 0. -1.
         -6    2    1    2    0  503  0.25214276108E+02 -0.90147833620E+02 -0.19747643690E+03  0.27568624820E+03  0.16805824195E+03 0.  0.
        -24    2    3    3    0    0  0.61553682370E+02 -0.62027634922E+02 -0.19746989581E+03  0.22949763418E+03  0.77707921309E+02 0.  0.
          6    2    1    2  501    0 -0.25214276108E+02  0.90147833620E+02  0.25240792051E+03  0.31927519558E+03  0.17165226636E+03 0.  0.
         24    2    5    5    0    0  0.17487613695E+02  0.10785742043E+03  0.13605824821E+03  0.19398985285E+03  0.84741821598E+02 0.  0.
          5    1    5    5  501    0 -0.42701889803E+02 -0.17709586812E+02  0.11634967230E+03  0.12528534273E+03  0.47000000000E+01 0. -1.
        -11    1    6    6    0    0  0.50013124492E+01  0.27850890677E+02  0.10250419209E+03  0.10633811468E+03  0.00000000000E+00 0.  1.
         12    1    6    6    0    0  0.12486301246E+02  0.80006529754E+02  0.33554056122E+02  0.87651738170E+02  0.00000000000E+00 0. -1.
         -5    1    3    3    0  503 -0.36339406262E+02 -0.28120198697E+02 -0.65410872154E-02  0.46188614019E+02  0.47000000000E+01 0.  1.
         11    1    4    4    0    0  0.25664295971E+02 -0.66479514101E+02 -0.16920260329E+03  0.18359657634E+03  0.00000000000E+00 0. -1.
        -12    1    4    4    0    0  0.35889386399E+02  0.44518791785E+01 -0.28267292519E+02  0.45901057839E+02  0.00000000000E+00 0.  1.
</event>
<event>
12    1  0.8462562E-002  0.2852571E+03  0.7818608E-02  0.1093502E+00
         21   -1    0    0  503  502  0.00000000000E+00  0.00000000000E+00  0.20456085500E+03  0.20456085500E+03  0.00000000000E+00 0. -1.
         21   -1    0    0  501  503 -0.00000000000E+00 -0.00000000000E+00 -0.72550633220E+03  0.72550633220E+03  0.00000000000E+00 0.  1.
          6    2    1    2  501    0 -0.45844078489E+02 -0.22258431047E+03 -0.57499866588E+03  0.63973398124E+03  0.16428830205E+03 0.  0.
         24    2    3    3    0    0 -0.78260775618E+02 -0.16951159208E+03 -0.51105538213E+03  0.55041215173E+03  0.83168529632E+02 0.  0.
         -6    2    1    2    0  502  0.45844078489E+02  0.22258431047E+03  0.54053188685E+02  0.29033320596E+03  0.17241278513E+03 0.  0.
        -24    2    5    5    0    0  0.78699606479E+02  0.18472599729E+03 -0.37459490298E+01  0.21368095278E+03  0.72994488239E+02 0.  0.
          5    1    3    3  501    0  0.32416697129E+02 -0.53072718385E+02 -0.63943283752E+02  0.89321829507E+02  0.47000000000E+01 0. -1.
        -13    1    4    4    0    0 -0.22066416164E+02 -0.16361334947E+02 -0.17168242638E+03  0.17386625760E+03  0.00000000000E+00 0.  1.
         14    1    4    4    0    0 -0.56194359454E+02 -0.15315025714E+03 -0.33937295575E+03  0.37654589413E+03  0.00000000000E+00 0. -1.
         -5    1    5    5    0  502 -0.32855527990E+02  0.37858313179E+02  0.57799137715E+02  0.76652253176E+02  0.47000000000E+01 0.  1.
         11    1    6    6    0    0  0.45658467563E+02  0.11431995448E+03  0.33314356647E+02  0.12752879679E+03  0.00000000000E+00 0. -1.
        -12    1    6    6    0    0  0.33041138917E+02  0.70406042812E+02 -0.37060305676E+02  0.86152155993E+02  0.00000000000E+00 0.  1.
</event>
<event>
12    1  0.8462562E-002  0.1986952E+03  0.7818608E-02  0.1150919E+00
         21   -1    0    0  501  502  0.00000000000E+00  0.00000000000E+00  0.17379716972E+03  0.17379716972E+03  0.00000000000E+00 0. -1.
         21   -1    0    0  502  503 -0.00000000000E+00 -0.00000000000E+00 -0.33085103628E+03  0.33085103628E+03  0.00000000000E+00 0. -1.
         -6    2    1    2    0  503  0.99104464837E+02  0.26475222565E+01 -0.22010233737E+03  0.29652117545E+03  0.17219484386E+03 0.  0.
        -24    2    3    3    0    0  0.10718196451E+03  0.52562398062E+02 -0.13172186097E+03  0.19459012308E+03  0.79144729062E+02 0.  0.
          6    2    1    2  501    0 -0.99104464837E+02 -0.26475222565E+01  0.63048470804E+02  0.20812703055E+03  0.17179361703E+03 0.  0.
         24    2    5    5    0    0 -0.11554259714E+03  0.11971968258E+02  0.11897992523E+00  0.14129775165E+03  0.80446383932E+02 0.  0.
          5    1    5    5  501    0  0.16438132300E+02 -0.14619490514E+02  0.62929490878E+02  0.66829278903E+02  0.47000000000E+01 0. -1.
        -13    1    6    6    0    0 -0.76866174835E+02 -0.13575095434E+02  0.32712514567E+02  0.84633330663E+02  0.00000000000E+00 0.  1.
         14    1    6    6    0    0 -0.38676422303E+02  0.25547063691E+02 -0.32593534642E+02  0.56664420987E+02  0.00000000000E+00 0. -1.
         -5    1    3    3    0  503 -0.80774996760E+01 -0.49914875805E+02 -0.88380476399E+02  0.10193105236E+03  0.47000000000E+01 0.  1.
         13    1    4    4    0    0  0.70956325536E+01 -0.14940365716E+02 -0.39021890573E+02  0.42382431183E+02  0.00000000000E+00 0. -1.
        -14    1    4    4    0    0  0.10008633196E+03  0.67502763778E+02 -0.92699970394E+02  0.15220769190E+03  0.00000000000E+00 0.  1.
</event>
<event>
12    1  0.8462562E-002  0.1784579E+03  0.7818608E-02  0.1170236E+00
         21   -1    0    0  503  502  0.00000000000E+00  0.00000000000E+00  0.11069325811E+04  0.11069325811E+04  0.00000000000E+00 0. -1.
         21   -1    0    0  501  503 -0.00000000000E+00 -0.00000000000E+00 -0.32410476100E+03  0.32410476100E+03  0.00000000000E+00 0. -1.
          6    2    1    2  501    0 -0.39242029619E+02 -0.17442834735E+02 -0.29266620377E+03  0.34083799565E+03  0.16933057337E+03 0.  0.
         24    2    3    3    0    0 -0.33205154753E+02  0.48907325757E+02 -0.22165217206E+03  0.24335019973E+03  0.81210378097E+02 0.  0.
         -6    2    1    2    0  502  0.39242029619E+02  0.17442834735E+02  0.10754940238E+04  0.10901993464E+04  0.17321382820E+03 0.  0.
        -24    2    5    5    0    0  0.81730463577E+02 -0.26966259471E+02  0.71243876557E+03  0.72194855522E+03  0.78953618532E+02 0.  0.
          5    1    3    3  501    0 -0.60368748657E+01 -0.66350160493E+02 -0.71014031701E+02  0.97487795923E+02  0.47000000000E+01 0. -1.
        -11    1    4    4    0    0 -0.14113381735E+02  0.19694161651E+02 -0.60918262493E+01  0.24983152207E+02  0.00000000000E+00 0.  1.
         12    1    4    4    0    0 -0.19091773018E+02  0.29213164107E+02 -0.21556034582E+03  0.21836704752E+03  0.00000000000E+00 0. -1.
         -5    1    5    5    0  502 -0.42488433958E+02  0.44409094207E+02  0.36305525827E+03  0.36825079121E+03  0.47000000000E+01 0.  1.
         13    1    6    6    0    0  0.58649401668E+02 -0.12944318829E+02  0.66213772604E+03  0.66485613177E+03  0.00000000000E+00 0. -1.
        -14    1    6    6    0    0  0.23081061909E+02 -0.14021940642E+02  0.50301039523E+02  0.57092423449E+02  0.00000000000E+00 0.  1.
</event>
<event>
12    1  0.8462562E-002  0.1755142E+03  0.7818608E-02  0.1172433E+00
         21   -1    0    0  501  502  0.00000000000E+00  0.00000000000E+00  0.30361674969E+03  0.30361674969E+03  0.00000000000E+00 0. -1.
         21   -1    0    0  502  503 -0.00000000000E+00 -0.00000000000E+00 -0.14758995532E+03  0.14758995532E+03  0.00000000000E+00 0. -1.
         -6    2    1    2    0  503  0.30932951944E+02  0.73608155112E+01 -0.48922473138E+02  0.18137447653E+03  0.17173311631E+03 0.  0.
        -24    2    3    3    0    0 -0.20867114021E+02  0.25775677324E+02 -0.80427593075E+02  0.11783695571E+03  0.79480364961E+02 0.  0.
          6    2    1    2  501    0 -0.30932951944E+02 -0.73608155112E+01  0.20494926751E+03  0.26983222848E+03  0.17260996540E+03 0.  0.
         24    2    5    5    0    0 -0.23192405550E+02  0.12652665649E+02  0.24653758613E+02  0.88203442179E+02  0.80461554641E+02 0.  0.
          5    1    5    5  501    0 -0.77405463944E+01 -0.20013481160E+02  0.18029550889E+03  0.18162878630E+03  0.47000000000E+01 0. -1.
        -11    1    6    6    0    0 -0.17618463583E+02  0.44427954056E+02  0.28607862313E+02  0.55701554258E+02  0.00000000000E+00 0.  1.
         12    1    6    6    0    0 -0.55739419668E+01 -0.31775288407E+02 -0.39541036992E+01  0.32501887921E+02  0.00000000000E+00 0. -1.
         -5    1    3    3    0  503  0.51800065965E+02 -0.18414861813E+02  0.31505119937E+02  0.63537520819E+02  0.47000000000E+01 0.  1.
         11    1    4    4    0    0 -0.93447448530E+01  0.48278307823E+02 -0.21411080026E+02  0.53633512010E+02  0.00000000000E+00 0. -1.
        -12    1    4    4    0    0 -0.11522369168E+02 -0.22502630499E+02 -0.59016513049E+02  0.64203443701E+02  0.00000000000E+00 0.  1.
</event>
<event>
12    1  0.8462562E-002  0.1777642E+03  0.7818608E-02  0.1170289E+00
         21   -1    0    0  503  502  0.00000000000E+00  0.00000000000E+00  0.87305432802E+02  0.87305432802E+02  0.00000000000E+00 0.  1.
         21   -1    0    0  501  503 -0.00000000000E+00 -0.00000000000E+00 -0.36069238510E+03  0.36069238510E+03  0.00000000000E+00 0.  1.
          6    2    1    2  501    0  0.14102848308E+02  0.39167128516E+02 -0.15033954085E+03  0.23281339726E+03  0.17282113909E+03 0.  0.
         24    2    3    3    0    0 -0.46652377506E+02 -0.80140086583E+01 -0.48679457539E+02  0.10524333922E+03  0.80410212058E+02 0.  0.
         -6    2    1    2    0  502 -0.14102848308E+02 -0.39167128516E+02 -0.12304741145E+03  0.21518442064E+03  0.17155382577E+03 0.  0.
        -24    2    5    5    0    0  0.23656781659E+02  0.28566830509E+02 -0.29597764213E+02  0.93658269427E+02  0.80747363188E+02 0.  0.
          5    1    3    3  501    0  0.60755225814E+02  0.47181137174E+02 -0.10166008331E+03  0.12757005804E+03  0.47000000000E+01 0. -1.
        -13    1    4    4    0    0 -0.12044583260E+02 -0.32192157685E+02 -0.52610927996E+02  0.62843589546E+02  0.00000000000E+00 0.  1.
         14    1    4    4    0    0 -0.34607794245E+02  0.24178149026E+02  0.39314704577E+01  0.42399749679E+02  0.00000000000E+00 0. -1.
         -5    1    5    5    0  502 -0.37759629968E+02 -0.67733959025E+02 -0.93449647238E+02  0.12152615122E+03  0.47000000000E+01 0.  1.
         11    1    6    6    0    0 -0.55426486364E+01 -0.26066820476E+02 -0.12234670335E+02  0.29323834024E+02  0.00000000000E+00 0. -1.
        -12    1    6    6    0    0  0.29199430296E+02  0.54633650985E+02 -0.17363093877E+02  0.64334435403E+02  0.00000000000E+00 0.  1.
</event>
<event>
12    1  0.8462562E-002  0.2940600E+03  0.7818608E-02  0.1088701E+00
         21   -1    0    0  501  502  0.00000000000E+00  0.00000000000E+00  0.12070642259E+03  0.12070642259E+03  0.00000000000E+00 0. -1.
         21   -1    0    0  502  503 -0.00000000000E+00 -0.00000000000E+00 -0.71978110483E+03  0.71978110483E+03  0.00000000000E+00 0.  1.
         -6    2    1    2    0  503  0.19985556876E+03 -0.12048123405E+03 -0.24721303298E+03  0.38416868094E+03  0.17892265260E+03 0.  0.
        -24    2    3    3    0    0  0.14447073305E+03 -0.13487859869E+03 -0.11949866243E+03  0.24414077450E+03  0.79124954069E+02 0.  0.
          6    2    1    2  501    0 -0.19985556876E+03  0.12048123405E+03 -0.35186164926E+03  0.45631884648E+03  0.17309619669E+03 0.  0.
         24    2    5    5    0    0 -0.21548822067E+03  0.11938847752E+03 -0.35605432305E+03  0.43942972465E+03  0.75066771170E+02 0.  0.
          5    1    5    5  501    0  0.15632651908E+02  0.10927565243E+01  0.41926737904E+01  0.16889121825E+02  0.47000000000E+01 0. -1.
        -11    1    6    6    0    0 -0.85783461248E+02  0.69337672264E+02 -0.21348006566E+03  0.24029201704E+03  0.00000000000E+00 0.  1.
         12    1    6    6    0    0 -0.12970475942E+03  0.50050805257E+02 -0.14257425739E+03  0.19913770761E+03  0.00000000000E+00 0. -1.
         -5    1    3    3    0  503  0.55384835708E+02  0.14397364647E+02 -0.12771437056E+03  0.14002790644E+03  0.47000000000E+01 0.  1.
         11    1    4    4    0    0  0.65741756931E+01 -0.44086545225E+02 -0.89996042158E+01  0.45473466241E+02  0.00000000000E+00 0. -1.
        -12    1    4    4    0    0  0.13789655736E+03 -0.90792053467E+02 -0.11049905821E+03  0.19866730826E+03  0.00000000000E+00 0.  1.
</event>
<event>
12    1  0.8462562E-002  0.1777565E+03  0.7818608E-02  0.1170637E+00
         21   -1    0    0  501  502  0.00000000000E+00  0.00000000000E+00  0.51641326773E+02  0.51641326773E+02  0.00000000000E+00 0.  1.
         21   -1    0    0  502  503 -0.00000000000E+00 -0.00000000000E+00 -0.10869278691E+04  0.10869278691E+04  0.00000000000E+00 0.  1.
         -6    2    1    2    0  503 -0.10953263255E+02  0.42766810584E+02 -0.13565085632E+03  0.22154043645E+03  0.16949936902E+03 0.  0.
        -24    2    3    3    0    0 -0.70323056845E+02  0.33327408000E+02 -0.11601178693E+03  0.15812389477E+03  0.74083621281E+02 0.  0.
          6    2    1    2  501    0  0.10953263255E+02 -0.42766810584E+02 -0.89963568605E+03  0.91702875947E+03  0.17218711920E+03 0.  0.
         24    2    5    5    0    0  0.60821676236E+02  0.82684175896E+01 -0.64317047810E+03  0.65078085616E+03  0.77973173705E+02 0.  0.
          5    1    5    5  501    0 -0.49868412981E+02 -0.51035228174E+02 -0.25646520796E+03  0.26624790332E+03  0.47000000000E+01 0. -1.
        -11    1    6    6    0    0  0.94059211578E+01 -0.11083035234E+02 -0.44214459380E+03  0.44238348393E+03  0.00000000000E+00 0.  1.
         12    1    6    6    0    0  0.51415755078E+02  0.19351452824E+02 -0.20102588429E+03  0.20839737223E+03  0.00000000000E+00 0. -1.
         -5    1    3    3    0  503  0.59369793590E+02  0.94394025837E+01 -0.19639069396E+02  0.63416541681E+02  0.47000000000E+01 0.  1.
         11    1    4    4    0    0 -0.36647778383E+02  0.19011517995E+02 -0.11425995216E+03  0.12149005780E+03  0.00000000000E+00 0. -1.
        -12    1    4    4    0    0 -0.33675278461E+02  0.14315890005E+02 -0.17518347720E+01  0.36633836970E+02  0.00000000000E+00 0.  1.
</event>
<event>
12    1  0.8462562E-002  0.2429860E+03  0.7818608E-02  0.1117868E+00
         21   -1    0    0  503  502  0.00000000000E+00  0.00000000000E+00  0.18614901175E+03  0.18614901175E+03  0.00000000000E+00 0. -1.
         21   -1    0    0  501  503 -0.00000000000E+00 -0.00000000000E+00 -0.34041285799E+03  0.34041285799E+03  0.00000000000E+00 0.  1.
          6    2    1    2  501    0  0.12101993910E+03 -0.11921904061E+03 -0.78247372352E+01  0.24311191052E+03  0.17373304010E+03 0.  0.
         24    2    3    3    0    0  0.10439467558E+03 -0.99900383400E+02 -0.67399223648E+02  0.17814407745E+03  0.79462708789E+02 0.  0.
         -6    2    1    2    0  502 -0.12101993910E+03  0.11921904061E+03 -0.14643910900E+03  0.28344995922E+03  0.17332184350E+03 0.  0.
        -24    2    5    5    0    0 -0.89287878832E+02  0.54332500699E+02 -0.15323306704E+02  0.13368136998E+03  0.81924105203E+02 0.  0.
          5    1    3    3  501    0  0.16625263520E+02 -0.19318657208E+02  0.59574486413E+02  0.64967833078E+02  0.47000000000E+01 0. -1.
        -11    1    4    4    0    0  0.10288688718E+03 -0.61425629578E+02 -0.28003736394E+02  0.12305701432E+03  0.00000000000E+00 0.  1.
         12    1    4    4    0    0  0.15077884017E+01 -0.38474753822E+02 -0.39395487254E+02  0.55087063123E+02  0.00000000000E+00 0. -1.
         -5    1    5    5    0  502 -0.31732060267E+02  0.64886539908E+02 -0.13111580230E+03  0.14976858924E+03  0.47000000000E+01 0.  1.
         13    1    6    6    0    0 -0.59684936634E+02  0.75592712709E+02 -0.96664940186E+01  0.96798713743E+02  0.00000000000E+00 0. -1.
        -14    1    6    6    0    0 -0.29602942198E+02 -0.21260212009E+02 -0.56568126850E+01  0.36882656239E+02  0.00000000000E+00 0.  1.
</event>
<event>
12    1  0.8462562E-002  0.2069669E+03  0.7818608E-02  0.1144169E+00
         21   -1    0    0  503  502  0.00000000000E+00  0.00000000000E+00  0.86084895101E+02  0.86084895101E+02  0.00000000000E+00 0. -1.
         21   -1    0    0  501  503 -0.00000000000E+00 -0.00000000000E+00 -0.70927872768E+03  0.70927872768E+03  0.00000000000E+00 0. -1.
          6    2    1    2  501    0 -0.92092913859E+02 -0.66370998668E+02 -0.53039934990E+03  0.56934943661E+03  0.17305807219E+03 0.  0.
         24    2    3    3    0    0  0.79394092984E+01 -0.70581437046E+02 -0.21224675319E+03  0.23578181489E+03  0.74159331972E+02 0.  0.
         -6    2    1    2    0  502  0.92092913859E+02  0.66370998668E+02 -0.92794482682E+02  0.22601418617E+03  0.17200401765E+03 0.  0.
        -24    2    5    5    0    0  0.74256596986E+02  0.82594472265E+02 -0.12518225588E+03  0.18536454721E+03  0.79709027907E+02 0.  0.
          5    1    3    3  501    0 -0.10003232316E+03  0.42104383775E+01 -0.31815259671E+03  0.33356762172E+03  0.47000000000E+01 0. -1.
        -11    1    4    4    0    0  0.89571241861E+01 -0.62320773036E+02 -0.73476163029E+02  0.96761848674E+02  0.00000000000E+00 0.  1.
         12    1    4    4    0    0 -0.10177148877E+01 -0.82606640098E+01 -0.13877059016E+03  0.13901996621E+03  0.00000000000E+00 0. -1.
         -5    1    5    5    0  502  0.17836316873E+02 -0.16223473596E+02  0.32387773197E+02  0.40649638962E+02  0.47000000000E+01 0.  1.
         13    1    6    6    0    0  0.55490042385E+02  0.14147498559E+02 -0.24747901027E+02  0.62383933225E+02  0.00000000000E+00 0. -1.
        -14    1    6    6    0    0  0.18766554601E+02  0.68446973706E+02 -0.10043435485E+03  0.12298061398E+03  0.00000000000E+00 0.  1.
</event>
<event>
12    1  0.8462562E-002  0.1801265E+03  0.7818608E-02  0.1167843E+00
         21   -1    0    0  501  502  0.00000000000E+00  0.00000000000E+00  0.20311956962E+03  0.20311956962E+03  0.00000000000E+00 0.  1.
         21   -1    0    0  502  503 -0.00000000000E+00 -0.00000000000E+00 -0.16264135977E+03  0.16264135977E+03  0.00000000000E+00 0.  1.
         -6    2    1    2    0  503 -0.38714286119E+01 -0.50905517332E+02 -0.66245470357E+01  0.17957760380E+03  0.17204031943E+03 0.  0.
        -24    2    3    3    0    0 -0.99451519840E+01 -0.33077641059E+02  0.63986175652E+02  0.10634723137E+03  0.77604552442E+02 0.  0.
          6    2    1    2  501    0  0.38714286119E+01  0.50905517332E+02  0.47102756890E+02  0.18618332558E+03  0.17274027140E+03 0.  0.
         24    2    5    5    0    0 -0.62452745050E+01  0.43718184388E+02 -0.40073010609E+02  0.98003339897E+02  0.77772265956E+02 0.  0.
          5    1    5    5  501    0  0.10116703117E+02  0.71873329447E+01  0.87175767499E+02  0.88179985688E+02  0.47000000000E+01 0. -1.
        -11    1    6    6    0    0 -0.26561441310E+02  0.51144288973E+02 -0.64044791738E+01  0.57985048180E+02  0.00000000000E+00 0.  1.
         12    1    6    6    0    0  0.20316166805E+02 -0.74261045850E+01 -0.33668531435E+02  0.40018291717E+02  0.00000000000E+00 0. -1.
         -5    1    3    3    0  503  0.60737233720E+01 -0.17827876273E+02 -0.70610722688E+02  0.73230372432E+02  0.47000000000E+01 0.  1.
         13    1    4    4    0    0 -0.70486663321E+01 -0.15605129594E+01  0.73065073780E+02  0.73420868316E+02  0.00000000000E+00 0. -1.
        -14    1    4    4    0    0 -0.28964856518E+01 -0.31517128100E+02 -0.90788981284E+01  0.32926363055E+02  0.00000000000E+00 0.  1.
</event>
<event>
12    1  0.8462562E-002  0.2257471E+03  0.7818608E-02  0.1129799E+00
         21   -1    0    0  503  502  0.00000000000E+00  0.00000000000E+00  0.29785778675E+03  0.29785778675E+03  0.00000000000E+00 0.  1.
         21   -1    0    0  501  503 -0.00000000000E+00 -0.00000000000E+00 -0.17202063180E+03  0.17202063180E+03  0.00000000000E+00 0. -1.
          6    2    1    2  501    0  0.14153131702E+03 -0.34935241057E+02  0.84532154857E+02  0.24038361741E+03  0.17142640855E+03 0.  0.
         24    2    3    3    0    0  0.12458207384E+02  0.16397945456E+02  0.34163567633E+02  0.92552469652E+02  0.83514733664E+02 0.  0.
         -6    2    1    2    0  502 -0.14153131702E+03  0.34935241057E+02  0.41305000094E+02  0.22949480114E+03  0.17236640031E+03 0.  0.
        -24    2    5    5    0    0 -0.10302911023E+03 -0.43167508695E+02  0.12061475189E+02  0.13751799323E+03  0.79292420288E+02 0.  0.
          5    1    3    3  501    0  0.12907310963E+03 -0.51333186513E+02  0.50368587224E+02  0.14783114775E+03  0.47000000000E+01 0. -1.
        -11    1    4    4    0    0 -0.15987698702E+02 -0.25769652445E+02  0.28070543248E+02  0.41323563437E+02  0.00000000000E+00 0.  1.
         12    1    4    4    0    0  0.28445906086E+02  0.42167597901E+02  0.60930243855E+01  0.51228906215E+02  0.00000000000E+00 0. -1.
         -5    1    5    5    0  502 -0.38502206784E+02  0.78102749752E+02  0.29243524906E+02  0.91976807919E+02  0.47000000000E+01 0.  1.
         11    1    6    6    0    0 -0.81972033354E+02 -0.25792273283E+02 -0.26808656012E+02  0.90018662790E+02  0.00000000000E+00 0. -1.
        -12    1    6    6    0    0 -0.21057076877E+02 -0.17375235412E+02  0.38870131201E+02  0.47499330436E+02  0.00000000000E+00 0.  1.
</event>
<event>
12    1  0.8462562E-002  0.2139536E+03  0.7818608E-02  0.1138586E+00
         21   -1    0    0  503  502  0.00000000000E+00  0.00000000000E+00  0.12070831683E+04  0.12070831683E+04  0.00000000000E+00 0. -1.
         21   -1    0    0  501  503 -0.00000000000E+00 -0.00000000000E+00 -0.52499695473E+02  0.52499695473E+02  0.00000000000E+00 0. -1.
          6    2    1    2  501    0 -0.10915050079E+03  0.61721165705E+02  0.24482659916E+03  0.32514026301E+03  0.17335741361E+03 0.  0.
         24    2    3    3    0    0 -0.68525662200E+02 -0.32515076723E+02  0.10246389262E+03  0.14958378459E+03  0.78252557333E+02 0.  0.
         -6    2    1    2    0  502  0.10915050079E+03 -0.61721165705E+02  0.90975687367E+03  0.93444260077E+03  0.17263276290E+03 0.  0.
        -24    2    5    5    0    0  0.14436748745E+03 -0.36394497419E+02  0.68206809126E+03  0.70261087751E+03  0.79237826844E+02 0.  0.
          5    1    3    3  501    0 -0.40624838591E+02  0.94236242428E+02  0.14236270655E+03  0.17555647841E+03  0.47000000000E+01 0. -1.
        -11    1    4    4    0    0 -0.46515080208E+02 -0.58315603741E+02  0.63830464778E+02  0.98176833113E+02  0.00000000000E+00 0.  1.
         12    1    4    4    0    0 -0.22010581992E+02  0.25800527018E+02  0.38633427838E+02  0.51406951480E+02  0.00000000000E+00 0. -1.
         -5    1    5    5    0  502 -0.35216986655E+02 -0.25326668287E+02  0.22768878240E+03  0.23183172326E+03  0.47000000000E+01 0.  1.
         11    1    6    6    0    0  0.53811099407E+02 -0.51357927512E+02  0.36615487361E+03  0.37363439698E+03  0.00000000000E+00 0. -1.
        -12    1    6    6    0    0  0.90556388039E+02  0.14963430093E+02  0.31591321766E+03  0.32897648054E+03  0.00000000000E+00 0.  1.
</event>
<event>
12    1  0.8462562E-002  0.2219429E+03  0.7818608E-02  0.1132445E+00
         21   -1    0    0  503  502  0.00000000000E+00  0.00000000000E+00  0.20783064841E+04  0.20783064841E+04  0.00000000000E+00 0.  1.
         21   -1    0    0  501  503 -0.00000000000E+00 -0.00000000000E+00 -0.28645217488E+02  0.28645217488E+02  0.00000000000E+00 0.  1.
          6    2    1    2  501    0  0.14090688580E+03  0.72219342216E+01  0.58710152673E+03  0.62764792528E+03  0.17130910257E+03 0.  0.
         24    2    3    3    0    0  0.97926229245E+02 -0.13987894944E+02  0.19503266470E+03  0.23263238601E+03  0.79340274409E+02 0.  0.
         -6    2    1    2    0  502 -0.14090688580E+03 -0.72219342216E+01  0.14625597399E+04  0.14793037763E+04  0.17132356248E+03 0.  0.
        -24    2    5    5    0    0 -0.22056376023E+02  0.25108535930E+02  0.85170436847E+03  0.85613680208E+03  0.80330382238E+02 0.  0.
          5    1    3    3  501    0  0.42980656555E+02  0.21209829166E+02  0.39206886203E+03  0.39501553927E+03  0.47000000000E+01 0. -1.
        -13    1    4    4    0    0  0.78732702507E+02  0.25609884943E+02  0.12872475848E+03  0.15305152105E+03  0.00000000000E+00 0.  1.
         14    1    4    4    0    0  0.19193526739E+02 -0.39597779887E+02  0.66307906215E+02  0.79580864957E+02  0.00000000000E+00 0. -1.
         -5    1    5    5    0  502 -0.11885050978E+03 -0.32330470152E+02  0.61085537139E+03  0.62316697419E+03  0.47000000000E+01 0.  1.
         13    1    6    6    0    0 -0.43363594795E+02  0.16523374483E+02  0.26852891747E+03  0.27250908751E+03  0.00000000000E+00 0. -1.
        -14    1    6    6    0    0  0.21307218773E+02  0.85851614474E+01  0.58317545100E+03  0.58362771458E+03  0.00000000000E+00 0.  1.
</event>
<event>
12    1  0.8462562E-002  0.1758229E+03  0.7818608E-02  0.1172135E+00
         21   -1    0    0  501  502  0.00000000000E+00  0.00000000000E+00  0.21821902759E+04  0.21821902759E+04  0.00000000000E+00 0. -1.
         21   -1    0    0  502  503 -0.00000000000E+00 -0.00000000000E+00 -0.15651408223E+02  0.15651408223E+02  0.00000000000E+00 0. -1.
         -6    2    1    2    0  503  0.20380899763E+02 -0.28777318751E+02  0.14324913100E+04  0.14432411568E+04  0.17225030725E+03 0.  0.
        -24    2    3    3    0    0  0.24511592692E+02  0.23971207542E+02  0.12474834474E+04  0.12507587709E+04  0.83708509533E+02 0.  0.
          6    2    1    2  501    0 -0.20380899763E+02  0.28777318751E+02  0.73404755766E+03  0.75460052729E+03  0.17132607429E+03 0.  0.
         24    2    5    5    0    0 -0.16448707663E+02 -0.50187523396E+02  0.44949935795E+03  0.45923520030E+03  0.77832826681E+02 0.  0.
          5    1    5    5  501    0 -0.39321920997E+01  0.78964842147E+02  0.28454819971E+03  0.29536532699E+03  0.47000000000E+01 0. -1.
        -13    1    6    6    0    0  0.98900512238E+01  0.13253395547E+02  0.19267335113E+03  0.19338171020E+03  0.00000000000E+00 0.  1.
         14    1    6    6    0    0 -0.26338758887E+02 -0.63440918944E+02  0.25682600682E+03  0.26585349010E+03  0.00000000000E+00 0. -1.
         -5    1    3    3    0  503 -0.41306929288E+01 -0.52748526293E+02  0.18500786263E+03  0.19248238591E+03  0.47000000000E+01 0.  1.
         13    1    4    4    0    0 -0.27991053388E+02  0.15279443202E+00  0.62024751321E+03  0.62087881270E+03  0.00000000000E+00 0. -1.
        -14    1    4    4    0    0  0.52502646079E+02  0.23818413110E+02  0.62723593416E+03  0.62987995821E+03  0.00000000000E+00 0.  1.
</event>
<event>
12    1  0.8462562E-002  0.1881096E+03  0.7818608E-02  0.1160339E+00
         21   -1    0    0  503  502  0.00000000000E+00  0.00000000000E+00  0.82377034122E+02  0.82377034122E+02  0.00000000000E+00 0.  1.
         21   -1    0    0  501  503 -0.00000000000E+00 -0.00000000000E+00 -0.42828485975E+03  0.42828485975E+03  0.00000000000E+00 0. -1.
          6    2    1    2  501    0 -0.72884253974E+02 -0.10781418076E+02 -0.18052333535E+03  0.26071804121E+03  0.17308052737E+03 0.  0.
         24    2    3    3    0    0 -0.36549561054E+02 -0.72959672565E+02 -0.92796419576E+02  0.14712029919E+03  0.79838729411E+02 0.  0.
         -6    2    1    2    0  502  0.72884253974E+02  0.10781418076E+02 -0.16538449028E+03  0.24994385267E+03  0.17231235129E+03 0.  0.
        -24    2    5    5    0    0 -0.96788695264E+01 -0.12956302759E+02 -0.24294689688E+02  0.84690802513E+02  0.79503168407E+02 0.  0.
          5    1    3    3  501    0 -0.36334692919E+02  0.62178254489E+02 -0.87726915770E+02  0.11359774202E+03  0.47000000000E+01 0. -1.
        -13    1    4    4    0    0  0.51872583092E+01 -0.42783434549E+02 -0.25010680432E+01  0.43169262930E+02  0.00000000000E+00 0.  1.
         14    1    4    4    0    0 -0.41736819364E+02 -0.30176238017E+02 -0.90295351533E+02  0.10395103626E+03  0.00000000000E+00 0. -1.
         -5    1    5    5    0  502  0.82563123500E+02  0.23737720836E+02 -0.14108980060E+03  0.16525305015E+03  0.47000000000E+01 0.  1.
         13    1    6    6    0    0 -0.21679450754E+02 -0.29635415760E+02 -0.43250455483E+02  0.56734983491E+02  0.00000000000E+00 0. -1.
        -14    1    6    6    0    0  0.12000581228E+02  0.16679113001E+02  0.18955765794E+02  0.27955819021E+02  0.00000000000E+00 0.  1.
</event>
<event>
12    1  0.8462562E-002  0.1882757E+03  0.7818608E-02  0.1160751E+00
         21   -1    0    0  503  502  0.00000000000E+00  0.00000000000E+00  0.95087757890E+02  0.95087757890E+02  0.00000000000E+00 0.  1.
         21   -1    0    0  501  503 -0.00000000000E+00 -0.00000000000E+00 -0.37801962620E+03  0.37801962620E+03  0.00000000000E+00 0.  1.
          6    2    1    2  501    0  0.71727853568E+02 -0.27697976654E+02 -0.18146102708E+03  0.25922877578E+03  0.16840246719E+03 0.  0.
         24    2    3    3    0    0  0.29108106275E+02 -0.80096002725E+02 -0.11355063657E+03  0.16333348322E+03  0.80755360030E+02 0.  0.
         -6    2    1    2    0  502 -0.71727853568E+02  0.27697976654E+02 -0.10147084123E+03  0.21387860831E+03  0.17185943263E+03 0.  0.
        -24    2    5    5    0    0  0.25427989982E+02  0.33252100520E+02 -0.24410518032E+02  0.89659086333E+02  0.75436022615E+02 0.  0.
          5    1    3    3  501    0  0.42619747293E+02  0.52398026072E+02 -0.67910390508E+02  0.95895292556E+02  0.47000000000E+01 0. -1.
        -11    1    4    4    0    0  0.55533995707E+01  0.60994244303E+01  0.86471664853E+01  0.11950594688E+02  0.00000000000E+00 0.  1.
         12    1    4    4    0    0  0.23554706704E+02 -0.86195427155E+02 -0.12219780305E+03  0.15138288854E+03  0.00000000000E+00 0. -1.
         -5    1    5    5    0  502 -0.97155843550E+02 -0.55541238667E+01 -0.77060323201E+02  0.12421952197E+03  0.47000000000E+01 0.  1.
         11    1    6    6    0    0 -0.13544909769E+02 -0.21396285670E+01  0.17596603146E+02  0.22308810666E+02  0.00000000000E+00 0. -1.
        -12    1    6    6    0    0  0.38972899751E+02  0.35391729087E+02 -0.42007121178E+02  0.67350275667E+02  0.00000000000E+00 0.  1.
</event>
<event>
12    1  0.8462562E-002  0.1872066E+03  0.7818608E-02  0.1162297E+00
         21   -1    0    0  501  502  0.00000000000E+00  0.00000000000E+00  0.11516555627E+03  0.11516555627E+03  0.00000000000E+00 0.  1.
         21   -1    0    0  502  503 -0.00000000000E+00 -0.00000000000E+00 -0.37562944255E+03  0.37562944255E+03  0.00000000000E+00 0.  1.
         -6    2    1    2    0  503 -0.17124635331E+02  0.71893202533E+02 -0.24517641695E+03  0.30847653672E+03  0.17200119933E+03 0.  0.
        -24    2    3    3    0    0 -0.59949251019E+01  0.89051623839E+02 -0.25765304665E+03  0.28406264395E+03  0.79626392636E+02 0.  0.
          6    2    1    2  501    0  0.17124635331E+02 -0.71893202533E+02 -0.15287469331E+02  0.18231846210E+03  0.16596514452E+03 0.  0.
         24    2    5    5    0    0  0.80048161367E+01  0.26321685770E+02  0.31278592370E+01  0.81866733825E+02  0.77042004002E+02 0.  0.
          5    1    5    5  501    0  0.91198191945E+01 -0.98214888303E+02 -0.18415328569E+02  0.10045172827E+03  0.47000000000E+01 0. -1.
        -11    1    6    6    0    0  0.25500379644E+02  0.24673201927E+02  0.32187452839E+02  0.47906871903E+02  0.00000000000E+00 0.  1.
         12    1    6    6    0    0 -0.17495563507E+02  0.16484838423E+01 -0.29059593602E+02  0.33959861921E+02  0.00000000000E+00 0. -1.
         -5    1    3    3    0  503 -0.11129710229E+02 -0.17158421306E+02  0.12476629698E+02  0.24413892769E+02  0.47000000000E+01 0.  1.
         11    1    4    4    0    0 -0.12114538879E+02  0.89670078286E+01 -0.96595365841E+00  0.15103057575E+02  0.00000000000E+00 0. -1.
        -12    1    4    4    0    0  0.61196137769E+01  0.80084616011E+02 -0.25668709299E+03  0.26895958637E+03  0.00000000000E+00 0.  1.
</event>
<event>
12    1  0.8462562E-002  0.2080012E+03  0.7818608E-02  0.1144202E+00
         21   -1    0    0  501  502  0.00000000000E+00  0.00000000000E+00  0.20362185866E+03  0.20362185866E+03  0.00000000000E+00 0. -1.
         21   -1    0    0  502  503 -0.00000000000E+00 -0.00000000000E+00 -0.20932400624E+03  0.20932400624E+03  0.00000000000E+00 0. -1.
         -6    2    1    2    0  503 -0.51052727578E+02 -0.92887719788E+02  0.17619946630E+02  0.20874619216E+03  0.17896927317E+03 0.  0.
        -24    2    3    3    0    0  0.31485883560E+02 -0.12468287657E+02 -0.19600979728E+02  0.87554629941E+02  0.78324937007E+02 0.  0.
          6    2    1    2  501    0  0.51052727578E+02  0.92887719788E+02 -0.23322094208E+02  0.20419967275E+03  0.17297131783E+03 0.  0.
         24    2    5    5    0    0  0.52704337616E+02 -0.11606510040E+02 -0.14679868663E+02  0.99230391787E+02  0.81967760927E+02 0.  0.
          5    1    5    5  501    0 -0.16516100374E+01  0.10449422983E+03 -0.86422255446E+01  0.10496928096E+03  0.47000000000E+01 0. -1.
        -13    1    6    6    0    0  0.14676802676E+02 -0.11406162629E+02  0.33222271314E+02  0.38068732497E+02  0.00000000000E+00 0.  1.
         14    1    6    6    0    0  0.38027534940E+02 -0.20034741075E+00 -0.47902139977E+02  0.61161659290E+02  0.00000000000E+00 0. -1.
         -5    1    3    3    0  503 -0.82538611139E+02 -0.80419432131E+02  0.37220926357E+02  0.12119156221E+03  0.47000000000E+01 0.  1.
         13    1    4    4    0    0 -0.14517399588E+02 -0.31563368784E+02 -0.13904502402E+02  0.37421067954E+02  0.00000000000E+00 0. -1.
        -14    1    4    4    0    0  0.46003283148E+02  0.19095081126E+02 -0.56964773255E+01  0.50133561987E+02  0.00000000000E+00 0.  1.
</event>
<event>
12    1  0.8462562E-002  0.2218007E+03  0.7818608E-02  0.1133637E+00
         21   -1    0    0  501  502  0.00000000000E+00  0.00000000000E+00  0.24251095466E+02  0.24251095466E+02  0.00000000000E+00 0.  1.
         21   -1    0    0  502  503 -0.00000000000E+00 -0.00000000000E+00 -0.43121375066E+04  0.43121375066E+04  0.00000000000E+00 0.  1.
         -6    2    1    2    0  503  0.41884992210E+02  0.13462823568E+03 -0.37529290653E+04  0.37594776376E+04  0.17122039488E+03 0.  0.
        -24    2    3    3    0    0 -0.39392426196E+02  0.98932542414E+02 -0.25733367070E+04  0.25765404359E+04  0.71828957141E+02 0.  0.
          6    2    1    2  501    0 -0.41884992210E+02 -0.13462823568E+03 -0.53495734581E+03  0.57691096449E+03  0.16360863274E+03 0.  0.
         24    2    5    5    0    0  0.20955933457E+02 -0.12413159439E+03 -0.31876298726E+03  0.35147527060E+03  0.77956525819E+02 0.  0.
          5    1    5    5  501    0 -0.62840925667E+02 -0.10496641284E+02 -0.21619435854E+03  0.22543569390E+03  0.47000000000E+01 0. -1.
        -13    1    6    6    0    0  0.11444299422E+02 -0.13335082382E+03 -0.27659106462E+03  0.30727191741E+03  0.00000000000E+00 0.  1.
         14    1    6    6    0    0  0.95116340352E+01  0.92192294269E+01 -0.42171922642E+02  0.44203353183E+02  0.00000000000E+00 0. -1.
         -5    1    3    3    0  503  0.81277418406E+02  0.35695693261E+02 -0.11795923584E+04  0.11829372017E+04  0.47000000000E+01 0.  1.
         11    1    4    4    0    0 -0.11431497871E+02  0.57188876747E+02 -0.20422216140E+04  0.20430541764E+04  0.00000000000E+00 0. -1.
        -12    1    4    4    0    0 -0.27960928326E+02  0.41743665667E+02 -0.53111509294E+03  0.53348625951E+03  0.00000000000E+00 0.  1.
</event>
<event>
12    1  0.8462562E-002  0.3687089E+03  0.7818608E-02  0.1055235E+00
         21   -1    0    0  503  502  0.00000000000E+00  0.00000000000E+00  0.85256165839E+03  0.85256165839E+03  0.00000000000E+00 0. -1.
         21   -1    0    0  501  503 -0.00000000000E+00 -0.00000000000E+00 -0.35881920767E+03  0.35881920767E+03  0.00000000000E+00 0.  1.
          6    2    1    2  501    0 -0.12534692918E+03  0.30064722091E+03 -0.20491678516E+03  0.42139924959E+03  0.17171439840E+03 0.  0.
         24    2    3    3    0    0 -0.12497766698E+03  0.27248162116E+03 -0.12420245173E+03  0.33578189747E+03  0.86357295783E+02 0.  0.
         -6    2    1    2    0  502  0.12534692918E+03 -0.30064722091E+03  0.69865923588E+03  0.78998161647E+03  0.17275885615E+03 0.  0.
        -24    2    5    5    0    0  0.44895699918E+02 -0.22720502571E+03  0.57587043732E+03  0.62577036418E+03  0.79523836232E+02 0.  0.
          5    1    3    3  501    0 -0.36926219820E+00  0.28165599749E+02 -0.80714333429E+02  0.85617352124E+02  0.47000000000E+01 0. -1.
        -13    1    4    4    0    0 -0.25371058501E+02  0.12279920134E+03 -0.85782772546E+02  0.15192767531E+03  0.00000000000E+00 0.  1.
         14    1    4    4    0    0 -0.99606608478E+02  0.14968241983E+03 -0.38419679188E+02  0.18385422216E+03  0.00000000000E+00 0. -1.
         -5    1    5    5    0  502  0.80451229260E+02 -0.73442195201E+02  0.12278879856E+03  0.16421125229E+03  0.47000000000E+01 0.  1.
         11    1    6    6    0    0  0.39849951991E+02 -0.36360247932E+02  0.12408998450E+03  0.13530857533E+03  0.00000000000E+00 0. -1.
        -12    1    6    6    0    0  0.50457479269E+01 -0.19084477778E+03  0.45178045282E+03  0.49046178885E+03  0.00000000000E+00 0.  1.
</event>
<event>
12    1  0.8462562E-002  0.2916589E+03  0.7818608E-02  0.1089898E+00
         21   -1    0    0  503  502  0.00000000000E+00  0.00000000000E+00  0.10862449609E+04  0.10862449609E+04  0.00000000000E+00 0.  1.
         21   -1    0    0  501  503 -0.00000000000E+00 -0.00000000000E+00 -0.10136164578E+03  0.10136164578E+03  0.00000000000E+00 0.  1.
          6    2    1    2  501    0 -0.22088479978E+03 -0.70963496440E+02  0.20617196364E+03  0.35717191299E+03  0.17674553527E+03 0.  0.
         24    2    3    3    0    0 -0.46880012934E+02  0.23523710250E+02  0.79324435409E+02  0.12197437157E+03  0.76382463365E+02 0.  0.
         -6    2    1    2    0  502  0.22088479978E+03  0.70963496440E+02  0.77871135146E+03  0.83043469365E+03  0.17147740065E+03 0.  0.
        -24    2    5    5    0    0  0.12215489325E+03  0.37778988800E+02  0.25253725818E+03  0.29402992818E+03  0.79557915732E+02 0.  0.
          5    1    3    3  501    0 -0.17400478685E+03 -0.94487206691E+02  0.12684752823E+03  0.23519754143E+03  0.47000000000E+01 0. -1.
        -11    1    4    4    0    0 -0.46192065160E+02 -0.77808282802E+01  0.77565807198E+02  0.90612927437E+02  0.00000000000E+00 0.  1.
         12    1    4    4    0    0 -0.68794777467E+00  0.31304538531E+02  0.17586282108E+01  0.31361444130E+02  0.00000000000E+00 0. -1.
         -5    1    5    5    0  502  0.98729906537E+02  0.33184507641E+02  0.52617409327E+03  0.53640476547E+03  0.47000000000E+01 0.  1.
         11    1    6    6    0    0  0.51757520886E+02  0.57008042622E+02  0.14294006097E+03  0.16235953598E+03  0.00000000000E+00 0. -1.
        -12    1    6    6    0    0  0.70397372362E+02 -0.19229053823E+02  0.10959719721E+03  0.13167039220E+03  0.00000000000E+00 0.  1.
</event>
<event>
12    1  0.8462562E-002  0.1752385E+03  0.7818608E-02  0.1172873E+00
         21   -1    0    0  501  502  0.00000000000E+00  0.00000000000E+00  0.93192175768E+02  0.93192175768E+02  0.00000000000E+00 0. -1.
         21   -1    0    0  502  503 -0.00000000000E+00 -0.00000000000E+00 -0.35533800974E+03  0.35533800974E+03  0.00000000000E+00 0. -1.
         -6    2    1    2    0  503  0.23075650255E+02 -0.26987008223E+02 -0.66867669567E+02  0.18615241667E+03  0.17006073254E+03 0.  0.
        -24    2    3    3    0    0  0.24309477445E+02  0.12885128231E+02  0.22784442375E+02  0.87913418455E+02  0.80328457641E+02 0.  0.
          6    2    1    2  501    0 -0.23075650255E+02  0.26987008223E+02 -0.19527816441E+03  0.26237776884E+03  0.17160346103E+03 0.  0.
         24    2    5    5    0    0  0.89260062325E+01 -0.33599469464E+02 -0.47742626836E+02  0.99639782668E+02  0.80250420169E+02 0.  0.
          5    1    5    5  501    0 -0.32001656487E+02  0.60586477687E+02 -0.14753553757E+03  0.16273798617E+03  0.47000000000E+01 0. -1.
        -13    1    6    6    0    0  0.38697640738E+02 -0.40819908918E+02 -0.36269180175E+02  0.66927018411E+02  0.00000000000E+00 0.  1.
         14    1    6    6    0    0 -0.29771634506E+02  0.72204394543E+01 -0.11473446661E+02  0.32712764257E+02  0.00000000000E+00 0. -1.
         -5    1    3    3    0  503 -0.12338271904E+01 -0.39872136454E+02 -0.89652111942E+02  0.98238998216E+02  0.47000000000E+01 0.  1.
         11    1    4    4    0    0  0.42838075215E+02  0.32455941562E+02  0.27786513167E+02  0.60502720143E+02  0.00000000000E+00 0. -1.
        -12    1    4    4    0    0 -0.18528597769E+02 -0.19570813331E+02 -0.50020707917E+01  0.27410698312E+02  0.00000000000E+00 0.  1.
</event>
<event>
12    1  0.8462562E-002  0.1980026E+03  0.7818608E-02  0.1151786E+00
         21   -1    0    0  503  502  0.00000000000E+00  0.00000000000E+00  0.24872983554E+03  0.24872983554E+03  0.00000000000E+00 0.  1.
         21   -1    0    0  501  503 -0.00000000000E+00 -0.00000000000E+00 -0.15646951446E+03  0.15646951446E+03  0.00000000000E+00 0.  1.
          6    2    1    2  501    0 -0.75119371817E+02  0.63354253551E+02  0.52108510766E+02  0.20316665292E+03  0.17001385384E+03 0.  0.
         24    2    3    3    0    0 -0.10520069225E+03  0.85172380149E+02  0.27697002394E+02  0.15845727774E+03  0.77589077432E+02 0.  0.
         -6    2    1    2    0  502  0.75119371817E+02 -0.63354253551E+02  0.40151810313E+02  0.20203269708E+03  0.17189636806E+03 0.  0.
        -24    2    5    5    0    0 -0.18012170640E+02  0.61929198964E+01  0.21283075579E+02  0.84183587262E+02  0.79190381425E+02 0.  0.
          5    1    3    3  501    0  0.30081320438E+02 -0.21818126598E+02  0.24411508372E+02  0.44709375175E+02  0.47000000000E+01 0. -1.
        -11    1    4    4    0    0 -0.19029089010E+02  0.50624529996E+02 -0.15212462636E+02  0.56181565352E+02  0.00000000000E+00 0.  1.
         12    1    4    4    0    0 -0.86171603244E+02  0.34547850152E+02  0.42909465029E+02  0.10227571239E+03  0.00000000000E+00 0. -1.
         -5    1    5    5    0  502  0.93131542457E+02 -0.69547173447E+02  0.18868734734E+02  0.11784910982E+03  0.47000000000E+01 0.  1.
         11    1    6    6    0    0 -0.16819330830E+02  0.39407989107E+02 -0.31046646877E+01  0.42959497645E+02  0.00000000000E+00 0. -1.
        -12    1    6    6    0    0 -0.11928398097E+01 -0.33215069211E+02  0.24387740267E+02  0.41224089618E+02  0.00000000000E+00 0.  1.
</event>
<event>
12    1  0.8462562E-002  0.2577800E+03  0.7818608E-02  0.1108831E+00
         21   -1    0    0  501  502  0.00000000000E+00  0.00000000000E+00  0.14773456304E+03  0.14773456304E+03  0.00000000000E+00 0. -1.
         21   -1    0    0  502  503 -0.00000000000E+00 -0.00000000000E+00 -0.10326230303E+04  0.10326230303E+04  0.00000000000E+00 0.  1.
         -6    2    1    2    0  503 -0.11104715976E+03 -0.15502500951E+03 -0.88648501995E+03  0.92257266693E+03  0.17006001852E+03 0.  0.
        -24    2    3    3    0    0 -0.60855983654E+02 -0.12849283648E+03 -0.81680927059E+03  0.83257316463E+03  0.76071217714E+02 0.  0.
          6    2    1    2  501    0  0.11104715976E+03  0.15502500951E+03  0.15965527134E+01  0.25778492638E+03  0.17345401126E+03 0.  0.
         24    2    5    5    0    0  0.82657456100E+02  0.25583823224E+02 -0.30333587318E+02  0.12139350501E+03  0.79557963016E+02 0.  0.
          5    1    5    5  501    0  0.28389703665E+02  0.12944118629E+03  0.31930140032E+02  0.13639142137E+03  0.47000000000E+01 0. -1.
        -11    1    6    6    0    0  0.61626236213E+02 -0.21628502243E+02 -0.11110919474E+02  0.66249812307E+02  0.00000000000E+00 0.  1.
         12    1    6    6    0    0  0.21031219887E+02  0.47212325466E+02 -0.19222667844E+02  0.55143692703E+02  0.00000000000E+00 0. -1.
         -5    1    3    3    0  503 -0.50191176111E+02 -0.26532173027E+02 -0.69675749357E+02  0.89999502295E+02  0.47000000000E+01 0.  1.
         11    1    4    4    0    0 -0.64556216342E+02 -0.95023954641E+02 -0.45800755849E+03  0.47219485454E+03  0.00000000000E+00 0. -1.
        -12    1    4    4    0    0  0.37002326880E+01 -0.33468881843E+02 -0.35880171210E+03  0.36037831009E+03  0.00000000000E+00 0.  1.
</event>
<event>
12    1  0.8462562E-002  0.2185972E+03  0.7818608E-02  0.1135267E+00
         21   -1    0    0  501  502  0.00000000000E+00  0.00000000000E+00  0.13549890658E+04  0.13549890658E+04  0.00000000000E+00 0. -1.
         21   -1    0    0  502  503 -0.00000000000E+00 -0.00000000000E+00 -0.35992939115E+02  0.35992939115E+02  0.00000000000E+00 0. -1.
         -6    2    1    2    0  503  0.26396520164E+02  0.13255173107E+03  0.54548380728E+03  0.58765408299E+03  0.17180803116E+03 0.  0.
        -24    2    3    3    0    0 -0.21517608547E+02  0.13489959430E+03  0.47337126533E+03  0.50091548203E+03  0.90416023319E+02 0.  0.
          6    2    1    2  501    0 -0.26396520164E+02 -0.13255173107E+03  0.77351231936E+03  0.80332792187E+03  0.16955147941E+03 0.  0.
         24    2    5    5    0    0 -0.60092559079E+02 -0.76903030935E+02  0.29642981266E+03  0.32180740406E+03  0.78512289844E+02 0.  0.
          5    1    5    5  501    0  0.33696038914E+02 -0.55648700139E+02  0.47708250671E+03  0.48152051781E+03  0.47000000000E+01 0. -1.
        -13    1    6    6    0    0 -0.41424395905E+01 -0.10997126214E+01 -0.46539679812E+01  0.63268152795E+01  0.00000000000E+00 0.  1.
         14    1    6    6    0    0 -0.55950119488E+02 -0.75803318314E+02  0.30108378064E+03  0.31548058879E+03  0.00000000000E+00 0. -1.
         -5    1    3    3    0  503  0.47914128711E+02 -0.23478632290E+01  0.72112541949E+02  0.86738600970E+02  0.47000000000E+01 0.  1.
         13    1    4    4    0    0  0.19362599393E+02  0.10129963403E+03  0.23326391532E+03  0.25504623169E+03  0.00000000000E+00 0. -1.
        -14    1    4    4    0    0 -0.40880207939E+02  0.33599960275E+02  0.24010735001E+03  0.24586925033E+03  0.00000000000E+00 0.  1.
</event>
<event>
12    1  0.8462562E-002  0.3197781E+03  0.7818608E-02  0.1075865E+00
         21   -1    0    0  501  502  0.00000000000E+00  0.00000000000E+00  0.65743264019E+03  0.65743264019E+03  0.00000000000E+00 0. -1.
         21   -1    0    0  502  503 -0.00000000000E+00 -0.00000000000E+00 -0.40840606129E+03  0.40840606129E+03  0.00000000000E+00 0. -1.
         -6    2    1    2    0  503  0.26239184955E+03 -0.58885008257E+02 -0.29514464019E+03  0.43516482236E+03  0.17303507469E+03 0.  0.
        -24    2    3    3    0    0  0.35271163835E+02 -0.11061753602E+02 -0.99293670068E+02  0.13143704611E+03  0.77782046664E+02 0.  0.
          6    2    1    2  501    0 -0.26239184955E+03  0.58885008257E+02  0.54417121910E+03  0.63067387912E+03  0.17120250934E+03 0.  0.
         24    2    5    5    0    0 -0.66458865965E+02  0.52205722339E+02  0.26063700022E+03  0.28593036549E+03  0.81745395679E+02 0.  0.
          5    1    5    5  501    0 -0.19593298359E+03  0.66792859183E+01  0.28353421888E+03  0.34474351363E+03  0.47000000000E+01 0. -1.
        -13    1    6    6    0    0 -0.20049453033E+02 -0.10014486231E+02  0.14458812312E+03  0.14631471508E+03  0.00000000000E+00 0.  1.
         14    1    6    6    0    0 -0.46409412932E+02  0.62220208570E+02  0.11604887710E+03  0.13961565041E+03  0.00000000000E+00 0. -1.
         -5    1    3    3    0  503  0.22712068572E+03 -0.47823254656E+02 -0.19585097012E+03  0.30372777625E+03  0.47000000000E+01 0.  1.
         13    1    4    4    0    0  0.55255723091E+02 -0.11383440086E+02 -0.40801538425E+02  0.69624300215E+02  0.00000000000E+00 0. -1.
        -14    1    4    4    0    0 -0.19984559256E+02  0.32168648433E+00 -0.58492131643E+02  0.61812745894E+02  0.00000000000E+00 0.  1.
</event>
<event>
12    1  0.8462562E-002  0.1830211E+03  0.7818608E-02  0.1168630E+00
         21   -1    0    0  501  502  0.00000000000E+00  0.00000000000E+00  0.26063550865E+03  0.26063550865E+03  0.00000000000E+00 0.  1.
         21   -1    0    0  502  503 -0.00000000000E+00 -0.00000000000E+00 -0.88648428363E+03  0.88648428363E+03  0.00000000000E+00 0.  1.
         -6    2    1    2    0  503 -0.62898193617E+02 -0.74682656616E+01 -0.84859861074E+03  0.86811078500E+03  0.17171131336E+03 0.  0.
        -24    2    3    3    0    0 -0.25469187684E+02 -0.66188637366E+02 -0.61970531142E+03  0.62881338633E+03  0.79636590759E+02 0.  0.
          6    2    1    2  501    0  0.62898193617E+02  0.74682656616E+01  0.22274983576E+03  0.27900900728E+03  0.15561676985E+03 0.  0.
         24    2    5    5    0    0  0.64115238793E+02 -0.38633208985E+02  0.19833964699E+03  0.22661841194E+03  0.80087454588E+02 0.  0.
          5    1    5    5  501    0 -0.12170451757E+01  0.46101474647E+02  0.24410188774E+02  0.52390595335E+02  0.47000000000E+01 0. -1.
        -13    1    6    6    0    0  0.16062079993E+02 -0.45995449192E+02  0.47125327865E+02  0.67781769573E+02  0.00000000000E+00 0.  1.
         14    1    6    6    0    0  0.48053158799E+02  0.73622402073E+01  0.15121431912E+03  0.15883664237E+03  0.00000000000E+00 0. -1.
         -5    1    3    3    0  503 -0.37429005933E+02  0.58720371705E+02 -0.22889329931E+03  0.23929739867E+03  0.47000000000E+01 0.  1.
         11    1    4    4    0    0 -0.42549240070E+02 -0.47450758487E+01 -0.25854514099E+03  0.26206591443E+03  0.00000000000E+00 0. -1.
        -12    1    4    4    0    0  0.17080052386E+02 -0.61443561517E+02 -0.36116017044E+03  0.36674747191E+03  0.00000000000E+00 0.  1.
</event>
<event>
12    1  0.8462562E-002  0.2017094E+03  0.7818608E-02  0.1148586E+00
         21   -1    0    0  501  502  0.00000000000E+00  0.00000000000E+00  0.19712397682E+03  0.19712397682E+03  0.00000000000E+00 0. -1.
         21   -1    0    0  502  503 -0.00000000000E+00 -0.00000000000E+00 -0.21090487879E+03  0.21090487879E+03  0.00000000000E+00 0. -1.
         -6    2    1    2    0  503  0.71251587128E+02 -0.76027925081E+02 -0.40960469404E+02  0.20582619929E+03  0.17271256527E+03 0.  0.
        -24    2    3    3    0    0  0.59100699551E+02 -0.12074630173E+03 -0.33843735300E+02  0.15870810104E+03  0.77267721903E+02 0.  0.
          6    2    1    2  501    0 -0.71251587128E+02  0.76027925081E+02  0.27179567437E+02  0.20220265632E+03  0.17114365683E+03 0.  0.
         24    2    5    5    0    0 -0.73474658913E+02  0.53789775436E+02  0.81517648740E+02  0.14326035888E+03  0.74743146343E+02 0.  0.
          5    1    5    5  501    0  0.22230717843E+01  0.22238149646E+02 -0.54338081303E+02  0.58942297440E+02  0.47000000000E+01 0. -1.
        -13    1    6    6    0    0  0.69489624872E+01 -0.11557122240E+02  0.47503117834E+01  0.14297573785E+02  0.00000000000E+00 0.  1.
         14    1    6    6    0    0 -0.80423621400E+02  0.65346897675E+02  0.76767336956E+02  0.12896278509E+03  0.00000000000E+00 0. -1.
         -5    1    3    3    0  503  0.12150887578E+02  0.44718376646E+02 -0.71167341042E+01  0.47118098254E+02  0.47000000000E+01 0.  1.
         11    1    4    4    0    0  0.44217839082E+02 -0.17879315047E+02  0.45347755554E+01  0.47910869215E+02  0.00000000000E+00 0. -1.
        -12    1    4    4    0    0  0.14882860469E+02 -0.10286698668E+03 -0.38378510855E+02  0.11079723182E+03  0.00000000000E+00 0.  1.
</event>
<event>
12    1  0.8462562E-002  0.1910312E+03  0.7818608E-02  0.1157978E+00
         21   -1    0    0  503  502  0.00000000000E+00  0.00000000000E+00  0.69699284312E+03  0.69699284312E+03  0.00000000000E+00 0.  1.
         21   -1    0    0  501  503 -0.00000000000E+00 -0.00000000000E+00 -0.58423040948E+02  0.58423040948E+02  0.00000000000E+00 0.  1.
          6    2    1    2  501    0  0.71298493610E+02  0.35004398399E+02  0.44480703725E+03  0.48331862559E+03  0.17156576101E+03 0.  0.
         24    2    3    3    0    0 -0.23544000959E+02  0.16612218314E+02  0.17357230401E+03  0.19535379860E+03  0.84885076011E+02 0.  0.
         -6    2    1    2    0  502 -0.71298493610E+02 -0.35004398399E+02  0.19376276491E+03  0.27209725848E+03  0.17373579339E+03 0.  0.
        -24    2    5    5    0    0 -0.47075492169E+00  0.36678768882E+02  0.10664173564E+03  0.13880356478E+03  0.80922284426E+02 0.  0.
          5    1    3    3  501    0  0.94842494569E+02  0.18392180085E+02  0.27123473324E+03  0.28796482699E+03  0.47000000000E+01 0. -1.
        -11    1    4    4    0    0  0.16274689827E+02 -0.18175121278E+02  0.10997062533E+03  0.11264430299E+03  0.00000000000E+00 0.  1.
         12    1    4    4    0    0 -0.39818690786E+02  0.34787339592E+02  0.63601678681E+02  0.82709495603E+02  0.00000000000E+00 0. -1.
         -5    1    5    5    0  502 -0.70827738689E+02 -0.71683167281E+02  0.87121029273E+02  0.13329369370E+03  0.47000000000E+01 0.  1.
         13    1    6    6    0    0  0.77958587530E-01  0.54691138543E+02  0.10765890279E+03  0.12075415547E+03  0.00000000000E+00 0. -1.
        -14    1    6    6    0    0 -0.54871350922E+00 -0.18012369661E+02 -0.10171671491E+01  0.18049409307E+02  0.00000000000E+00 0.  1.
</event>
<event>
12    1  0.8462562E-002  0.1753872E+03  0.7818608E-02  0.1172684E+00
         21   -1    0    0  503  502  0.00000000000E+00  0.00000000000E+00  0.64312578696E+03  0.64312578696E+03  0.00000000000E+00 0. -1.
         21   -1    0    0  501  503 -0.00000000000E+00 -0.00000000000E+00 -0.50001130998E+02  0.50001130998E+02  0.00000000000E+00 0. -1.
          6    2    1    2  501    0  0.89340523515E+00 -0.19588120942E+02  0.21735775173E+03  0.27844457270E+03  0.17292337950E+03 0.  0.
         24    2    3    3    0    0  0.34271689298E+02 -0.24279473269E+02  0.41881024513E+02  0.99698130982E+02  0.80135233184E+02 0.  0.
         -6    2    1    2    0  502 -0.89340523515E+00  0.19588120942E+02  0.37576690424E+03  0.41468234526E+03  0.17428766019E+03 0.  0.
        -24    2    5    5    0    0 -0.44643601033E+02  0.17737273147E+02  0.10061969013E+03  0.13603277196E+03  0.77929012780E+02 0.  0.
          5    1    3    3  501    0 -0.33378284063E+02  0.46913523272E+01  0.17547672722E+03  0.17874644172E+03  0.47000000000E+01 0. -1.
        -13    1    4    4    0    0 -0.23033262246E+02  0.61969612282E+01  0.30049144410E+01  0.24040861236E+02  0.00000000000E+00 0.  1.
         14    1    4    4    0    0  0.57304951544E+02 -0.30476434497E+02  0.38876110072E+02  0.75657269746E+02  0.00000000000E+00 0. -1.
         -5    1    5    5    0  502  0.43750195798E+02  0.18508477949E+01  0.27514721411E+03  0.27864957330E+03  0.47000000000E+01 0.  1.
         11    1    6    6    0    0 -0.53378472345E+02  0.26634573411E+02  0.10663663045E+03  0.12218851323E+03  0.00000000000E+00 0. -1.
        -12    1    6    6    0    0  0.87348713126E+01 -0.88973002644E+01 -0.60169403249E+01  0.13844258728E+02  0.00000000000E+00 0.  1.
</event>
<event>
12    1  0.8462562E-002  0.3154406E+03  0.7818608E-02  0.1077836E+00
         21   -1    0    0  503  502  0.00000000000E+00  0.00000000000E+00  0.55625212317E+03  0.55625212317E+03  0.00000000000E+00 0.  1.
         21   -1    0    0  501  503 -0.00000000000E+00 -0.00000000000E+00 -0.29737387390E+03  0.29737387390E+03  0.00000000000E+00 0. -1.
          6    2    1    2  501    0 -0.25475996248E+03 -0.79325845294E+02 -0.14043368409E+03  0.34475194587E+03  0.16714381933E+03 0.  0.
         24    2    3    3    0    0 -0.24841080646E+03 -0.29381225765E+02 -0.10531508264E+03  0.28318748396E+03  0.80825115189E+02 0.  0.
         -6    2    1    2    0  502  0.25475996248E+03  0.79325845294E+02  0.39931193337E+03  0.50887405120E+03  0.16824848184E+03 0.  0.
        -24    2    5    5    0    0  0.50724875805E+02  0.43759676916E+02  0.12858403081E+03  0.16797677027E+03  0.84819927017E+02 0.  0.
          5    1    3    3  501    0 -0.63491560144E+01 -0.49944619529E+02 -0.35118601457E+02  0.61564461911E+02  0.47000000000E+01 0. -1.
        -11    1    4    4    0    0 -0.27645671876E+01  0.12722621828E+02 -0.11614144253E+01  0.13071221113E+02  0.00000000000E+00 0.  1.
         12    1    4    4    0    0 -0.24564623928E+03 -0.42103847593E+02 -0.10415366821E+03  0.27011626285E+03  0.00000000000E+00 0. -1.
         -5    1    5    5    0  502  0.20403508667E+03  0.35566168379E+02  0.27072790256E+03  0.34089728094E+03  0.47000000000E+01 0.  1.
         11    1    6    6    0    0  0.47084537655E+02  0.64902468531E+02  0.12113074565E+03  0.14526507374E+03  0.00000000000E+00 0. -1.
        -12    1    6    6    0    0  0.36403381507E+01 -0.21142791615E+02  0.74532851600E+01  0.22711696520E+02  0.00000000000E+00 0.  1.
</event>
<event>
12    1  0.8462562E-002  0.1973374E+03  0.7818608E-02  0.1152333E+00
         21   -1    0    0  501  502  0.00000000000E+00  0.00000000000E+00  0.18916791451E+03  0.18916791451E+03  0.00000000000E+00 0.  1.
         21   -1    0    0  502  503 -0.00000000000E+00 -0.00000000000E+00 -0.29404014406E+03  0.29404014406E+03  0.00000000000E+00 0.  1.
         -6    2    1    2    0  503 -0.86245162808E+02  0.40973532900E+02 -0.18606789104E+03  0.27122558975E+03  0.17269916603E+03 0.  0.
        -24    2    3    3    0    0 -0.52401371333E+02 -0.24550449182E+02 -0.32978459660E+02  0.10123365332E+03  0.76236772555E+02 0.  0.
          6    2    1    2  501    0  0.86245162808E+02 -0.40973532900E+02  0.81195661492E+02  0.21198246883E+03  0.17095839593E+03 0.  0.
         24    2    5    5    0    0  0.10464293943E+02  0.17099790865E+02 -0.36697785647E+01  0.84156477985E+02  0.81651339345E+02 0.  0.
          5    1    5    5  501    0  0.75780868865E+02 -0.58073323765E+02  0.84865440057E+02  0.12782599084E+03  0.47000000000E+01 0. -1.
        -13    1    6    6    0    0 -0.14669137439E+02  0.18869664830E+02  0.32336227430E+02  0.40210439545E+02  0.00000000000E+00 0.  1.
         14    1    6    6    0    0  0.25133431382E+02 -0.17698739655E+01 -0.36006005995E+02  0.43946038440E+02  0.00000000000E+00 0. -1.
         -5    1    3    3    0  503 -0.33843791475E+02  0.65523982082E+02 -0.15308943138E+03  0.16999193643E+03  0.47000000000E+01 0.  1.
         13    1    4    4    0    0  0.15932462556E+02 -0.49081805354E+01 -0.24492814444E+02  0.29628222333E+02  0.00000000000E+00 0. -1.
        -14    1    4    4    0    0 -0.68333833889E+02 -0.19642268646E+02 -0.84856452163E+01  0.71605430983E+02  0.00000000000E+00 0.  1.
</event>
<event>
12    1  0.8462562E-002  0.2291380E+03  0.7818608E-02  0.1129088E+00
         21   -1    0    0  503  502  0.00000000000E+00  0.00000000000E+00  0.31842818995E+03  0.31842818995E+03  0.00000000000E+00 0.  1.
         21   -1    0    0  501  503 -0.00000000000E+00 -0.00000000000E+00 -0.16620636287E+03  0.16620636287E+03  0.00000000000E+00 0.  1.
          6    2    1    2  501    0 -0.17761497769E+02 -0.13422642819E+03  0.22804152720E+02  0.23027000384E+03  0.18485681069E+03 0.  0.
         24    2    3    3    0    0 -0.24653949865E+02 -0.92115398139E+02 -0.59982029969E+02  0.13701504798E+03  0.77988560926E+02 0.  0.
         -6    2    1    2    0  502  0.17761497769E+02  0.13422642819E+03  0.12941767437E+03  0.25436454898E+03  0.17210515539E+03 0.  0.
        -24    2    5    5    0    0 -0.25830533067E+02  0.27235912700E+02  0.10295091915E+03  0.13574829930E+03  0.80123015594E+02 0.  0.
          5    1    3    3  501    0  0.68924520969E+01 -0.42111030054E+02  0.82786182689E+02  0.93254955859E+02  0.47000000000E+01 0. -1.
        -13    1    4    4    0    0  0.24588864168E+02 -0.58585511738E+02 -0.28531394900E+02  0.69648509830E+02  0.00000000000E+00 0.  1.
         14    1    4    4    0    0 -0.49242814033E+02 -0.33529886401E+02 -0.31450635069E+02  0.67366538150E+02  0.00000000000E+00 0. -1.
         -5    1    5    5    0  502  0.43592030835E+02  0.10699051549E+03  0.26466755213E+02  0.11861624968E+03  0.47000000000E+01 0.  1.
         13    1    6    6    0    0  0.22237463266E+02  0.61444306597E+01  0.35549148416E+01  0.23343012234E+02  0.00000000000E+00 0. -1.
        -14    1    6    6    0    0 -0.48067996332E+02  0.21091482041E+02  0.99396004313E+02  0.11240528706E+03  0.00000000000E+00 0.  1.
</event>
<event>
12    1  0.8462562E-002  0.1853340E+03  0.7818608E-02  0.1163043E+00
         21   -1    0    0  503  502  0.00000000000E+00  0.00000000000E+00  0.80482392633E+03  0.80482392633E+03  0.00000000000E+00 0.  1.
         21   -1    0    0  501  503 -0.00000000000E+00 -0.00000000000E+00 -0.14062365982E+03  0.14062365982E+03  0.00000000000E+00 0.  1.
          6    2    1    2  501    0 -0.89462131480E+01 -0.67961891087E+02 -0.62669523192E+02  0.19564296164E+03  0.17219130621E+03 0.  0.
         24    2    3    3    0    0  0.25399204452E+02  0.74575694266E+01 -0.72010126982E+02  0.11211428625E+03  0.81752185681E+02 0.  0.
         -6    2    1    2    0  502  0.89462131480E+01  0.67961891087E+02  0.72686978970E+03  0.74980462451E+03  0.17078767632E+03 0.  0.
        -24    2    5    5    0    0  0.66295965048E+02  0.29489935440E+02  0.34576367717E+03  0.36246363206E+03  0.81009584915E+02 0.  0.
          5    1    3    3  501    0 -0.34345417600E+02 -0.75419460514E+02  0.93406037901E+01  0.83528675396E+02  0.47000000000E+01 0. -1.
        -11    1    4    4    0    0 -0.14788756196E+02  0.25613961417E+02 -0.59224558601E+02  0.66199174245E+02  0.00000000000E+00 0.  1.
         12    1    4    4    0    0  0.40187960648E+02 -0.18156391990E+02 -0.12785568382E+02  0.45915112000E+02  0.00000000000E+00 0. -1.
         -5    1    5    5    0  502 -0.57349751900E+02  0.38471955647E+02  0.38110611254E+03  0.38734099245E+03  0.47000000000E+01 0.  1.
         13    1    6    6    0    0 -0.44556448065E+01  0.21991115081E+01 -0.28292147108E+01  0.57178070925E+01  0.00000000000E+00 0. -1.
        -14    1    6    6    0    0  0.70751609855E+02  0.27290823932E+02  0.34859289188E+03  0.35674582497E+03  0.00000000000E+00 0.  1.
</event>
<event>
12    1  0.8462562E-002  0.1781218E+03  0.7818608E-02  0.1171883E+00
         21   -1    0    0  503  502  0.00000000000E+00  0.00000000000E+00  0.16155292970E+03  0.16155292970E+03  0.00000000000E+00 0.  1.
         21   -1    0    0  501  503 -0.00000000000E+00 -0.00000000000E+00 -0.23766746555E+03  0.23766746555E+03  0.00000000000E+00 0.  1.
          6    2    1    2  501    0 -0.29382784574E+02  0.30433899418E+02 -0.13125882882E+03  0.22126062630E+03  0.17302547311E+03 0.  0.
         24    2    3    3    0    0 -0.34845882109E+02 -0.83373737624E+01 -0.35696128598E+01  0.87620501597E+02  0.79880303348E+02 0.  0.
         -6    2    1    2    0  502  0.29382784574E+02 -0.30433899418E+02  0.55144292967E+02  0.17795976895E+03  0.16382678675E+03 0.  0.
        -24    2    5    5    0    0 -0.75715205896E+01  0.16653029218E+02 -0.16612448172E+02  0.84397386464E+02  0.80698786245E+02 0.  0.
          5    1    3    3  501    0  0.54630975355E+01  0.38771273181E+02 -0.12768921596E+03  0.13364012470E+03  0.47000000000E+01 0. -1.
        -13    1    4    4    0    0  0.98909486144E+01  0.19549061530E+02 -0.22692416514E+02  0.31542708166E+02  0.00000000000E+00 0.  1.
         14    1    4    4    0    0 -0.44736830724E+02 -0.27886435292E+02  0.19122803655E+02  0.56077793431E+02  0.00000000000E+00 0. -1.
         -5    1    5    5    0  502  0.36954305163E+02 -0.47086928636E+02  0.71756741139E+02  0.93562382491E+02  0.47000000000E+01 0.  1.
         13    1    6    6    0    0 -0.10889910397E+02  0.35234787112E+02  0.20910001831E+02  0.42394675938E+02  0.00000000000E+00 0. -1.
        -14    1    6    6    0    0  0.33183898070E+01 -0.18581757895E+02 -0.37522450002E+02  0.42002710526E+02  0.00000000000E+00 0.  1.
</event>
<event>
12    1  0.8462562E-002  0.1907600E+03  0.7818608E-02  0.1157886E+00
         21   -1    0    0  503  502  0.00000000000E+00  0.00000000000E+00  0.26396526344E+03  0.26396526344E+03  0.00000000000E+00 0. -1.
         21   -1    0    0  501  503 -0.00000000000E+00 -0.00000000000E+00 -0.72590413899E+03  0.72590413899E+03  0.00000000000E+00 0. -1.
          6    2    1    2  501    0 -0.68324329496E+02  0.44618514921E+02 -0.67662331028E+03  0.70299963638E+03  0.17242493687E+03 0.  0.
         24    2    3    3    0    0 -0.45930983926E+02 -0.20976990021E+02 -0.20270775828E+03  0.22401918518E+03  0.80897902748E+02 0.  0.
         -6    2    1    2    0  502  0.68324329496E+02 -0.44618514921E+02  0.21468443473E+03  0.28686976605E+03  0.17188900571E+03 0.  0.
        -24    2    5    5    0    0  0.52801405623E+01 -0.55981411447E+02  0.19787776439E+03  0.22047519290E+03  0.79321514938E+02 0.  0.
          5    1    3    3  501    0 -0.22393345570E+02  0.65595504942E+02 -0.47391555201E+03  0.47898045119E+03  0.47000000000E+01 0. -1.
        -11    1    4    4    0    0  0.16504855301E+02  0.15070508678E+02 -0.62223929442E+02  0.66116169547E+02  0.00000000000E+00 0.  1.
         12    1    4    4    0    0 -0.62435839227E+02 -0.36047498699E+02 -0.14048382883E+03  0.15790301563E+03  0.00000000000E+00 0. -1.
         -5    1    5    5    0  502  0.63044188934E+02  0.11362896526E+02  0.16806670336E+02  0.66394573148E+02  0.47000000000E+01 0.  1.
         13    1    6    6    0    0  0.24511979951E+02 -0.65468554880E+02  0.17799808320E+03  0.19123359135E+03  0.00000000000E+00 0. -1.
        -14    1    6    6    0    0 -0.19231839389E+02  0.94871434325E+01  0.19879681195E+02  0.29241601550E+02  0.00000000000E+00 0.  1.
</event>
<event>
12    1  0.8462562E-002  0.1989523E+03  0.7818608E-02  0.1151201E+00
         21   -1    0    0  501  502  0.00000000000E+00  0.00000000000E+00  0.67686531968E+02  0.67686531968E+02  0.00000000000E+00 0. -1.
         21   -1    0    0  502  503 -0.00000000000E+00 -0.00000000000E+00 -0.90167449261E+03  0.90167449261E+03  0.00000000000E+00 0.  1.
         -6    2    1    2    0  503 -0.57335093662E+02  0.75499745192E+02 -0.70968528321E+03  0.73704493183E+03  0.17491285214E+03 0.  0.
        -24    2    3    3    0    0 -0.73625896920E+02  0.11185601782E+03 -0.50152005909E+03  0.52504960319E+03  0.78880762708E+02 0.  0.
          6    2    1    2  501    0  0.57335093662E+02 -0.75499745192E+02 -0.12430267744E+03  0.23231609276E+03  0.17184902340E+03 0.  0.
         24    2    5    5    0    0  0.36109013622E+02 -0.27362435731E+02 -0.14772198458E+03  0.17453806075E+03  0.81173802215E+02 0.  0.
          5    1    5    5  501    0  0.21226080040E+02 -0.48137309461E+02  0.23419307141E+02  0.57778032010E+02  0.47000000000E+01 0. -1.
        -13    1    6    6    0    0  0.35064625008E+02  0.23299838431E+02 -0.72586424094E+02  0.83911854709E+02  0.00000000000E+00 0.  1.
         14    1    6    6    0    0  0.10443886147E+01 -0.50662274162E+02 -0.75135560488E+02  0.90626206038E+02  0.00000000000E+00 0. -1.
         -5    1    3    3    0  503  0.16290803258E+02 -0.36356272631E+02 -0.20816522412E+03  0.21199532864E+03  0.47000000000E+01 0.  1.
         13    1    4    4    0    0 -0.44081069858E+02  0.80476945678E+02 -0.44281587839E+03  0.45222293359E+03  0.00000000000E+00 0. -1.
        -14    1    4    4    0    0 -0.29544827062E+02  0.31379072145E+02 -0.58704180695E+02  0.72826669606E+02  0.00000000000E+00 0.  1.
</event>
<event>
12    1  0.8462562E-002  0.2134904E+03  0.7818608E-02  0.1138888E+00
         21   -1    0    0  503  502  0.00000000000E+00  0.00000000000E+00  0.79217974200E+03  0.79217974200E+03  0.00000000000E+00 0.  1.
         21   -1    0    0  501  503 -0.00000000000E+00 -0.00000000000E+00 -0.61806841510E+02  0.61806841510E+02  0.00000000000E+00 0.  1.
          6    2    1    2  501    0 -0.95437081966E+02 -0.82935515211E+02  0.25213465356E+03  0.33037860426E+03  0.17202209837E+03 0.  0.
         24    2    3    3    0    0 -0.12237949333E+03 -0.29091070851E+02  0.14539547660E+03  0.20773905266E+03  0.78693319868E+02 0.  0.
         -6    2    1    2    0  502  0.95437081966E+02  0.82935515211E+02  0.47823824693E+03  0.52360797925E+03  0.17165942680E+03 0.  0.
        -24    2    5    5    0    0  0.70253570370E+02  0.35756117431E+02  0.13742237337E+03  0.17858963989E+03  0.82433528901E+02 0.  0.
          5    1    3    3  501    0  0.26942411366E+02 -0.53844444360E+02  0.10673917696E+03  0.12263955160E+03  0.47000000000E+01 0. -1.
        -13    1    4    4    0    0 -0.26936186576E+02 -0.30947956229E+02  0.10268936637E+02  0.42294032696E+02  0.00000000000E+00 0.  1.
         14    1    4    4    0    0 -0.95443306756E+02  0.18568853773E+01  0.13512653997E+03  0.16544501996E+03  0.00000000000E+00 0. -1.
         -5    1    5    5    0  502  0.25183511596E+02  0.47179397781E+02  0.34081587355E+03  0.34501833936E+03  0.47000000000E+01 0.  1.
         11    1    6    6    0    0  0.72755118706E+02 -0.52209442053E+01  0.90759916227E+02  0.11643851575E+03  0.00000000000E+00 0. -1.
        -12    1    6    6    0    0 -0.25015483355E+01  0.40977061636E+02  0.46662457148E+02  0.62151124137E+02  0.00000000000E+00 0.  1.
</event>
<event>
12    1  0.8462562E-002  0.2560160E+03  0.7818608E-02  0.1109688E+00
         21   -1    0    0  501  502  0.00000000000E+00  0.00000000000E+00  0.18360984891E+03  0.18360984891E+03  0.00000000000E+00 0.  1.
         21   -1    0    0  502  503 -0.00000000000E+00 -0.00000000000E+00 -0.79395036200E+03  0.79395036200E+03  0.00000000000E+00 0. -1.
         -6    2    1    2    0  503  0.16297869956E+03 -0.95568273871E+02 -0.66804223204E+03  0.71512222716E+03  0.17153432459E+03 0.  0.
        -24    2    3    3    0    0  0.17978956752E+03 -0.55172598473E+02 -0.60263172492E+03  0.63628670019E+03  0.79545362781E+02 0.  0.
          6    2    1    2  501    0 -0.16297869956E+03  0.95568273871E+02  0.57701718944E+02  0.26243798375E+03  0.17276821312E+03 0.  0.
         24    2    5    5    0    0 -0.16133575223E+03  0.12864392932E+03  0.41126857140E+02  0.22510817927E+03  0.80023674603E+02 0.  0.
          5    1    5    5  501    0 -0.16429473295E+01 -0.33075655445E+02  0.16574861804E+02  0.37329804485E+02  0.47000000000E+01 0. -1.
        -11    1    6    6    0    0 -0.10069481948E+03  0.30521090607E+02  0.28883495194E+02  0.10911113572E+03  0.00000000000E+00 0.  1.
         12    1    6    6    0    0 -0.60640932748E+02  0.98122838709E+02  0.12243361946E+02  0.11599704355E+03  0.00000000000E+00 0. -1.
         -5    1    3    3    0  503 -0.16810867957E+02 -0.40395675398E+02 -0.65410507115E+02  0.78835526975E+02  0.47000000000E+01 0.  1.
         11    1    4    4    0    0 -0.15393228172E+01  0.54718257681E+01 -0.72611345410E+02  0.72833494179E+02  0.00000000000E+00 0. -1.
        -12    1    4    4    0    0  0.18132889034E+03 -0.60644424241E+02 -0.53002037951E+03  0.56345320601E+03  0.00000000000E+00 0.  1.
</event>
<event>
12    1  0.8462562E-002  0.1715027E+03  0.7818608E-02  0.1176987E+00
         21   -1    0    0  503  502  0.00000000000E+00  0.00000000000E+00  0.24247756566E+04  0.24247756566E+04  0.00000000000E+00 0. -1.
         21   -1    0    0  501  503 -0.00000000000E+00 -0.00000000000E+00 -0.21341963966E+02  0.21341963966E+02  0.00000000000E+00 0. -1.
          6    2    1    2  501    0 -0.21095675505E+02  0.12928214290E+02  0.39530591005E+03  0.43090594346E+03  0.16970858358E+03 0.  0.
         24    2    3    3    0    0 -0.33021212623E+01  0.35151549855E+02  0.39198311898E+03  0.40186083791E+03  0.81208571043E+02 0.  0.
         -6    2    1    2    0  502  0.21095675505E+02 -0.12928214290E+02  0.20081277825E+04  0.20152116771E+04  0.16699923984E+03 0.  0.
        -24    2    5    5    0    0 -0.17573180189E+02  0.46689900503E+02  0.13614855905E+04  0.13646597464E+04  0.78513990650E+02 0.  0.
          5    1    3    3  501    0 -0.17793554242E+02 -0.22223335565E+02  0.33227910646E+01  0.29045105555E+02  0.47000000000E+01 0. -1.
        -13    1    4    4    0    0 -0.28355376648E+02  0.49855713268E+02  0.29878924210E+03  0.30424436021E+03  0.00000000000E+00 0.  1.
         14    1    4    4    0    0  0.25053255386E+02 -0.14704163413E+02  0.93193876889E+02  0.97616477690E+02  0.00000000000E+00 0. -1.
         -5    1    5    5    0  502  0.38668855694E+02 -0.59618114792E+02  0.64664219204E+03  0.65055193070E+03  0.47000000000E+01 0.  1.
         13    1    6    6    0    0 -0.36372563701E+01 -0.19293163872E+02  0.55927431697E+03  0.55961881440E+03  0.00000000000E+00 0. -1.
        -14    1    6    6    0    0 -0.13935923819E+02  0.65983064374E+02  0.80221127353E+03  0.80504093196E+03  0.00000000000E+00 0.  1.
</event>
<event>
12    1  0.8462562E-002  0.2315748E+03  0.7818608E-02  0.1125627E+00
         21   -1    0    0  503  502  0.00000000000E+00  0.00000000000E+00  0.14733039762E+03  0.14733039762E+03  0.00000000000E+00 0.  1.
         21   -1    0    0  501  503 -0.00000000000E+00 -0.00000000000E+00 -0.60734788346E+03  0.60734788346E+03  0.00000000000E+00 0. -1.
          6    2    1    2  501    0 -0.10970715166E+03 -0.11016912431E+03  0.94040575222E+01  0.23124396747E+03  0.17091647409E+03 0.  0.
         24    2    3    3    0    0 -0.14390533792E+03 -0.71103722029E+02  0.39861741084E+01  0.17883151609E+03  0.78742212268E+02 0.  0.
         -6    2    1    2    0  502  0.10970715166E+03  0.11016912431E+03 -0.46942154337E+03  0.52343431362E+03  0.17162167758E+03 0.  0.
        -24    2    5    5    0    0  0.34396085629E+02  0.75909587567E+02 -0.39687767618E+03  0.41329723906E+03  0.79733065752E+02 0.  0.
          5    1    3    3  501    0  0.34198186262E+02 -0.39065402281E+02  0.54178834138E+01  0.52412451380E+02  0.47000000000E+01 0. -1.
        -13    1    4    4    0    0 -0.94310810049E+02 -0.66389553760E+02  0.34533376166E+02  0.12039375320E+03  0.00000000000E+00 0.  1.
         14    1    4    4    0    0 -0.49594527874E+02 -0.47141682693E+01 -0.30547202058E+02  0.58437762886E+02  0.00000000000E+00 0. -1.
         -5    1    5    5    0  502  0.75311066033E+02  0.34259536743E+02 -0.72543867190E+02  0.11013707456E+03  0.47000000000E+01 0.  1.
         13    1    6    6    0    0  0.44623562705E+02  0.79310481815E+02 -0.25040197447E+03  0.26642553124E+03  0.00000000000E+00 0. -1.
        -14    1    6    6    0    0 -0.10227477077E+02 -0.34008942471E+01 -0.14647570171E+03  0.14687170782E+03  0.00000000000E+00 0.  1.
</event>
<event>
12    1  0.8462562E-002  0.1901920E+03  0.7818608E-02  0.1159509E+00
         21   -1    0    0  503  502  0.00000000000E+00  0.00000000000E+00  0.26050105261E+03  0.26050105261E+03  0.00000000000E+00 0. -1.
         21   -1    0    0  501  503 -0.00000000000E+00 -0.00000000000E+00 -0.69502242167E+03  0.69502242167E+03  0.00000000000E+00 0. -1.
          6    2    1    2  501    0 -0.30957904419E+02 -0.76698152197E+02 -0.64671597873E+03  0.67410276849E+03  0.17126583707E+03 0.  0.
         24    2    3    3    0    0 -0.66242492463E+02  0.13007447394E+01 -0.31575584842E+03  0.33221751299E+03  0.79227270430E+02 0.  0.
         -6    2    1    2    0  502  0.30957904419E+02  0.76698152197E+02  0.21219460967E+03  0.28142070580E+03  0.16531806580E+03 0.  0.
        -24    2    5    5    0    0  0.59623069000E+02  0.10194536968E+03  0.14990571175E+03  0.20820110148E+03  0.83235854587E+02 0.  0.
          5    1    3    3  501    0  0.35284588045E+02 -0.77998896936E+02 -0.33096013031E+03  0.34188525550E+03  0.47000000000E+01 0. -1.
        -11    1    4    4    0    0 -0.65658124178E+02  0.32900841395E+00 -0.32059385433E+03  0.32724840252E+03  0.00000000000E+00 0.  1.
         12    1    4    4    0    0 -0.58436828573E+00  0.97173632541E+00  0.48380059041E+01  0.49691104745E+01  0.00000000000E+00 0. -1.
         -5    1    5    5    0  502 -0.28665164581E+02 -0.25247217480E+02  0.62288897925E+02  0.73219604312E+02  0.47000000000E+01 0.  1.
         11    1    6    6    0    0  0.55765969900E+02  0.45156954275E+02  0.34710350883E+02  0.79710741916E+02  0.00000000000E+00 0. -1.
        -12    1    6    6    0    0  0.38570991001E+01  0.56788415402E+02  0.11519536086E+03  0.12849035957E+03  0.00000000000E+00 0.  1.
</event>
<event>
12    1  0.8462562E-002  0.1831774E+03  0.7818608E-02  0.1164821E+00
         21   -1    0    0  503  502  0.00000000000E+00  0.00000000000E+00  0.68661237382E+03  0.68661237382E+03  0.00000000000E+00 0.  1.
         21   -1    0    0  501  503 -0.00000000000E+00 -0.00000000000E+00 -0.49865426110E+02  0.49865426110E+02  0.00000000000E+00 0.  1.
          6    2    1    2  501    0  0.35878940638E+02  0.66990272334E+02  0.37231192281E+03  0.41493386686E+03  0.16667018638E+03 0.  0.
         24    2    3    3    0    0  0.70862874260E+02  0.57421405778E+02  0.17575355663E+03  0.21500207814E+03  0.83772406854E+02 0.  0.
         -6    2    1    2    0  502 -0.35878940638E+02 -0.66990272334E+02  0.26443502490E+03  0.32154393308E+03  0.16640199379E+03 0.  0.
        -24    2    5    5    0    0  0.37232777330E+02 -0.65237666923E+02  0.15158475552E+03  0.18698662845E+03  0.79648152642E+02 0.  0.
          5    1    3    3  501    0 -0.34983933622E+02  0.95688665555E+01  0.19655836619E+03  0.19993178871E+03  0.47000000000E+01 0. -1.
        -11    1    4    4    0    0  0.43249587414E+02  0.24400905191E+02  0.16256790164E+03  0.16998309807E+03  0.00000000000E+00 0.  1.
         12    1    4    4    0    0  0.27613286846E+02  0.33020500587E+02  0.13185654983E+02  0.45018980073E+02  0.00000000000E+00 0. -1.
         -5    1    5    5    0  502 -0.73111717968E+02 -0.17526054108E+01  0.11285026938E+03  0.13455730463E+03  0.47000000000E+01 0.  1.
         13    1    6    6    0    0  0.11607542096E+02 -0.74995556776E+02  0.79704685524E+02  0.11005410244E+03  0.00000000000E+00 0. -1.
        -14    1    6    6    0    0  0.25625235234E+02  0.97578898531E+01  0.71880069999E+02  0.76932526010E+02  0.00000000000E+00 0.  1.
</event>
<event>
12    1  0.8462562E-002  0.2084892E+03  0.7818608E-02  0.1142931E+00
         21   -1    0    0  501  502  0.00000000000E+00  0.00000000000E+00  0.51730020157E+02  0.51730020157E+02  0.00000000000E+00 0.  1.
         21   -1    0    0  502  503 -0.00000000000E+00 -0.00000000000E+00 -0.11889588088E+04  0.11889588088E+04  0.00000000000E+00 0.  1.
         -6    2    1    2    0  503  0.10397643109E+02 -0.11695090264E+03 -0.90691554171E+03  0.93057162849E+03  0.17228502938E+03 0.  0.
        -24    2    3    3    0    0  0.11413556704E+02 -0.70813396293E+01 -0.58280507136E+03  0.58831143515E+03  0.79171831336E+02 0.  0.
          6    2    1    2  501    0 -0.10397643109E+02  0.11695090264E+03 -0.23031324690E+03  0.31011720043E+03  0.17129758228E+03 0.  0.
         24    2    5    5    0    0 -0.14534521363E+02 -0.85686704623E+01 -0.76337919264E+02  0.11136416646E+03  0.79308418399E+02 0.  0.
          5    1    5    5  501    0  0.41368782544E+01  0.12551957310E+03 -0.15397532763E+03  0.19875303397E+03  0.47000000000E+01 0. -1.
        -11    1    6    6    0    0 -0.80728017081E+01 -0.48891895184E+01  0.16081323720E+02  0.18646267030E+02  0.00000000000E+00 0.  1.
         12    1    6    6    0    0 -0.64617196551E+01 -0.36794809438E+01 -0.92419242984E+02  0.92717899430E+02  0.00000000000E+00 0. -1.
         -5    1    3    3    0  503 -0.10159135956E+01 -0.10986956301E+03 -0.32411047035E+03  0.34226019334E+03  0.47000000000E+01 0.  1.
         13    1    4    4    0    0  0.20429020963E+02  0.29172506773E+02 -0.40841216103E+03  0.40996203889E+03  0.00000000000E+00 0. -1.
        -14    1    4    4    0    0 -0.90154642591E+01 -0.36253846402E+02 -0.17439291033E+03  0.17834939626E+03  0.00000000000E+00 0.  1.
</event>
<event>
12    1  0.8462562E-002  0.1765800E+03  0.7818608E-02  0.1171723E+00
         21   -1    0    0  503  502  0.00000000000E+00  0.00000000000E+00  0.48226503912E+03  0.48226503912E+03  0.00000000000E+00 0. -1.
         21   -1    0    0  501  503 -0.00000000000E+00 -0.00000000000E+00 -0.15199255579E+03  0.15199255579E+03  0.00000000000E+00 0. -1.
          6    2    1    2  501    0  0.38174860353E+02  0.31714523226E+01  0.40622035512E+03  0.44203748912E+03  0.17004348502E+03 0.  0.
         24    2    3    3    0    0  0.14314481511E+02 -0.67495561214E+02  0.24545277128E+03  0.26474831716E+03  0.71302547951E+02 0.  0.
         -6    2    1    2    0  502 -0.38174860353E+02 -0.31714523226E+01 -0.75947871789E+02  0.19222010580E+03  0.17237491630E+03 0.  0.
        -24    2    5    5    0    0 -0.82399078018E+02 -0.95098319912E+01 -0.13199810119E+02  0.11504908968E+03  0.78625778765E+02 0.  0.
          5    1    3    3  501    0  0.23860378842E+02  0.70667013536E+02  0.16076758384E+03  0.17728917196E+03  0.47000000000E+01 0. -1.
        -11    1    4    4    0    0 -0.54263361578E+01 -0.84522381041E+01  0.15275596564E+03  0.15308582721E+03  0.00000000000E+00 0.  1.
         12    1    4    4    0    0  0.19740817669E+02 -0.59043323110E+02  0.92696805641E+02  0.11166248995E+03  0.00000000000E+00 0. -1.
         -5    1    5    5    0  502  0.44224217665E+02  0.63383796686E+01 -0.62748061670E+02  0.77171016115E+02  0.47000000000E+01 0.  1.
         11    1    6    6    0    0 -0.64699631802E+02 -0.12049814578E+02 -0.44189121546E+02  0.79271172880E+02  0.00000000000E+00 0. -1.
        -12    1    6    6    0    0 -0.17699446216E+02  0.25399825873E+01  0.30989311427E+02  0.35777916801E+02  0.00000000000E+00 0.  1.
</event>
<event>
12    1  0.8462562E-002  0.2741054E+03  0.7818608E-02  0.1100391E+00
         21   -1    0    0  501  502  0.00000000000E+00  0.00000000000E+00  0.97753420304E+02  0.97753420304E+02  0.00000000000E+00 0.  1.
         21   -1    0    0  502  503 -0.00000000000E+00 -0.00000000000E+00 -0.13257227055E+04  0.13257227055E+04  0.00000000000E+00 0. -1.
         -6    2    1    2    0  503  0.19763042754E+03 -0.34848254892E+02 -0.10803418832E+04  0.11121441135E+04  0.17162097146E+03 0.  0.
        -24    2    3    3    0    0  0.15273856680E+03  0.26393484126E+01 -0.98727357281E+03  0.10021241155E+04  0.78788319856E+02 0.  0.
          6    2    1    2  501    0 -0.19763042754E+03  0.34848254892E+02 -0.14762740195E+03  0.31133201225E+03  0.18671257399E+03 0.  0.
         24    2    5    5    0    0 -0.22102840055E+03  0.25789987221E+02 -0.99547579875E+02  0.25689602559E+03  0.81038077558E+02 0.  0.
          5    1    5    5  501    0  0.23397973001E+02  0.90582676714E+01 -0.48079822072E+02  0.54435986665E+02  0.47000000000E+01 0. -1.
        -13    1    6    6    0    0 -0.92083379044E+02  0.43593153454E+02 -0.69429261130E+02  0.12328882360E+03  0.00000000000E+00 0.  1.
         14    1    6    6    0    0 -0.12894502150E+03 -0.17803166233E+02 -0.30118318746E+02  0.13360720198E+03  0.00000000000E+00 0. -1.
         -5    1    3    3    0  503  0.44891860741E+02 -0.37487603305E+02 -0.93068310394E+02  0.11001999801E+03  0.47000000000E+01 0.  1.
         11    1    4    4    0    0  0.66345321377E+01  0.23232690467E+02 -0.15527977821E+03  0.15714828807E+03  0.00000000000E+00 0. -1.
        -12    1    4    4    0    0  0.14610403467E+03 -0.20593342054E+02 -0.83199379460E+03  0.84497582743E+03  0.00000000000E+00 0.  1.
</event>
<event>
12    1  0.8462562E-002  0.2189725E+03  0.7818608E-02  0.1135139E+00
         21   -1    0    0  501  502  0.00000000000E+00  0.00000000000E+00  0.63695873636E+03  0.63695873636E+03  0.00000000000E+00 0.  1.
         21   -1    0    0  502  503 -0.00000000000E+00 -0.00000000000E+00 -0.78254661826E+02  0.78254661826E+02  0.00000000000E+00 0.  1.
         -6    2    1    2    0  503 -0.12999401737E+03 -0.25514143479E+02  0.35722614306E+03  0.41765277069E+03  0.17109618205E+03 0.  0.
        -24    2    3    3    0    0 -0.63128019312E+01  0.11323800166E+02  0.89769973154E+02  0.12065282126E+03  0.79563655512E+02 0.  0.
          6    2    1    2  501    0  0.12999401737E+03  0.25514143479E+02  0.20147793147E+03  0.29756062749E+03  0.17435467901E+03 0.  0.
         24    2    5    5    0    0  0.10355904905E+03  0.21239054984E+01  0.46001439507E+02  0.13805846344E+03  0.78835393550E+02 0.  0.
          5    1    5    5  501    0  0.26434968325E+02  0.23390237980E+02  0.15547649196E+03  0.15950216405E+03  0.47000000000E+01 0. -1.
        -11    1    6    6    0    0  0.12467613226E+02 -0.79801080702E+01 -0.20168445289E+02  0.25017787467E+02  0.00000000000E+00 0.  1.
         12    1    6    6    0    0  0.91091435823E+02  0.10104013569E+02  0.66169884796E+02  0.11304067597E+03  0.00000000000E+00 0. -1.
         -5    1    3    3    0  503 -0.12368121544E+03 -0.36837943644E+02  0.26745616991E+03  0.29699994944E+03  0.47000000000E+01 0.  1.
         13    1    4    4    0    0 -0.20062614871E+02  0.86002298103E+01 -0.69611868537E+01  0.22911363788E+02  0.00000000000E+00 0. -1.
        -14    1    4    4    0    0  0.13749812939E+02  0.27235703552E+01  0.96731160008E+02  0.97741457467E+02  0.00000000000E+00 0.  1.
</event>
<event>
12    1  0.8462562E-002  0.1978111E+03  0.7818608E-02  0.1151714E+00
         21   -1    0    0  503  502  0.00000000000E+00  0.00000000000E+00  0.46468719398E+02  0.46468719398E+02  0.00000000000E+00 0. -1.
         21   -1    0    0  501  503 -0.00000000000E+00 -0.00000000000E+00 -0.17048475505E+04  0.17048475505E+04  0.00000000000E+00 0. -1.
          6    2    1    2  501    0 -0.13316063082E+02 -0.96345971880E+02 -0.14535102474E+04  0.14669087477E+04  0.17224799190E+03 0.  0.
         24    2    3    3    0    0 -0.13874271121E+02 -0.10709646655E+03 -0.14474535621E+04  0.14536929174E+04  0.80244221847E+02 0.  0.
         -6    2    1    2    0  502  0.13316063082E+02  0.96345971880E+02 -0.20486858362E+03  0.28440752220E+03  0.17162936315E+03 0.  0.
        -24    2    5    5    0    0  0.12241231652E+02  0.27072983502E+02 -0.19652942584E+03  0.21446802167E+03  0.80560057800E+02 0.  0.
          5    1    3    3  501    0  0.55820803931E+00  0.10750494667E+02 -0.60566853307E+01  0.13215830243E+02  0.47000000000E+01 0. -1.
        -11    1    4    4    0    0  0.30475347958E+02 -0.19844599476E+02 -0.43656767228E+03  0.43807977292E+03  0.00000000000E+00 0.  1.
         12    1    4    4    0    0 -0.44349619079E+02 -0.87251867071E+02 -0.10108858898E+04  0.10156131445E+04  0.00000000000E+00 0. -1.
         -5    1    5    5    0  502  0.10748314300E+01  0.69272988378E+02 -0.83391577865E+01  0.69939500527E+02  0.47000000000E+01 0.  1.
         11    1    6    6    0    0  0.12199549007E+02  0.55423234003E+02 -0.14394840317E+03  0.15473107845E+03  0.00000000000E+00 0. -1.
        -12    1    6    6    0    0  0.41682644634E-01 -0.28350250501E+02 -0.52581022665E+02  0.59736943221E+02  0.00000000000E+00 0.  1.
</event>
<event>
12    1  0.8462562E-002  0.2195778E+03  0.7818608E-02  0.1134620E+00
         21   -1    0    0  503  502  0.00000000000E+00  0.00000000000E+00  0.20618470598E+03  0.20618470598E+03  0.00000000000E+00 0.  1.
         21   -1    0    0  501  503 -0.00000000000E+00 -0.00000000000E+00 -0.23865162100E+03  0.23865162100E+03  0.00000000000E+00 0.  1.
          6    2    1    2  501    0 -0.10819542132E+03 -0.78532360930E+02 -0.54930683440E+02  0.22634441916E+03  0.17418620839E+03 0.  0.
         24    2    3    3    0    0 -0.75262897628E+02 -0.72107928084E+02  0.29762099352E+02  0.13512609912E+03  0.80679756151E+02 0.  0.
         -6    2    1    2    0  502  0.10819542132E+03  0.78532360930E+02  0.22463768426E+02  0.21849190782E+03  0.17134909391E+03 0.  0.
        -24    2    5    5    0    0  0.47209635127E+01  0.41409400939E+02 -0.31831722346E+02  0.95792405396E+02  0.80161714062E+02 0.  0.
          5    1    3    3  501    0 -0.32932523693E+02 -0.64244328461E+01 -0.84692782792E+02  0.91218320042E+02  0.47000000000E+01 0. -1.
        -11    1    4    4    0    0 -0.22069086117E+02 -0.12932399997E+02 -0.27147301651E+02  0.37299698641E+02  0.00000000000E+00 0.  1.
         12    1    4    4    0    0 -0.53193811511E+02 -0.59175528087E+02  0.56909401003E+02  0.97826400475E+02  0.00000000000E+00 0. -1.
         -5    1    5    5    0  502  0.10347445781E+03  0.37122959991E+02  0.54295490772E+02  0.12269950243E+03  0.47000000000E+01 0.  1.
         13    1    6    6    0    0 -0.22882624467E+02  0.47876727856E+02  0.13562675844E+00  0.53064243774E+02  0.00000000000E+00 0. -1.
        -14    1    6    6    0    0  0.27603587980E+02 -0.64673269173E+01 -0.31967349105E+02  0.42728161622E+02  0.00000000000E+00 0.  1.
</event>
<event>
12    1  0.8462562E-002  0.2007732E+03  0.7818608E-02  0.1150900E+00
         21   -1    0    0  501  502  0.00000000000E+00  0.00000000000E+00  0.30866373548E+03  0.30866373548E+03  0.00000000000E+00 0.  1.
         21   -1    0    0  502  503 -0.00000000000E+00 -0.00000000000E+00 -0.21592058026E+03  0.21592058026E+03  0.00000000000E+00 0. -1.
         -6    2    1    2    0  503  0.43639807091E+02 -0.92768525406E+02 -0.12423138086E+03  0.22897000557E+03  0.16273719731E+03 0.  0.
        -24    2    3    3    0    0  0.63056046695E+02 -0.53443283887E+01 -0.74988813660E+02  0.12666213192E+03  0.80095858936E+02 0.  0.
          6    2    1    2  501    0 -0.43639807091E+02  0.92768525406E+02  0.21697453608E+03  0.29561431017E+03  0.17262514012E+03 0.  0.
         24    2    5    5    0    0  0.31487972719E+02  0.30715909948E+02  0.15433111367E+03  0.17967898874E+03  0.80817614405E+02 0.  0.
          5    1    5    5  501    0 -0.75127779810E+02  0.62052615458E+02  0.62643422415E+02  0.11593532143E+03  0.47000000000E+01 0. -1.
        -13    1    6    6    0    0  0.26839816506E+02  0.15164645333E+02  0.15964966349E+03  0.16259876159E+03  0.00000000000E+00 0.  1.
         14    1    6    6    0    0  0.46481562124E+01  0.15551264615E+02 -0.53185498205E+01  0.17080227150E+02  0.00000000000E+00 0. -1.
         -5    1    3    3    0  503 -0.19416239604E+02 -0.87424197017E+02 -0.49242567205E+02  0.10230787364E+03  0.47000000000E+01 0.  1.
         13    1    4    4    0    0  0.48472180898E+02 -0.10838178729E+02 -0.91403987632E+02  0.10402743578E+03  0.00000000000E+00 0. -1.
        -14    1    4    4    0    0  0.14583865797E+02  0.54938503403E+01  0.16415173973E+02  0.22634696148E+02  0.00000000000E+00 0.  1.
</event>
<event>
12    1  0.8462562E-002  0.1998490E+03  0.7818608E-02  0.1150068E+00
         21   -1    0    0  503  502  0.00000000000E+00  0.00000000000E+00  0.19971092630E+03  0.19971092630E+03  0.00000000000E+00 0. -1.
         21   -1    0    0  501  503 -0.00000000000E+00 -0.00000000000E+00 -0.20219791434E+03  0.20219791434E+03  0.00000000000E+00 0. -1.
          6    2    1    2  501    0 -0.39211437084E+02 -0.91281678368E+02 -0.26380046433E+02  0.20063665564E+03  0.17230577220E+03 0.  0.
         24    2    3    3    0    0  0.32584186744E+02 -0.14767438942E+02 -0.37814150168E+02  0.94986908058E+02  0.79453107370E+02 0.  0.
         -6    2    1    2    0  502  0.39211437084E+02  0.91281678368E+02  0.23893058397E+02  0.20127218500E+03  0.17340626463E+03 0.  0.
        -24    2    5    5    0    0  0.52670235116E+01  0.80113395087E+02 -0.48499604544E+02  0.12040351732E+03  0.75491044065E+02 0.  0.
          5    1    3    3  501    0 -0.71795623829E+02 -0.76514239427E+02  0.11434103736E+02  0.10564974758E+03  0.47000000000E+01 0. -1.
        -11    1    4    4    0    0 -0.61212845743E+01  0.25854452402E+02  0.12819094609E+01  0.26600115145E+02  0.00000000000E+00 0.  1.
         12    1    4    4    0    0  0.38705471318E+02 -0.40621891344E+02 -0.39096059629E+02  0.68386792913E+02  0.00000000000E+00 0. -1.
         -5    1    5    5    0  502  0.33944413573E+02  0.11168283281E+02  0.72392662940E+02  0.80868667677E+02  0.47000000000E+01 0.  1.
         13    1    6    6    0    0  0.34527664322E+02  0.69027914203E+02 -0.24524800672E+02  0.80984433015E+02  0.00000000000E+00 0. -1.
        -14    1    6    6    0    0 -0.29260640811E+02  0.11085480884E+02 -0.23974803871E+02  0.39419084309E+02  0.00000000000E+00 0.  1.
</event>
<event>
12    1  0.8462562E-002  0.2333965E+03  0.7818608E-02  0.1124307E+00
         21   -1    0    0  501  502  0.00000000000E+00  0.00000000000E+00  0.60949769095E+03  0.60949769095E+03  0.00000000000E+00 0.  1.
         21   -1    0    0  502  503 -0.00000000000E+00 -0.00000000000E+00 -0.11655854498E+03  0.11655854498E+03  0.00000000000E+00 0. -1.
         -6    2    1    2    0  503  0.63365632242E+02 -0.14476664160E+03  0.70817322050E+02  0.24370700273E+03  0.17148010441E+03 0.  0.
        -24    2    3    3    0    0  0.12473920642E+02 -0.16020106294E+03  0.67291314977E+02  0.19020270012E+03  0.76347670568E+02 0.  0.
          6    2    1    2  501    0 -0.63365632242E+02  0.14476664160E+03  0.42212182392E+03  0.48234923321E+03  0.17175961304E+03 0.  0.
         24    2    5    5    0    0 -0.10080520174E+03  0.60236758653E+02  0.23428441771E+03  0.27294053318E+03  0.76270508562E+02 0.  0.
          5    1    5    5  501    0  0.37439569503E+02  0.84529882949E+02  0.18783740621E+03  0.20940870003E+03  0.47000000000E+01 0. -1.
        -13    1    6    6    0    0 -0.51859576040E+02  0.24442562707E+02  0.18831290355E+03  0.19684665134E+03  0.00000000000E+00 0.  1.
         14    1    6    6    0    0 -0.48945625704E+02  0.35794195946E+02  0.45971514158E+02  0.76093881837E+02  0.00000000000E+00 0. -1.
         -5    1    3    3    0  503  0.50891711600E+02  0.15434421334E+02  0.35260070724E+01  0.53504302606E+02  0.47000000000E+01 0.  1.
         13    1    4    4    0    0  0.36737696405E+02 -0.89511132722E+02  0.12563029236E+02  0.97569108441E+02  0.00000000000E+00 0. -1.
        -14    1    4    4    0    0 -0.24263775764E+02 -0.70689930214E+02  0.54728285741E+02  0.92633591683E+02  0.00000000000E+00 0.  1.
</event>
<event>
12    1  0.8462562E-002  0.3043639E+03  0.7818608E-02  0.1083240E+00
         21   -1    0    0  503  502  0.00000000000E+00  0.00000000000E+00  0.12159182772E+04  0.12159182772E+04  0.00000000000E+00 0.  1.
         21   -1    0    0  501  503 -0.00000000000E+00 -0.00000000000E+00 -0.77853418424E+02  0.77853418424E+02  0.00000000000E+00 0.  1.
          6    2    1    2  501    0  0.23606261912E+03  0.80843066726E+02  0.46432370826E+03  0.55447166512E+03  0.17199174337E+03 0.  0.
         24    2    3    3    0    0  0.19990647225E+03  0.75947172282E+02  0.25918813082E+03  0.34606357538E+03  0.82770407882E+02 0.  0.
         -6    2    1    2    0  502 -0.23606261912E+03 -0.80843066726E+02  0.67374115050E+03  0.73930003048E+03  0.17428779536E+03 0.  0.
        -24    2    5    5    0    0 -0.24046269860E+03 -0.75276839693E+02  0.49983520217E+03  0.56518595165E+03  0.78173004325E+02 0.  0.
          5    1    3    3  501    0  0.36156146871E+02  0.48958944434E+01  0.20513557744E+03  0.20840808974E+03  0.47000000000E+01 0. -1.
        -13    1    4    4    0    0  0.13773300361E+03  0.82110697348E+02  0.22027376875E+03  0.27245748311E+03  0.00000000000E+00 0.  1.
         14    1    4    4    0    0  0.62173468641E+02 -0.61635250660E+01  0.38914362069E+02  0.73606092270E+02  0.00000000000E+00 0. -1.
         -5    1    5    5    0  502  0.44000794730E+01 -0.55662270326E+01  0.17390594833E+03  0.17411407884E+03  0.47000000000E+01 0.  1.
         11    1    6    6    0    0 -0.84034921368E+02  0.42137179414E+00  0.11047845223E+03  0.13880754292E+03  0.00000000000E+00 0. -1.
        -12    1    6    6    0    0 -0.15642777723E+03 -0.75698211487E+02  0.38935674994E+03  0.42637840873E+03  0.00000000000E+00 0.  1.
</event>
<event>
12    1  0.8462562E-002  0.2228240E+03  0.7818608E-02  0.1131839E+00
         21   -1    0    0  503  502  0.00000000000E+00  0.00000000000E+00  0.38753493277E+03  0.38753493277E+03  0.00000000000E+00 0. -1.
         21   -1    0    0  501  503 -0.00000000000E+00 -0.00000000000E+00 -0.12838688849E+03  0.12838688849E+03  0.00000000000E+00 0. -1.
          6    2    1    2  501    0 -0.33456003664E+01 -0.14168174702E+03  0.14399339133E+03  0.26510093238E+03  0.17163769143E+03 0.  0.
         24    2    3    3    0    0  0.10724963021E+02 -0.66336894988E+02  0.14780997016E+03  0.18821475836E+03  0.95191383625E+02 0.  0.
         -6    2    1    2    0  502  0.33456003664E+01  0.14168174702E+03  0.11515465295E+03  0.25082088889E+03  0.17194654322E+03 0.  0.
        -24    2    5    5    0    0 -0.46133781576E+02  0.12466417505E+03  0.12209313020E+03  0.19782995136E+03  0.80996758397E+02 0.  0.
          5    1    3    3  501    0 -0.14070563387E+02 -0.75344852029E+02 -0.38165788287E+01  0.76886174019E+02  0.47000000000E+01 0. -1.
        -13    1    4    4    0    0  0.38744224657E+02  0.57441835415E+01  0.48167294484E+02  0.62082194281E+02  0.00000000000E+00 0.  1.
         14    1    4    4    0    0 -0.28019261637E+02 -0.72081078529E+02  0.99642675677E+02  0.12613256408E+03  0.00000000000E+00 0. -1.
         -5    1    5    5    0  502  0.49479381942E+02  0.17017571967E+02 -0.69384772527E+01  0.52990937524E+02  0.47000000000E+01 0.  1.
         11    1    6    6    0    0 -0.29110853059E+02  0.60203733226E+02  0.11193627911E+03  0.13039042082E+03  0.00000000000E+00 0. -1.
        -12    1    6    6    0    0 -0.17022928517E+02  0.64460441824E+02  0.10156851084E+02  0.67439530540E+02  0.00000000000E+00 0.  1.
</event>
<event>
12    1  0.8462562E-002  0.2707933E+03  0.7818608E-02  0.1100863E+00
         21   -1    0    0  501  502  0.00000000000E+00  0.00000000000E+00  0.32864858465E+03  0.32864858465E+03  0.00000000000E+00 0.  1.
         21   -1    0    0  502  503 -0.00000000000E+00 -0.00000000000E+00 -0.57533588241E+03  0.57533588241E+03  0.00000000000E+00 0. -1.
         -6    2    1    2    0  503  0.20785036821E+03 -0.22320654231E+02  0.23043503316E+03  0.35537283711E+03  0.17172525055E+03 0.  0.
        -24    2    3    3    0    0  0.47277585925E+02  0.40468699580E+01  0.13219835043E+02  0.83925978522E+02  0.67950412398E+02 0.  0.
          6    2    1    2  501    0 -0.20785036821E+03  0.22320654231E+02 -0.47712233092E+03  0.54861162995E+03  0.17213080691E+03 0.  0.
         24    2    5    5    0    0 -0.22686143244E+03  0.19826286818E+02 -0.38508654998E+03  0.45448237092E+03  0.80021142975E+02 0.  0.
          5    1    5    5  501    0  0.19011064239E+02  0.24943674137E+01 -0.92035780945E+02  0.94129259035E+02  0.47000000000E+01 0. -1.
        -11    1    6    6    0    0 -0.15237096450E+02  0.21098782606E+02 -0.21356311142E+02  0.33666300084E+02  0.00000000000E+00 0.  1.
         12    1    6    6    0    0 -0.21162433599E+03 -0.12724957887E+01 -0.36373023884E+03  0.42081607084E+03  0.00000000000E+00 0. -1.
         -5    1    3    3    0  503  0.16057278228E+03 -0.26367524189E+02  0.21721519812E+03  0.27144685859E+03  0.47000000000E+01 0.  1.
         11    1    4    4    0    0  0.56064769322E+02  0.18688178411E+02 -0.45615131868E+01  0.59273212955E+02  0.00000000000E+00 0. -1.
        -12    1    4    4    0    0 -0.87871833970E+01 -0.14641308453E+02  0.17781348229E+02  0.24652765567E+02  0.00000000000E+00 0.  1.
</event>
<event>
12    1  0.8462562E-002  0.1972608E+03  0.7818608E-02  0.1154246E+00
         21   -1    0    0  503  502  0.00000000000E+00  0.00000000000E+00  0.10995060936E+03  0.10995060936E+03  0.00000000000E+00 0.  1.
         21   -1    0    0  501  503 -0.00000000000E+00 -0.00000000000E+00 -0.30347969175E+04  0.30347969175E+04  0.00000000000E+00 0.  1.
          6    2    1    2  501    0 -0.40874867977E+02  0.62773463314E+02 -0.29491789869E+04  0.29557686818E+04  0.18248435854E+03 0.  0.
         24    2    3    3    0    0  0.23272265303E+02  0.85973878702E+02 -0.13735191732E+04  0.13786259957E+04  0.78240722249E+02 0.  0.
         -6    2    1    2    0  502  0.40874867977E+02 -0.62773463314E+02  0.24332678791E+02  0.18897884502E+03  0.17178376547E+03 0.  0.
        -24    2    5    5    0    0  0.42959386358E+02 -0.27114947215E+02  0.79685776705E+02  0.12293393275E+03  0.78626964677E+02 0.  0.
          5    1    3    3  501    0 -0.64147133280E+02 -0.23200415388E+02 -0.15756598136E+04  0.15771426861E+04  0.47000000000E+01 0. -1.
        -13    1    4    4    0    0  0.80394568744E+01  0.30974096707E+02 -0.10222665007E+04  0.10227672394E+04  0.00000000000E+00 0.  1.
         14    1    4    4    0    0  0.15232808429E+02  0.54999781995E+02 -0.35125267257E+03  0.35585875634E+03  0.00000000000E+00 0. -1.
         -5    1    5    5    0  502 -0.20845183812E+01 -0.35658516099E+02 -0.55353097914E+02  0.66044912264E+02  0.47000000000E+01 0.  1.
         11    1    6    6    0    0  0.61337203474E+01  0.84263009433E+01 -0.13237985370E+02  0.16848422168E+02  0.00000000000E+00 0. -1.
        -12    1    6    6    0    0  0.36825666011E+02 -0.35541248159E+02  0.92923762076E+02  0.10608551059E+03  0.00000000000E+00 0.  1.
</event>
<event>
12    1  0.8462562E-002  0.2045090E+03  0.7818608E-02  0.1146257E+00
         21   -1    0    0  501  502  0.00000000000E+00  0.00000000000E+00  0.46981032606E+03  0.46981032606E+03  0.00000000000E+00 0. -1.
         21   -1    0    0  502  503 -0.00000000000E+00 -0.00000000000E+00 -0.11460663663E+03  0.11460663663E+03  0.00000000000E+00 0. -1.
         -6    2    1    2    0  503 -0.58749883681E+02 -0.90927572610E+02  0.37588229702E+02  0.20665576745E+03  0.17197197131E+03 0.  0.
        -24    2    3    3    0    0 -0.25993758733E+02 -0.12741602425E+03  0.35789327258E+02  0.15736381198E+03  0.81067716426E+02 0.  0.
          6    2    1    2  501    0  0.58749883681E+02  0.90927572610E+02  0.31761545973E+03  0.37776119524E+03  0.17350668019E+03 0.  0.
         24    2    5    5    0    0  0.46066673825E+02  0.20958048463E+02  0.50807914921E+02  0.10160009354E+03  0.71970525605E+02 0.  0.
          5    1    5    5  501    0  0.12683209855E+02  0.69969524147E+02  0.26680754481E+03  0.27616110170E+03  0.47000000000E+01 0. -1.
        -13    1    6    6    0    0  0.27705183867E+02  0.47201187175E+02  0.23711510640E+02  0.59647003451E+02  0.00000000000E+00 0.  1.
         14    1    6    6    0    0  0.18361489959E+02 -0.26243138713E+02  0.27096404281E+02  0.41953090089E+02  0.00000000000E+00 0. -1.
         -5    1    3    3    0  503 -0.32756124948E+02  0.36488451638E+02  0.17989024438E+01  0.49291955475E+02  0.47000000000E+01 0.  1.
         13    1    4    4    0    0 -0.50165652526E+02 -0.10346255212E+03  0.42669889785E+02  0.12264506463E+03  0.00000000000E+00 0. -1.
        -14    1    4    4    0    0  0.24171893794E+02 -0.23953472127E+02 -0.68805625266E+01  0.34718747345E+02  0.00000000000E+00 0.  1.
</event>
<event>
12    1  0.8462562E-002  0.2344112E+03  0.7818608E-02  0.1123709E+00
         21   -1    0    0  501  502  0.00000000000E+00  0.00000000000E+00  0.50305803209E+02  0.50305803209E+02  0.00000000000E+00 0. -1.
         21   -1    0    0  502  503 -0.00000000000E+00 -0.00000000000E+00 -0.16589189551E+04  0.16589189551E+04  0.00000000000E+00 0.  1.
         -6    2    1    2    0  503  0.11638750095E+03  0.10704590640E+03 -0.30232537879E+03  0.38207127907E+03  0.17196787832E+03 0.  0.
        -24    2    3    3    0    0  0.11661750183E+03  0.97602474764E+02 -0.31903266367E+03  0.36231135323E+03  0.79760838606E+02 0.  0.
          6    2    1    2  501    0 -0.11638750095E+03 -0.10704590640E+03 -0.13062877731E+04  0.13271534793E+04  0.17304258105E+03 0.  0.
         24    2    5    5    0    0 -0.82419102501E+02 -0.10534549827E+03 -0.12600432241E+04  0.12695566756E+04  0.78578899258E+02 0.  0.
          5    1    5    5  501    0 -0.33968398449E+02 -0.17004081244E+01 -0.46244548981E+02  0.57596803656E+02  0.47000000000E+01 0. -1.
        -13    1    6    6    0    0 -0.89344775130E+02 -0.60434145267E+02 -0.79173152672E+03  0.79904542121E+03  0.00000000000E+00 0.  1.
         14    1    6    6    0    0  0.69256726294E+01 -0.44911353006E+02 -0.46831169742E+03  0.47051125440E+03  0.00000000000E+00 0. -1.
         -5    1    3    3    0  503 -0.23000088048E+00  0.94434316334E+01  0.16707284876E+02  0.19759925844E+02  0.47000000000E+01 0.  1.
         11    1    4    4    0    0  0.10065148076E+03  0.62596821381E+02 -0.16259516632E+03  0.20121200446E+03  0.00000000000E+00 0. -1.
        -12    1    4    4    0    0  0.15966021070E+02  0.35005653384E+02 -0.15643749735E+03  0.16109934877E+03  0.00000000000E+00 0.  1.
</event>
<event>
12    1  0.8462562E-002  0.1854271E+03  0.7818608E-02  0.1162941E+00
         21   -1    0    0  501  502  0.00000000000E+00  0.00000000000E+00  0.24591328347E+03  0.24591328347E+03  0.00000000000E+00 0.  1.
         21   -1    0    0  502  503 -0.00000000000E+00 -0.00000000000E+00 -0.15499971946E+03  0.15499971946E+03  0.00000000000E+00 0. -1.
         -6    2    1    2    0  503  0.72493768947E+02  0.85120792803E+01 -0.19310365985E+02  0.18519904284E+03  0.16910941193E+03 0.  0.
        -24    2    3    3    0    0  0.11569851024E+03  0.97303548680E+01 -0.14054411921E+02  0.14140579086E+03  0.79481105398E+02 0.  0.
          6    2    1    2  501    0 -0.72493768947E+02 -0.85120792803E+01  0.11022392999E+03  0.21571396009E+03  0.17045643375E+03 0.  0.
         24    2    5    5    0    0 -0.46933813115E+02 -0.38321408498E+02  0.13595332001E+03  0.16853346665E+03  0.79050053749E+02 0.  0.
          5    1    5    5  501    0 -0.25559955832E+02  0.29809329218E+02 -0.25729390016E+02  0.47180493439E+02  0.47000000000E+01 0. -1.
        -13    1    6    6    0    0 -0.27742808001E+02 -0.62357334337E+02  0.84909648695E+02  0.10893919856E+03  0.00000000000E+00 0.  1.
         14    1    6    6    0    0 -0.19191005115E+02  0.24035925839E+02  0.51043671315E+02  0.59594268093E+02  0.00000000000E+00 0. -1.
         -5    1    3    3    0  503 -0.43204741298E+02 -0.12182755877E+01 -0.52559540642E+01  0.43793251982E+02  0.47000000000E+01 0.  1.
         13    1    4    4    0    0  0.12841754950E+02  0.20346906097E+02 -0.28166532900E+02  0.37044039109E+02  0.00000000000E+00 0. -1.
        -14    1    4    4    0    0  0.10285675529E+03 -0.10616551229E+02  0.14112120979E+02  0.10436175175E+03  0.00000000000E+00 0.  1.
</event>
<event>
12    1  0.8462562E-002  0.2468077E+03  0.7818608E-02  0.1115606E+00
         21   -1    0    0  501  502  0.00000000000E+00  0.00000000000E+00  0.87091036135E+02  0.87091036135E+02  0.00000000000E+00 0. -1.
         21   -1    0    0  502  503 -0.00000000000E+00 -0.00000000000E+00 -0.76693430063E+03  0.76693430063E+03  0.00000000000E+00 0. -1.
         -6    2    1    2    0  503 -0.13931523567E+03  0.10866431378E+03 -0.46989069215E+03  0.52999735802E+03  0.16995078395E+03 0.  0.
        -24    2    3    3    0    0 -0.10126144392E+03  0.19922908499E+01 -0.28801294033E+03  0.31568772653E+03  0.80308390839E+02 0.  0.
          6    2    1    2  501    0  0.13931523567E+03 -0.10866431378E+03 -0.20995257235E+03  0.32402797874E+03  0.17232927898E+03 0.  0.
         24    2    5    5    0    0 -0.11372728633E+01 -0.42945719799E+02 -0.60976590245E+02  0.10894247483E+03  0.79402078225E+02 0.  0.
          5    1    5    5  501    0  0.14045250853E+03 -0.65718593982E+02 -0.14897598210E+03  0.21508550391E+03  0.47000000000E+01 0. -1.
        -13    1    6    6    0    0  0.25504383054E+02  0.12738329166E+02 -0.17741350917E+02  0.33578179184E+02  0.00000000000E+00 0.  1.
         14    1    6    6    0    0 -0.26641655918E+02 -0.55684048965E+02 -0.43235239328E+02  0.75364295651E+02  0.00000000000E+00 0. -1.
         -5    1    3    3    0  503 -0.38053791754E+02  0.10667202293E+03 -0.18187775182E+03  0.21430963149E+03  0.47000000000E+01 0.  1.
         11    1    4    4    0    0 -0.98664932442E+02  0.25681573199E+02 -0.25765871196E+03  0.27709623589E+03  0.00000000000E+00 0. -1.
        -12    1    4    4    0    0 -0.25965114732E+01 -0.23689282349E+02 -0.30354228370E+02  0.38591490642E+02  0.00000000000E+00 0.  1.
</event>
<event>
12    1  0.8462562E-002  0.1761726E+03  0.7818608E-02  0.1172035E+00
         21   -1    0    0  501  502  0.00000000000E+00  0.00000000000E+00  0.62972374844E+03  0.62972374844E+03  0.00000000000E+00 0. -1.
         21   -1    0    0  502  503 -0.00000000000E+00 -0.00000000000E+00 -0.66949142932E+02  0.66949142932E+02  0.00000000000E+00 0. -1.
         -6    2    1    2    0  503  0.20760271724E+02 -0.34198344900E+02  0.98698181557E+02  0.20028220058E+03  0.16962049744E+03 0.  0.
        -24    2    3    3    0    0  0.51690162391E+01 -0.87859266352E+02  0.64613612707E+02  0.13465880862E+03  0.78816916841E+02 0.  0.
          6    2    1    2  501    0 -0.20760271724E+02  0.34198344900E+02  0.46407642395E+03  0.49639069079E+03  0.17157002931E+03 0.  0.
         24    2    5    5    0    0 -0.44689902552E+02  0.23128355353E+02  0.11306619828E+03  0.14436023696E+03  0.74322302233E+02 0.  0.
          5    1    5    5  501    0  0.23929630828E+02  0.11069989547E+02  0.35101022567E+03  0.35203045383E+03  0.47000000000E+01 0. -1.
        -11    1    6    6    0    0 -0.27089718873E+02 -0.25842859954E+02  0.52961800953E+02  0.64858759157E+02  0.00000000000E+00 0.  1.
         12    1    6    6    0    0 -0.17600183679E+02  0.48971215308E+02  0.60104397329E+02  0.79501477801E+02  0.00000000000E+00 0. -1.
         -5    1    3    3    0  503  0.15591255485E+02  0.53660921451E+02  0.34084568850E+02  0.65623391960E+02  0.47000000000E+01 0.  1.
         11    1    4    4    0    0  0.36369846213E+02 -0.74820164227E+02  0.54144404803E+02  0.99259454260E+02  0.00000000000E+00 0. -1.
        -12    1    4    4    0    0 -0.31200829974E+02 -0.13039102125E+02  0.10469207904E+02  0.35399354364E+02  0.00000000000E+00 0.  1.
</event>
<event>
12    1  0.8462562E-002  0.2648154E+03  0.7818608E-02  0.1105582E+00
         21   -1    0    0  501  502  0.00000000000E+00  0.00000000000E+00  0.45974885477E+03  0.45974885477E+03  0.00000000000E+00 0. -1.
         21   -1    0    0  502  503 -0.00000000000E+00 -0.00000000000E+00 -0.16234112974E+03  0.16234112974E+03  0.00000000000E+00 0. -1.
         -6    2    1    2    0  503  0.13708171155E+03 -0.14013535212E+03  0.57141483915E+02  0.27091025881E+03  0.17803905916E+03 0.  0.
        -24    2    3    3    0    0  0.11130845928E+03 -0.18485765832E+02  0.42673753361E+02  0.14563341496E+03  0.81588882103E+02 0.  0.
          6    2    1    2  501    0 -0.13708171155E+03  0.14013535212E+03  0.24026624112E+03  0.35117972571E+03  0.16483331147E+03 0.  0.
         24    2    5    5    0    0 -0.12065504266E+03  0.33546484441E+02  0.13967031926E+03  0.20362413734E+03  0.79195866613E+02 0.  0.
          5    1    5    5  501    0 -0.16426668895E+02  0.10658886768E+03  0.10059592186E+03  0.14755558837E+03  0.47000000000E+01 0. -1.
        -11    1    6    6    0    0 -0.48965999930E+02  0.19474331430E+02  0.83557223516E+01  0.53354820118E+02  0.00000000000E+00 0.  1.
         12    1    6    6    0    0 -0.71689042728E+02  0.14072153011E+02  0.13131459691E+03  0.15026931722E+03  0.00000000000E+00 0. -1.
         -5    1    3    3    0  503  0.25773252274E+02 -0.12164958628E+03  0.14467730554E+02  0.12527684384E+03  0.47000000000E+01 0.  1.
         11    1    4    4    0    0  0.37844655370E+02 -0.39778539685E+02 -0.55946543878E+01  0.55189222837E+02  0.00000000000E+00 0. -1.
        -12    1    4    4    0    0  0.73463803909E+02  0.21292773853E+02  0.48268407749E+02  0.90444192128E+02  0.00000000000E+00 0.  1.
</event>
<event>
12    1  0.8462562E-002  0.1987794E+03  0.7818608E-02  0.1154716E+00
         21   -1    0    0  501  502  0.00000000000E+00  0.00000000000E+00  0.31794619000E+03  0.31794619000E+03  0.00000000000E+00 0. -1.
         21   -1    0    0  502  503 -0.00000000000E+00 -0.00000000000E+00 -0.34323183720E+03  0.34323183720E+03  0.00000000000E+00 0.  1.
         -6    2    1    2    0  503 -0.78951833344E+02  0.63888179854E+02 -0.28320962169E+03  0.34600711281E+03  0.17087463470E+03 0.  0.
        -24    2    3    3    0    0 -0.44479330878E+02 -0.26106597696E+02 -0.18718471948E+03  0.20988112243E+03  0.79699441822E+02 0.  0.
          6    2    1    2  501    0  0.78951833344E+02 -0.63888179854E+02  0.25792397448E+03  0.31517091439E+03  0.14997612193E+03 0.  0.
         24    2    5    5    0    0  0.28475594889E+02 -0.75953956791E+02  0.22979707075E+03  0.25595397141E+03  0.78267992830E+02 0.  0.
          5    1    5    5  501    0  0.50476238454E+02  0.12065776937E+02  0.28126903738E+02  0.59216942977E+02  0.47000000000E+01 0. -1.
        -13    1    6    6    0    0 -0.15914747199E+02 -0.30660697825E+02  0.28127962473E+02  0.44548174401E+02  0.00000000000E+00 0.  1.
         14    1    6    6    0    0  0.44390342088E+02 -0.45293258966E+02  0.20166910827E+03  0.21140579701E+03  0.00000000000E+00 0. -1.
         -5    1    3    3    0  503 -0.34472502466E+02  0.89994777550E+02 -0.96024902205E+02  0.13612599038E+03  0.47000000000E+01 0.  1.
         11    1    4    4    0    0  0.21497595446E+02 -0.15014984192E+02 -0.72658378212E+02  0.77245299434E+02  0.00000000000E+00 0. -1.
        -12    1    4    4    0    0 -0.65976926325E+02 -0.11091613504E+02 -0.11452634127E+03  0.13263582300E+03  0.00000000000E+00 0.  1.
</event>
<event>
12    1  0.8462562E-002  0.2682980E+03  0.7818608E-02  0.1102263E+00
         21   -1    0    0  503  502  0.00000000000E+00  0.00000000000E+00  0.43185569951E+03  0.43185569951E+03  0.00000000000E+00 0. -1.
         21   -1    0    0  501  503 -0.00000000000E+00 -0.00000000000E+00 -0.18669837349E+03  0.18669837349E+03  0.00000000000E+00 0.  1.
          6    2    1    2  501    0  0.77419588241E+01  0.20531201023E+03  0.22390292571E+03  0.34945146966E+03  0.17254231373E+03 0.  0.
         24    2    3    3    0    0 -0.23390903457E+02  0.33167077239E+02  0.99863220427E+02  0.13494955461E+03  0.81188238797E+02 0.  0.
         -6    2    1    2    0  502 -0.77419588241E+01 -0.20531201023E+03  0.21254400301E+02  0.26910260335E+03  0.17248623749E+03 0.  0.
        -24    2    5    5    0    0  0.57811767159E+01 -0.21325618185E+03  0.52935013927E+02  0.23344119091E+03  0.78619671905E+02 0.  0.
          5    1    3    3  501    0  0.31132862281E+02  0.17214493299E+03  0.12403970529E+03  0.21450191504E+03  0.47000000000E+01 0. -1.
        -11    1    4    4    0    0 -0.34662530860E+02  0.55672160544E+02  0.71012855132E+02  0.96662847565E+02  0.00000000000E+00 0.  1.
         12    1    4    4    0    0  0.11271627403E+02 -0.22505083306E+02  0.28850365295E+02  0.38286707048E+02  0.00000000000E+00 0. -1.
         -5    1    5    5    0  502 -0.13523135540E+02  0.79441716173E+01 -0.31680613626E+02  0.35661412440E+02  0.47000000000E+01 0.  1.
         13    1    6    6    0    0 -0.11549712827E+02  0.31847617270E+00 -0.30924331947E+01  0.11960787454E+02  0.00000000000E+00 0. -1.
        -14    1    6    6    0    0  0.17330889543E+02 -0.21357465802E+03  0.56027447121E+02  0.22148040345E+03  0.00000000000E+00 0.  1.
</event>
<event>
12    1  0.8462562E-002  0.2577575E+03  0.7818608E-02  0.1108683E+00
         21   -1    0    0  503  502  0.00000000000E+00  0.00000000000E+00  0.16243517855E+03  0.16243517855E+03  0.00000000000E+00 0.  1.
         21   -1    0    0  501  503 -0.00000000000E+00 -0.00000000000E+00 -0.42047008922E+03  0.42047008922E+03  0.00000000000E+00 0. -1.
          6    2    1    2  501    0  0.55539887945E+02 -0.18215758821E+03 -0.77321262300E+02  0.26910501282E+03  0.17370338001E+03 0.  0.
         24    2    3    3    0    0  0.39103231779E+02 -0.19665698070E+03 -0.29706270774E+02  0.21647732556E+03  0.76006178459E+02 0.  0.
         -6    2    1    2    0  502 -0.55539887945E+02  0.18215758821E+03 -0.18071364837E+03  0.31380025495E+03  0.17189273169E+03 0.  0.
        -24    2    5    5    0    0 -0.76316618278E+02  0.19842718616E+03 -0.17209458738E+03  0.28564442868E+03  0.82332364221E+02 0.  0.
          5    1    3    3  501    0  0.16436656166E+02  0.14499392490E+02 -0.47614991527E+02  0.52627687262E+02  0.47000000000E+01 0. -1.
        -11    1    4    4    0    0  0.19413641433E+02 -0.29851910033E+01 -0.48056836094E+01  0.20221163022E+02  0.00000000000E+00 0.  1.
         12    1    4    4    0    0  0.19689590346E+02 -0.19367178969E+03 -0.24900587164E+02  0.19625616253E+03  0.00000000000E+00 0. -1.
         -5    1    5    5    0  502  0.20776730333E+02 -0.16269597952E+02 -0.86190609904E+01  0.28155826274E+02  0.47000000000E+01 0.  1.
         11    1    6    6    0    0 -0.44593108843E+01  0.10558733989E+03 -0.52301873278E+02  0.11791546865E+03  0.00000000000E+00 0. -1.
        -12    1    6    6    0    0 -0.71857307393E+02  0.92839846271E+02 -0.11979271410E+03  0.16772896003E+03  0.00000000000E+00 0.  1.
</event>
<event>
12    1  0.8462562E-002  0.1811699E+03  0.7818608E-02  0.1166778E+00
         21   -1    0    0  501  502  0.00000000000E+00  0.00000000000E+00  0.47056869285E+03  0.47056869285E+03  0.00000000000E+00 0.  1.
         21   -1    0    0  502  503 -0.00000000000E+00 -0.00000000000E+00 -0.10592135855E+03  0.10592135855E+03  0.00000000000E+00 0.  1.
         -6    2    1    2    0  503  0.50078022218E+02 -0.21676010818E+02  0.13360443873E+02  0.18123696681E+03  0.17230983409E+03 0.  0.
        -24    2    3    3    0    0  0.81164706395E+02 -0.51488713245E+02  0.38000146754E+02  0.13139337026E+03  0.81125886369E+02 0.  0.
          6    2    1    2  501    0 -0.50078022218E+02  0.21676010818E+02  0.35128689042E+03  0.39525308458E+03  0.17275666047E+03 0.  0.
         24    2    5    5    0    0 -0.33703116447E+02 -0.14296356305E+02  0.33688554411E+03  0.35292534532E+03  0.98611072806E+02 0.  0.
          5    1    5    5  501    0 -0.16374905771E+02  0.35972367123E+02  0.14401346315E+02  0.42327739263E+02  0.47000000000E+01 0. -1.
        -11    1    6    6    0    0  0.11636478412E+02 -0.37287945835E+02  0.24337609516E+03  0.24649081571E+03  0.00000000000E+00 0.  1.
         12    1    6    6    0    0 -0.45339594859E+02  0.22991589530E+02  0.93509448951E+02  0.10643452961E+03  0.00000000000E+00 0. -1.
         -5    1    3    3    0  503 -0.31086684176E+02  0.29812702427E+02 -0.24639702880E+02  0.49843596551E+02  0.47000000000E+01 0.  1.
         11    1    4    4    0    0  0.75616546590E+02 -0.32977272221E+01  0.33191481329E+02  0.82646303946E+02  0.00000000000E+00 0. -1.
        -12    1    4    4    0    0  0.55481598045E+01 -0.48190986023E+02  0.48086654244E+01  0.48747066314E+02  0.00000000000E+00 0.  1.
</event>
<event>
12    1  0.8462562E-002  0.1986889E+03  0.7818608E-02  0.1150859E+00
         21   -1    0    0  501  502  0.00000000000E+00  0.00000000000E+00  0.13220507494E+04  0.13220507494E+04  0.00000000000E+00 0. -1.
         21   -1    0    0  502  503 -0.00000000000E+00 -0.00000000000E+00 -0.31997168209E+02  0.31997168209E+02  0.00000000000E+00 0. -1.
         -6    2    1    2    0  503  0.10083899310E+03  0.13187404914E+02  0.46989390787E+03  0.51017403672E+03  0.17068934623E+03 0.  0.
        -24    2    3    3    0    0  0.66743348560E+02 -0.41851030824E+02  0.39886813250E+03  0.41395297275E+03  0.77814479163E+02 0.  0.
          6    2    1    2  501    0 -0.10083899310E+03 -0.13187404914E+02  0.82015967329E+03  0.84387388085E+03  0.17064239483E+03 0.  0.
         24    2    5    5    0    0 -0.43988185503E+02 -0.66954198331E+02  0.36360073515E+03  0.38063416279E+03  0.79114133623E+02 0.  0.
          5    1    5    5  501    0 -0.56850807602E+02  0.53766793416E+02  0.45655893813E+03  0.46323971806E+03  0.47000000000E+01 0. -1.
        -13    1    6    6    0    0 -0.20228991893E+02 -0.31099030685E+02  0.41463280933E+02  0.55637806286E+02  0.00000000000E+00 0.  1.
         14    1    6    6    0    0 -0.23759193610E+02 -0.35855167646E+02  0.32213745422E+03  0.32499635650E+03  0.00000000000E+00 0. -1.
         -5    1    3    3    0  503  0.34095644545E+02  0.55038435738E+02  0.71025775368E+02  0.96221063973E+02  0.47000000000E+01 0.  1.
         13    1    4    4    0    0  0.56004237423E+01 -0.45894367683E+02  0.12404394564E+03  0.13238035421E+03  0.00000000000E+00 0. -1.
        -14    1    4    4    0    0  0.61142924818E+02  0.40433368588E+01  0.27482418686E+03  0.28157261854E+03  0.00000000000E+00 0.  1.
</event>
<event>
12    1  0.8462562E-002  0.1881372E+03  0.7818608E-02  0.1162257E+00
         21   -1    0    0  501  502  0.00000000000E+00  0.00000000000E+00  0.38661638611E+03  0.38661638611E+03  0.00000000000E+00 0. -1.
         21   -1    0    0  502  503 -0.00000000000E+00 -0.00000000000E+00 -0.10465102435E+03  0.10465102435E+03  0.00000000000E+00 0. -1.
         -6    2    1    2    0  503 -0.37545763539E+02  0.39132996261E+02  0.37935559587E+02  0.18313409462E+03  0.17075688617E+03 0.  0.
        -24    2    3    3    0    0 -0.68089629070E+02  0.72008845901E+02  0.49187554580E+02  0.13663198067E+03  0.80171136577E+02 0.  0.
          6    2    1    2  501    0  0.37545763539E+02 -0.39132996261E+02  0.24402980218E+03  0.30813331584E+03  0.18015138140E+03 0.  0.
         24    2    5    5    0    0  0.79954556519E+02  0.11203570435E+01  0.10255857129E+03  0.15498294090E+03  0.84305783413E+02 0.  0.
          5    1    5    5  501    0 -0.42408792979E+02 -0.40253353305E+02  0.14147123089E+03  0.15315037494E+03  0.47000000000E+01 0. -1.
        -11    1    6    6    0    0  0.29390098685E+02  0.60159580071E+01  0.99684546607E+02  0.10410080924E+03  0.00000000000E+00 0.  1.
         12    1    6    6    0    0  0.50564457834E+02 -0.48956009636E+01  0.28740246845E+01  0.50882131664E+02  0.00000000000E+00 0. -1.
         -5    1    3    3    0  503  0.30543865531E+02 -0.32875849640E+02 -0.11251994993E+02  0.46502113957E+02  0.47000000000E+01 0.  1.
         11    1    4    4    0    0 -0.92189655716E+01  0.51916392626E+02 -0.65182139739E+01  0.53129918717E+02  0.00000000000E+00 0. -1.
        -12    1    4    4    0    0 -0.58870663499E+02  0.20092453275E+02  0.55705768554E+02  0.83502061948E+02  0.00000000000E+00 0.  1.
</event>
<event>
12    1  0.8462562E-002  0.1927181E+03  0.7818608E-02  0.1160175E+00
         21   -1    0    0  503  502  0.00000000000E+00  0.00000000000E+00  0.11604313177E+04  0.11604313177E+04  0.00000000000E+00 0.  1.
         21   -1    0    0  501  503 -0.00000000000E+00 -0.00000000000E+00 -0.37358141998E+02  0.37358141998E+02  0.00000000000E+00 0. -1.
          6    2    1    2  501    0  0.23833944060E+02 -0.33086165216E+02  0.25942434928E+03  0.31289988387E+03  0.17012522773E+03 0.  0.
         24    2    3    3    0    0  0.31407609039E+02  0.43208312161E+02  0.12362811031E+03  0.15688412763E+03  0.80469396022E+02 0.  0.
         -6    2    1    2    0  502 -0.23833944060E+02  0.33086165216E+02  0.86364882639E+03  0.88488957579E+03  0.18835475785E+03 0.  0.
        -24    2    5    5    0    0 -0.38971036791E+02  0.65544549024E+02  0.82311655676E+03  0.83059746644E+03  0.80971943553E+02 0.  0.
          5    1    3    3  501    0 -0.75736649793E+01 -0.76294477377E+02  0.13579623897E+03  0.15601575625E+03  0.47000000000E+01 0. -1.
        -13    1    4    4    0    0  0.34065509113E+02 -0.15520146924E+02  0.54818963024E+02  0.66381116130E+02  0.00000000000E+00 0.  1.
         14    1    4    4    0    0 -0.26579000735E+01  0.58728459085E+02  0.68809147290E+02  0.90503011497E+02  0.00000000000E+00 0. -1.
         -5    1    5    5    0  502  0.15137092732E+02 -0.32458383808E+02  0.40532269633E+02  0.54292109347E+02  0.47000000000E+01 0.  1.
         13    1    6    6    0    0  0.18645106603E+02 -0.26358334436E+00  0.26640472469E+03  0.26705652363E+03  0.00000000000E+00 0. -1.
        -14    1    6    6    0    0 -0.57616143395E+02  0.65808132369E+02  0.55671183207E+03  0.56354094282E+03  0.00000000000E+00 0.  1.
</event>
<event>
12    1  0.8462562E-002  0.2133385E+03  0.7818608E-02  0.1139174E+00
         21   -1    0    0  501  502  0.00000000000E+00  0.00000000000E+00  0.24976330820E+03  0.24976330820E+03  0.00000000000E+00 0.  1.
         21   -1    0    0  502  503 -0.00000000000E+00 -0.00000000000E+00 -0.21229974746E+03  0.21229974746E+03  0.00000000000E+00 0.  1.
         -6    2    1    2    0  503 -0.44930568571E+02 -0.11794007710E+03  0.10714312015E+03  0.23873196900E+03  0.17200199722E+03 0.  0.
        -24    2    3    3    0    0 -0.79390371266E+02 -0.10122578607E+03  0.12527585156E+03  0.19609710680E+03  0.78807014247E+02 0.  0.
          6    2    1    2  501    0  0.44930568571E+02  0.11794007710E+03 -0.69679559412E+02  0.22333108666E+03  0.17056645476E+03 0.  0.
         24    2    5    5    0    0  0.31940357168E+02  0.83739524439E+02  0.24628000375E+02  0.12206693097E+03  0.79128394808E+02 0.  0.
          5    1    5    5  501    0  0.12990211403E+02  0.34200552659E+02 -0.94307559787E+02  0.10126415569E+03  0.47000000000E+01 0. -1.
        -11    1    6    6    0    0  0.47570204126E+02  0.80741270723E+02  0.11702863533E+01  0.93720044221E+02  0.00000000000E+00 0.  1.
         12    1    6    6    0    0 -0.15629846958E+02  0.29982537157E+01  0.23457714022E+02  0.28346886750E+02  0.00000000000E+00 0. -1.
         -5    1    3    3    0  503  0.34459802695E+02 -0.16714291028E+02 -0.18132731410E+02  0.42634862199E+02  0.47000000000E+01 0.  1.
         11    1    4    4    0    0 -0.49660543793E+01  0.11189536132E+02  0.27435717600E+00  0.12245108689E+02  0.00000000000E+00 0. -1.
        -12    1    4    4    0    0 -0.74424316886E+02 -0.11241532220E+03  0.12500149439E+03  0.18385199811E+03  0.00000000000E+00 0.  1.
</event>
<event>
12    1  0.8462562E-002  0.1745259E+03  0.7818608E-02  0.1174028E+00
         21   -1    0    0  501  502  0.00000000000E+00  0.00000000000E+00  0.56667359053E+02  0.56667359053E+02  0.00000000000E+00 0. -1.
         21   -1    0    0  502  503 -0.00000000000E+00 -0.00000000000E+00 -0.15533110926E+04  0.15533110926E+04  0.00000000000E+00 0. -1.
         -6    2    1    2    0  503  0.14080885246E+02  0.10512285768E+02 -0.14000768543E+04  0.14105180923E+04  0.17040337829E+03 0.  0.
        -24    2    3    3    0    0  0.13843859804E+02 -0.60432951409E+02 -0.84659472479E+03  0.85248777008E+03  0.78542829154E+02 0.  0.
          6    2    1    2  501    0 -0.14080885246E+02 -0.10512285768E+02 -0.96566879273E+02  0.19946035936E+03  0.17363897403E+03 0.  0.
         24    2    5    5    0    0  0.37446510396E+00  0.11814921415E+02  0.20811641515E+02  0.79014236646E+02  0.75302009124E+02 0.  0.
          5    1    5    5  501    0 -0.14455350350E+02 -0.22327207183E+02 -0.11737852079E+03  0.12044612271E+03  0.47000000000E+01 0. -1.
        -13    1    6    6    0    0 -0.31081288300E+02 -0.17686815578E+01 -0.10241333350E+02  0.32772848909E+02  0.00000000000E+00 0.  1.
         14    1    6    6    0    0  0.31455753404E+02  0.13583602973E+02  0.31052974864E+02  0.46241387737E+02  0.00000000000E+00 0. -1.
         -5    1    3    3    0  503  0.23702544223E+00  0.70945237177E+02 -0.55348212947E+03  0.55803032220E+03  0.47000000000E+01 0.  1.
         13    1    4    4    0    0  0.26514831831E+02 -0.66902193005E+02 -0.45684093560E+03  0.46247441029E+03  0.00000000000E+00 0. -1.
        -14    1    4    4    0    0 -0.12670972027E+02  0.64692415965E+01 -0.38975378919E+03  0.39001335978E+03  0.00000000000E+00 0.  1.
</event>
<event>
12    1  0.8462562E-002  0.2124402E+03  0.7818608E-02  0.1140967E+00
         21   -1    0    0  501  502  0.00000000000E+00  0.00000000000E+00  0.82021300554E+03  0.82021300554E+03  0.00000000000E+00 0. -1.
         21   -1    0    0  502  503 -0.00000000000E+00 -0.00000000000E+00 -0.53669297677E+02  0.53669297677E+02  0.00000000000E+00 0.  1.
         -6    2    1    2    0  503  0.11872547054E+03 -0.66168024283E+01  0.34167668255E+03  0.39886354087E+03  0.16795728448E+03 0.  0.
        -24    2    3    3    0    0  0.84694334502E+02 -0.68400348983E+02  0.21631797957E+03  0.25494613659E+03  0.79701482013E+02 0.  0.
          6    2    1    2  501    0 -0.11872547054E+03  0.66168024283E+01  0.42486702531E+03  0.47501876235E+03  0.17604350584E+03 0.  0.
         24    2    5    5    0    0 -0.14838887470E+03 -0.19925977511E+01  0.40333188661E+03  0.43707285984E+03  0.79579177379E+02 0.  0.
          5    1    5    5  501    0  0.29663404159E+02  0.86094001795E+01  0.21535138703E+02  0.37945902502E+02  0.47000000000E+01 0. -1.
        -11    1    6    6    0    0 -0.29433927409E+02 -0.15145959911E+02  0.18640939455E+03  0.18932569440E+03  0.00000000000E+00 0.  1.
         12    1    6    6    0    0 -0.11895494729E+03  0.13153362160E+02  0.21692249206E+03  0.24774716544E+03  0.00000000000E+00 0. -1.
         -5    1    3    3    0  503  0.34031136041E+02  0.61783546555E+02  0.12535870298E+03  0.14391740429E+03  0.47000000000E+01 0.  1.
         13    1    4    4    0    0 -0.84421470660E+01 -0.32161385564E+02  0.37681773499E+02  0.50254757213E+02  0.00000000000E+00 0. -1.
        -14    1    4    4    0    0  0.93136481568E+02 -0.36238963419E+02  0.17863620608E+03  0.20469137937E+03  0.00000000000E+00 0.  1.
</event>
<event>
12    1  0.8462562E-002  0.1937721E+03  0.7818608E-02  0.1155229E+00
         21   -1    0    0  501  502  0.00000000000E+00  0.00000000000E+00  0.75305542731E+03  0.75305542731E+03  0.00000000000E+00 0.  1.
         21   -1    0    0  502  503 -0.00000000000E+00 -0.00000000000E+00 -0.66849106446E+02  0.66849106446E+02  0.00000000000E+00 0. -1.
         -6    2    1    2    0  503 -0.22637733461E+02  0.84759815893E+02  0.13592131242E+03  0.23669017794E+03  0.17277425676E+03 0.  0.
        -24    2    3    3    0    0 -0.48822295575E+02  0.78683486636E+01  0.19026415913E+02  0.94266739370E+02  0.77965929694E+02 0.  0.
          6    2    1    2  501    0  0.22637733461E+02 -0.84759815893E+02  0.55028500844E+03  0.58321435581E+03  0.17212989555E+03 0.  0.
         24    2    5    5    0    0 -0.22243798463E+02  0.13400145065E+02  0.25255916346E+03  0.26649287152E+03  0.80981288354E+02 0.  0.
          5    1    5    5  501    0  0.44881531923E+02 -0.98159960958E+02  0.29772584498E+03  0.31672148429E+03  0.47000000000E+01 0. -1.
        -11    1    6    6    0    0  0.13625947782E+02  0.26859886674E+02  0.19523575687E+03  0.19754523717E+03  0.00000000000E+00 0.  1.
         12    1    6    6    0    0 -0.35869746245E+02 -0.13459741608E+02  0.57323406589E+02  0.68947634352E+02  0.00000000000E+00 0. -1.
         -5    1    3    3    0  503  0.26184562114E+02  0.76891467230E+02  0.11689489651E+03  0.14242343857E+03  0.47000000000E+01 0.  1.
         13    1    4    4    0    0 -0.10496281499E+02  0.38799526688E+02 -0.30187070043E+01  0.40307416048E+02  0.00000000000E+00 0. -1.
        -14    1    4    4    0    0 -0.38326014076E+02 -0.30931178024E+02  0.22045122917E+02  0.53959323322E+02  0.00000000000E+00 0.  1.
</event>
<event>
12    1  0.8462562E-002  0.1948438E+03  0.7818608E-02  0.1154447E+00
         21   -1    0    0  501  502  0.00000000000E+00  0.00000000000E+00  0.59243737511E+02  0.59243737511E+02  0.00000000000E+00 0.  1.
         21   -1    0    0  502  503 -0.00000000000E+00 -0.00000000000E+00 -0.68522030987E+03  0.68522030987E+03  0.00000000000E+00 0.  1.
         -6    2    1    2    0  503 -0.89988567277E+02 -0.95613197027E+01 -0.41315191325E+03  0.45679166299E+03  0.17255364059E+03 0.  0.
        -24    2    3    3    0    0 -0.23603230788E+00 -0.26652474777E+02 -0.15869132055E+03  0.18638473196E+03  0.94052766917E+02 0.  0.
          6    2    1    2  501    0  0.89988567277E+02  0.95613197027E+01 -0.21282465911E+03  0.28767238439E+03  0.17108975464E+03 0.  0.
         24    2    5    5    0    0  0.64251489966E+02 -0.11756380140E+02 -0.22791322833E+03  0.25070487980E+03  0.81498654415E+02 0.  0.
          5    1    5    5  501    0  0.25737077311E+02  0.21317699843E+02  0.15088569214E+02  0.36967504596E+02  0.47000000000E+01 0. -1.
        -13    1    6    6    0    0  0.60262939976E+02 -0.40746382613E+02 -0.13582490194E+03  0.15407885520E+03  0.00000000000E+00 0.  1.
         14    1    6    6    0    0  0.39885499899E+01  0.28990002473E+02 -0.92088326382E+02  0.96626024601E+02  0.00000000000E+00 0. -1.
         -5    1    3    3    0  503 -0.89752534969E+02  0.17091155074E+02 -0.25446059270E+03  0.27040693103E+03  0.47000000000E+01 0.  1.
         11    1    4    4    0    0 -0.64304134006E+01  0.12817840707E+02 -0.14258933078E+03  0.14330863376E+03  0.00000000000E+00 0. -1.
        -12    1    4    4    0    0  0.61943810927E+01 -0.39470315484E+02 -0.16101989773E+02  0.43076098200E+02  0.00000000000E+00 0.  1.
</event>
<event>
12    1  0.8462562E-002  0.1855849E+03  0.7818608E-02  0.1162653E+00
         21   -1    0    0  501  502  0.00000000000E+00  0.00000000000E+00  0.16781155349E+03  0.16781155349E+03  0.00000000000E+00 0. -1.
         21   -1    0    0  502  503 -0.00000000000E+00 -0.00000000000E+00 -0.41662747236E+03  0.41662747236E+03  0.00000000000E+00 0. -1.
         -6    2    1    2    0  503  0.30618557188E+02  0.55275174490E+02 -0.33300845473E+03  0.38123007173E+03  0.17449611948E+03 0.  0.
        -24    2    3    3    0    0  0.63610496901E+02 -0.11935322022E+02 -0.23770827355E+03  0.25994555722E+03  0.82932033481E+02 0.  0.
          6    2    1    2  501    0 -0.30618557188E+02 -0.55275174490E+02  0.84192535854E+02  0.20320895411E+03  0.17381787877E+03 0.  0.
         24    2    5    5    0    0 -0.23903865834E+02  0.20937314342E+02 -0.57810160801E+01  0.85010982127E+02  0.78636384719E+02 0.  0.
          5    1    5    5  501    0 -0.67146913541E+01 -0.76212488832E+02  0.89973551934E+02  0.11819797199E+03  0.47000000000E+01 0. -1.
        -11    1    6    6    0    0  0.14668847064E+02 -0.10987469343E+02 -0.25325305736E+02  0.31261328624E+02  0.00000000000E+00 0.  1.
         12    1    6    6    0    0 -0.38572712898E+02  0.31924783684E+02  0.19544289656E+02  0.53749653503E+02  0.00000000000E+00 0. -1.
         -5    1    3    3    0  503 -0.32991939713E+02  0.67210496512E+02 -0.95300181182E+02  0.12128451451E+03  0.47000000000E+01 0.  1.
         13    1    4    4    0    0  0.25136155653E+02  0.71345901847E+01 -0.96096482555E+01  0.27840151538E+02  0.00000000000E+00 0. -1.
        -14    1    4    4    0    0  0.38474341249E+02 -0.19069912206E+02 -0.22809862529E+03  0.23210540568E+03  0.00000000000E+00 0.  1.
</event>
<event>
12    1  0.8462562E-002  0.2250439E+03  0.7818608E-02  0.1130589E+00
         21   -1    0    0  503  502  0.00000000000E+00  0.00000000000E+00  0.83090310771E+03  0.83090310771E+03  0.00000000000E+00 0.  1.
         21   -1    0    0  501  503 -0.00000000000E+00 -0.00000000000E+00 -0.97034382715E+02  0.97034382715E+02  0.00000000000E+00 0. -1.
          6    2    1    2  501    0  0.13430265845E+03  0.45877047084E+02  0.82773810550E+02  0.23978374522E+03  0.17465060332E+03 0.  0.
         24    2    3    3    0    0  0.10300011434E+03 -0.82226632521E+01  0.11088446576E+03  0.17108929957E+03  0.79369691531E+02 0.  0.
         -6    2    1    2    0  502 -0.13430265845E+03 -0.45877047084E+02  0.65109491445E+03  0.68815374521E+03  0.17172385366E+03 0.  0.
        -24    2    5    5    0    0 -0.54257839124E+01 -0.49665949430E+02  0.31593131167E+03  0.32901542201E+03  0.77087019390E+02 0.  0.
          5    1    3    3  501    0  0.31302544105E+02  0.54099710336E+02 -0.28110655215E+02  0.68694445645E+02  0.47000000000E+01 0. -1.
        -11    1    4    4    0    0  0.96771110402E+02 -0.33286342201E+02  0.99937460079E+02  0.14303889091E+03  0.00000000000E+00 0.  1.
         12    1    4    4    0    0  0.62290039413E+01  0.25063678949E+02  0.10947005685E+02  0.28050408661E+02  0.00000000000E+00 0. -1.
         -5    1    5    5    0  502 -0.12887687454E+03  0.37889023460E+01  0.33516360278E+03  0.35913832321E+03  0.47000000000E+01 0.  1.
         11    1    6    6    0    0 -0.18172426007E+02 -0.56500502353E+02  0.13455339199E+03  0.14706175278E+03  0.00000000000E+00 0. -1.
        -12    1    6    6    0    0  0.12746642094E+02  0.68345529233E+01  0.18137791968E+03  0.18195366923E+03  0.00000000000E+00 0.  1.
</event>
<event>
12    1  0.8462562E-002  0.1808645E+03  0.7818608E-02  0.1167651E+00
         21   -1    0    0  501  502  0.00000000000E+00  0.00000000000E+00  0.11074821437E+03  0.11074821437E+03  0.00000000000E+00 0.  1.
         21   -1    0    0  502  503 -0.00000000000E+00 -0.00000000000E+00 -0.46010942804E+03  0.46010942804E+03  0.00000000000E+00 0.  1.
         -6    2    1    2    0  503 -0.49561886850E+02  0.17195882600E+02 -0.34868800102E+03  0.39280438782E+03  0.17308924295E+03 0.  0.
        -24    2    3    3    0    0  0.30277668134E+02  0.13070716691E+02 -0.25507493823E+03  0.26960995994E+03  0.80862386596E+02 0.  0.
          6    2    1    2  501    0  0.49561886850E+02 -0.17195882600E+02 -0.67321264044E+00  0.17805325459E+03  0.17014825667E+03 0.  0.
         24    2    5    5    0    0  0.47100261451E+02  0.44369711426E+02  0.32376206675E+02  0.10797661023E+03  0.80147511986E+02 0.  0.
          5    1    5    5  501    0  0.24616253991E+01 -0.61565594026E+02 -0.33049419315E+02  0.70076644358E+02  0.47000000000E+01 0. -1.
        -13    1    6    6    0    0 -0.11592274297E+02  0.35189515060E+02  0.31394582999E+02  0.48562358213E+02  0.00000000000E+00 0.  1.
         14    1    6    6    0    0  0.58692535748E+02  0.91801963660E+01  0.98162367547E+00  0.59414252018E+02  0.00000000000E+00 0. -1.
         -5    1    3    3    0  503 -0.79839554984E+02  0.41251659092E+01 -0.93613062797E+02  0.12319442788E+03  0.47000000000E+01 0.  1.
         11    1    4    4    0    0  0.40807515915E+01 -0.77535134778E+01  0.30857074441E+01  0.92893000400E+01  0.00000000000E+00 0. -1.
        -12    1    4    4    0    0  0.26196916542E+02  0.20824230169E+02 -0.25816064567E+03  0.26032065990E+03  0.00000000000E+00 0.  1.
</event>
<event>
12    1  0.8462562E-002  0.1883998E+03  0.7818608E-02  0.1160076E+00
         21   -1    0    0  503  502  0.00000000000E+00  0.00000000000E+00  0.20654290013E+04  0.20654290013E+04  0.00000000000E+00 0. -1.
         21   -1    0    0  501  503 -0.00000000000E+00 -0.00000000000E+00 -0.21486330019E+02  0.21486330019E+02  0.00000000000E+00 0. -1.
          6    2    1    2  501    0  0.48452699421E+02 -0.60019188514E+02  0.55312389677E+03  0.58432912962E+03  0.17188519272E+03 0.  0.
         24    2    3    3    0    0  0.58899677032E+02 -0.96842406082E+02  0.32043604303E+03  0.34846727181E+03  0.76828108651E+02 0.  0.
         -6    2    1    2    0  502 -0.48452699421E+02  0.60019188514E+02  0.14908187745E+04  0.15025862017E+04  0.17109853308E+03 0.  0.
        -24    2    5    5    0    0 -0.73902189538E+02  0.72619754865E+02  0.75843054042E+03  0.76963254269E+03  0.79888695736E+02 0.  0.
          5    1    3    3  501    0 -0.10446977611E+02  0.36823217568E+02  0.23268785374E+03  0.23586185781E+03  0.47000000000E+01 0. -1.
        -11    1    4    4    0    0 -0.76707710448E+01 -0.60651100414E+02  0.13979729806E+03  0.15258008145E+03  0.00000000000E+00 0.  1.
         12    1    4    4    0    0  0.66570448077E+02 -0.36191305669E+02  0.18063874497E+03  0.19588719036E+03  0.00000000000E+00 0. -1.
         -5    1    5    5    0  502  0.25449490116E+02 -0.12600566351E+02  0.73238823409E+03  0.73295365901E+03  0.47000000000E+01 0.  1.
         13    1    6    6    0    0 -0.13168194984E+02  0.61399706416E+02  0.49981800942E+03  0.50374732540E+03  0.00000000000E+00 0. -1.
        -14    1    6    6    0    0 -0.60733994554E+02  0.11220048449E+02  0.25861253100E+03  0.26588521729E+03  0.00000000000E+00 0.  1.
</event>
<event>
12    1  0.8462562E-002  0.1753022E+03  0.7818608E-02  0.1173059E+00
         21   -1    0    0  501  502  0.00000000000E+00  0.00000000000E+00  0.21356082887E+03  0.21356082887E+03  0.00000000000E+00 0.  1.
         21   -1    0    0  502  503 -0.00000000000E+00 -0.00000000000E+00 -0.15600230053E+03  0.15600230053E+03  0.00000000000E+00 0.  1.
         -6    2    1    2    0  503 -0.14165204144E+02  0.30783854719E+02 -0.27052157661E+02  0.17491001215E+03  0.16945027116E+03 0.  0.
        -24    2    3    3    0    0  0.11921304221E+02 -0.35272343367E+02 -0.48472087821E+02  0.10058080771E+03  0.79879283180E+02 0.  0.
          6    2    1    2  501    0  0.14165204144E+02 -0.30783854719E+02  0.84610685996E+02  0.19465311725E+03  0.17199584050E+03 0.  0.
         24    2    5    5    0    0 -0.21885955136E+02 -0.70696405527E+02  0.88814174987E+02  0.14050095093E+03  0.79847246330E+02 0.  0.
          5    1    5    5  501    0  0.36051159280E+02  0.39912550808E+02 -0.42034889917E+01  0.54152166320E+02  0.47000000000E+01 0. -1.
        -11    1    6    6    0    0  0.10377690435E+02 -0.73979032376E+02  0.72889592248E+02  0.10437186569E+03  0.00000000000E+00 0.  1.
         12    1    6    6    0    0 -0.32263645571E+02  0.32826268489E+01  0.15924582739E+02  0.36129085236E+02  0.00000000000E+00 0. -1.
         -5    1    3    3    0  503 -0.26086508365E+02  0.66056198086E+02  0.21419930160E+02  0.74329204437E+02  0.47000000000E+01 0.  1.
         11    1    4    4    0    0  0.45953283541E+02 -0.25322758371E+02 -0.25538025726E+02  0.58353552743E+02  0.00000000000E+00 0. -1.
        -12    1    4    4    0    0 -0.34031979320E+02 -0.99495849957E+01 -0.22934062095E+02  0.42227254969E+02  0.00000000000E+00 0.  1.
</event>
<event>
12    1  0.8462562E-002  0.1920473E+03  0.7818608E-02  0.1156712E+00
         21   -1    0    0  503  502  0.00000000000E+00  0.00000000000E+00  0.14589393217E+03  0.14589393217E+03  0.00000000000E+00 0.  1.
         21   -1    0    0  501  503 -0.00000000000E+00 -0.00000000000E+00 -0.25587279678E+03  0.25587279678E+03  0.00000000000E+00 0.  1.
          6    2    1    2  501    0 -0.68613313371E+02 -0.50673924640E+02 -0.78667121205E+02  0.20718364021E+03  0.17164181134E+03 0.  0.
         24    2    3    3    0    0 -0.11155309548E+03 -0.50905375979E+02 -0.47840687698E+02  0.15411540620E+03  0.80170921253E+02 0.  0.
         -6    2    1    2    0  502  0.68613313371E+02  0.50673924640E+02 -0.31311743403E+02  0.19458308874E+03  0.17206545190E+03 0.  0.
        -24    2    5    5    0    0 -0.29009704785E+01  0.53781743705E+02  0.29701174774E+02  0.10040975112E+03  0.79366660201E+02 0.  0.
          5    1    3    3  501    0  0.42939782111E+02  0.23145133927E+00 -0.30826433506E+02  0.53068234003E+02  0.47000000000E+01 0. -1.
        -11    1    4    4    0    0 -0.69405095122E+02 -0.69792626312E+02 -0.43859495153E+02  0.10775775254E+03  0.00000000000E+00 0.  1.
         12    1    4    4    0    0 -0.42148000361E+02  0.18887250333E+02 -0.39811925452E+01  0.46357653669E+02  0.00000000000E+00 0. -1.
         -5    1    5    5    0  502  0.71514283850E+02 -0.31078190656E+01 -0.61012918177E+02  0.94173337620E+02  0.47000000000E+01 0.  1.
         13    1    6    6    0    0 -0.12278134644E+02  0.17566495390E+02  0.52426841974E+02  0.56638397841E+02  0.00000000000E+00 0. -1.
        -14    1    6    6    0    0  0.93771641659E+01  0.36215248315E+02 -0.22725667199E+02  0.43771353280E+02  0.00000000000E+00 0.  1.
</event>
<event>
12    1  0.8462562E-002  0.1885982E+03  0.7818608E-02  0.1159945E+00
         21   -1    0    0  501  502  0.00000000000E+00  0.00000000000E+00  0.12112401240E+03  0.12112401240E+03  0.00000000000E+00 0.  1.
         21   -1    0    0  502  503 -0.00000000000E+00 -0.00000000000E+00 -0.11227481398E+04  0.11227481398E+04  0.00000000000E+00 0.  1.
         -6    2    1    2    0  503 -0.78923736709E+02  0.54480200667E+01 -0.10360488605E+04  0.10530747931E+04  0.17120350839E+03 0.  0.
        -24    2    3    3    0    0  0.22028866599E+02  0.63646976992E+01 -0.35921124598E+03  0.36873312777E+03  0.80035116906E+02 0.  0.
          6    2    1    2  501    0  0.78923736709E+02 -0.54480200667E+01  0.34424733069E+02  0.19079735917E+03  0.17017618189E+03 0.  0.
         24    2    5    5    0    0  0.10196405474E+03 -0.15930600556E+02  0.68706009107E+02  0.14792502969E+03  0.80689814895E+02 0.  0.
          5    1    5    5  501    0 -0.23040318031E+02  0.10482580490E+02 -0.34281276038E+02  0.42872329485E+02  0.47000000000E+01 0. -1.
        -11    1    6    6    0    0  0.70001664241E+02  0.29022757138E+02  0.42033070812E+02  0.86656404670E+02  0.00000000000E+00 0.  1.
         12    1    6    6    0    0  0.31962390499E+02 -0.44953357694E+02  0.26672938295E+02  0.61268625019E+02  0.00000000000E+00 0. -1.
         -5    1    3    3    0  503 -0.10095260331E+03 -0.91667763254E+00 -0.67683761454E+03  0.68434166530E+03  0.47000000000E+01 0.  1.
         13    1    4    4    0    0  0.16074882355E+02  0.28449154189E+02 -0.57344978897E+02  0.66001536509E+02  0.00000000000E+00 0. -1.
        -14    1    4    4    0    0  0.59539842439E+01 -0.22084456490E+02 -0.30186626708E+03  0.30273159126E+03  0.00000000000E+00 0.  1.
</event>
<event>
12    1  0.8462562E-002  0.1847716E+03  0.7818608E-02  0.1163474E+00
         21   -1    0    0  503  502  0.00000000000E+00  0.00000000000E+00  0.32798355734E+03  0.32798355734E+03  0.00000000000E+00 0.  1.
         21   -1    0    0  501  503 -0.00000000000E+00 -0.00000000000E+00 -0.10392983707E+03  0.10392983707E+03  0.00000000000E+00 0. -1.
          6    2    1    2  501    0  0.62433005142E+02 -0.15184876377E+02  0.99337187437E+02  0.20899015920E+03  0.17228043775E+03 0.  0.
         24    2    3    3    0    0  0.79460733994E+02  0.48156891314E+02  0.48228624636E+02  0.12570571722E+03  0.69590463996E+02 0.  0.
         -6    2    1    2    0  502 -0.62433005142E+02  0.15184876377E+02  0.12471653283E+03  0.22292323521E+03  0.17323999145E+03 0.  0.
        -24    2    5    5    0    0 -0.84260471357E+02  0.37957870213E+02  0.33483094059E+02  0.12627605275E+03  0.79271034842E+02 0.  0.
          5    1    3    3  501    0 -0.17027728852E+02 -0.63341767692E+02  0.51108562801E+02  0.83284441979E+02  0.47000000000E+01 0. -1.
        -11    1    4    4    0    0  0.60343433694E+02  0.37810654601E+02  0.66406450561E+02  0.97369360003E+02  0.00000000000E+00 0.  1.
         12    1    4    4    0    0  0.19117300299E+02  0.10346236714E+02 -0.18177825925E+02  0.28336357215E+02  0.00000000000E+00 0. -1.
         -5    1    5    5    0  502  0.21827466216E+02 -0.22772993836E+02  0.91233438768E+02  0.96647182468E+02  0.47000000000E+01 0.  1.
         13    1    6    6    0    0 -0.69317551031E+02  0.50291132325E+02  0.51405051805E+02  0.99882932589E+02  0.00000000000E+00 0. -1.
        -14    1    6    6    0    0 -0.14942920326E+02 -0.12333262112E+02 -0.17921957746E+02  0.26393120157E+02  0.00000000000E+00 0.  1.
</event>
<event>
12    1  0.8462562E-002  0.2009171E+03  0.7818608E-02  0.1149227E+00
         21   -1    0    0  501  502  0.00000000000E+00  0.00000000000E+00  0.13334426465E+03  0.13334426465E+03  0.00000000000E+00 0. -1.
         21   -1    0    0  502  503 -0.00000000000E+00 -0.00000000000E+00 -0.31856876205E+03  0.31856876205E+03  0.00000000000E+00 0. -1.
         -6    2    1    2    0  503 -0.10201824980E+03 -0.20287064151E+02 -0.14558967187E+03  0.24712385091E+03  0.17045397288E+03 0.  0.
        -24    2    3    3    0    0 -0.11238281587E+02  0.38834868020E+02 -0.41730538566E+02  0.96973209682E+02  0.77639678000E+02 0.  0.
          6    2    1    2  501    0  0.10201824980E+03  0.20287064151E+02 -0.39634825525E+02  0.20478917579E+03  0.17189647716E+03 0.  0.
         24    2    5    5    0    0  0.75211914453E+02  0.51640168733E+01 -0.94305009353E+02  0.14187490735E+03  0.74508760555E+02 0.  0.
          5    1    5    5  501    0  0.26806335347E+02  0.15123047277E+02  0.54670183828E+02  0.62914268441E+02  0.47000000000E+01 0. -1.
        -11    1    6    6    0    0  0.44558721693E+02  0.11351369739E+01 -0.20977545450E+01  0.44622514373E+02  0.00000000000E+00 0.  1.
         12    1    6    6    0    0  0.30653192759E+02  0.40288798993E+01 -0.92207254808E+02  0.97252392972E+02  0.00000000000E+00 0. -1.
         -5    1    3    3    0  503 -0.90779968212E+02 -0.59121932170E+02 -0.10385913330E+03  0.15015064123E+03  0.47000000000E+01 0.  1.
         11    1    4    4    0    0 -0.11302958998E+01 -0.28537104777E+01  0.20865066063E+02  0.21089623376E+02  0.00000000000E+00 0. -1.
        -12    1    4    4    0    0 -0.10107985687E+02  0.41688578497E+02 -0.62595604629E+02  0.75883586306E+02  0.00000000000E+00 0.  1.
</event>
<event>
12    1  0.8462562E-002  0.2622987E+03  0.7818608E-02  0.1105818E+00
         21   -1    0    0  501  502  0.00000000000E+00  0.00000000000E+00  0.37623405041E+03  0.37623405041E+03  0.00000000000E+00 0. -1.
         21   -1    0    0  502  503 -0.00000000000E+00 -0.00000000000E+00 -0.19335855838E+03  0.19335855838E+03  0.00000000000E+00 0.  1.
         -6    2    1    2    0  503 -0.19212030881E+03  0.50603855617E+02  0.24341723155E+02  0.26310680784E+03  0.17076799930E+03 0.  0.
        -24    2    3    3    0    0 -0.10640353612E+03  0.59652697657E+02 -0.46846407683E+02  0.15121808350E+03  0.76106281132E+02 0.  0.
          6    2    1    2  501    0  0.19212030881E+03 -0.50603855617E+02  0.15853376888E+03  0.30648580095E+03  0.17125894735E+03 0.  0.
         24    2    5    5    0    0  0.75689246450E+02 -0.41682352715E+02  0.14792457947E+03  0.18913832379E+03  0.80158241995E+02 0.  0.
          5    1    5    5  501    0  0.11643106236E+03 -0.89215029018E+01  0.10609189419E+02  0.11734747716E+03  0.47000000000E+01 0. -1.
        -13    1    6    6    0    0  0.47025219366E+02  0.18854689131E+02  0.69438196542E+02  0.85956580305E+02  0.00000000000E+00 0.  1.
         14    1    6    6    0    0  0.28664027084E+02 -0.60537041846E+02  0.78486382924E+02  0.10318174348E+03  0.00000000000E+00 0. -1.
         -5    1    3    3    0  503 -0.85716772693E+02 -0.90488420405E+01  0.71188130837E+02  0.11188872434E+03  0.47000000000E+01 0.  1.
         13    1    4    4    0    0 -0.41699527110E+02  0.57997708971E+02 -0.19484363891E+00  0.71432644996E+02  0.00000000000E+00 0. -1.
        -14    1    4    4    0    0 -0.64704009005E+02  0.16549886863E+01 -0.46651564044E+02  0.79785438500E+02  0.00000000000E+00 0.  1.
</event>
<event>
12    1  0.8462562E-002  0.2483241E+03  0.7818608E-02  0.1114572E+00
         21   -1    0    0  503  502  0.00000000000E+00  0.00000000000E+00  0.13811027029E+03  0.13811027029E+03  0.00000000000E+00 0. -1.
         21   -1    0    0  501  503 -0.00000000000E+00 -0.00000000000E+00 -0.62102967169E+03  0.62102967169E+03  0.00000000000E+00 0.  1.
          6    2    1    2  501    0 -0.17037760058E+03 -0.49677943104E+02 -0.44444530089E+03  0.50911342457E+03  0.17369061226E+03 0.  0.
         24    2    3    3    0    0 -0.24803149779E+02 -0.39328379227E+02 -0.24247123850E+03  0.25988532408E+03  0.81155175560E+02 0.  0.
         -6    2    1    2    0  502  0.17037760058E+03  0.49677943104E+02 -0.38474100509E+02  0.25002651741E+03  0.17186209061E+03 0.  0.
        -24    2    5    5    0    0  0.14472704023E+03  0.84522085420E+02 -0.68316265222E+02  0.19725616309E+03  0.78440950316E+02 0.  0.
          5    1    3    3  501    0 -0.14557445080E+03 -0.10349563877E+02 -0.20197406239E+03  0.24922810049E+03  0.47000000000E+01 0. -1.
        -11    1    4    4    0    0 -0.44351291975E+02  0.37151251989E+01 -0.92706474332E+02  0.10283642175E+03  0.00000000000E+00 0.  1.
         12    1    4    4    0    0  0.19548142196E+02 -0.43043504426E+02 -0.14976476417E+03  0.15704890233E+03  0.00000000000E+00 0. -1.
         -5    1    5    5    0  502  0.25650560347E+02 -0.34844142316E+02  0.29842164712E+02  0.52770354315E+02  0.47000000000E+01 0.  1.
         13    1    6    6    0    0  0.11519898950E+03  0.77839978422E+02 -0.20319426471E+02  0.14050889123E+03  0.00000000000E+00 0. -1.
        -14    1    6    6    0    0  0.29528050733E+02  0.66821069979E+01 -0.47996838750E+02  0.56747271864E+02  0.00000000000E+00 0.  1.
</event>
<event>
12    1  0.8462562E-002  0.1780878E+03  0.7818608E-02  0.1169776E+00
         21   -1    0    0  503  502  0.00000000000E+00  0.00000000000E+00  0.85381498633E+03  0.85381498633E+03  0.00000000000E+00 0. -1.
         21   -1    0    0  501  503 -0.00000000000E+00 -0.00000000000E+00 -0.13061660157E+03  0.13061660157E+03  0.00000000000E+00 0. -1.
          6    2    1    2  501    0  0.43640138238E+02 -0.18626307739E+01 -0.55122376237E+02  0.18599656749E+03  0.17218686273E+03 0.  0.
         24    2    3    3    0    0  0.86554195147E+02 -0.23415535050E+02 -0.65157506322E+02  0.13671231240E+03  0.80030242744E+02 0.  0.
         -6    2    1    2    0  502 -0.43640138238E+02  0.18626307739E+01  0.77832076100E+03  0.79843502041E+03  0.17264803432E+03 0.  0.
        -24    2    5    5    0    0  0.30815374994E+00  0.32520422751E+02  0.68718980973E+03  0.69261303377E+03  0.80158013294E+02 0.  0.
          5    1    3    3  501    0 -0.42914056908E+02  0.21552904276E+02  0.10035130085E+02  0.49284255081E+02  0.47000000000E+01 0. -1.
        -13    1    4    4    0    0  0.59766057478E+02  0.25049624131E+02 -0.34383784685E+02  0.73360138664E+02  0.00000000000E+00 0.  1.
         14    1    4    4    0    0  0.26788137669E+02 -0.48465159181E+02 -0.30773721637E+02  0.63352173740E+02  0.00000000000E+00 0. -1.
         -5    1    5    5    0  502 -0.43948291988E+02 -0.30657791977E+02  0.91130951273E+02  0.10582198664E+03  0.47000000000E+01 0.  1.
         11    1    6    6    0    0  0.25355555452E+01  0.54202445760E+02  0.30406110943E+03  0.30886484494E+03  0.00000000000E+00 0. -1.
        -12    1    6    6    0    0 -0.22274017953E+01 -0.21682023010E+02  0.38312870029E+03  0.38374818883E+03  0.00000000000E+00 0.  1.
</event>
<event>
12    1  0.8462562E-002  0.1768819E+03  0.7818608E-02  0.1172152E+00
         21   -1    0    0  503  502  0.00000000000E+00  0.00000000000E+00  0.15696036667E+03  0.15696036667E+03  0.00000000000E+00 0. -1.
         21   -1    0    0  501  503 -0.00000000000E+00 -0.00000000000E+00 -0.19367187860E+03  0.19367187860E+03  0.00000000000E+00 0. -1.
          6    2    1    2  501    0 -0.90506941781E+01  0.96230203822E+01 -0.14454671962E+02  0.17747149699E+03  0.17638785989E+03 0.  0.
         24    2    3    3    0    0 -0.22069933541E+02 -0.27900305303E+00  0.59261711768E+02  0.10181605507E+03  0.79795982222E+02 0.  0.
         -6    2    1    2    0  502  0.90506941781E+01 -0.96230203822E+01 -0.22256839975E+02  0.17316074828E+03  0.17121553736E+03 0.  0.
        -24    2    5    5    0    0  0.49606818140E+02  0.22464696592E+02 -0.55690697351E+02  0.11140045691E+03  0.79643637720E+02 0.  0.
          5    1    3    3  501    0  0.13019239363E+02  0.99020234352E+01 -0.73716383730E+02  0.75655441919E+02  0.47000000000E+01 0. -1.
        -11    1    4    4    0    0  0.22035708068E+02  0.19484963158E+02  0.62354552584E+01  0.30068540397E+02  0.00000000000E+00 0.  1.
         12    1    4    4    0    0 -0.44105641609E+02 -0.19763966211E+02  0.53026256510E+02  0.71747514672E+02  0.00000000000E+00 0. -1.
         -5    1    5    5    0  502 -0.40556123962E+02 -0.32087716974E+02  0.33433857376E+02  0.61760291373E+02  0.47000000000E+01 0.  1.
         11    1    6    6    0    0 -0.99931169906E+01  0.54615611833E+01  0.14059191896E+02  0.18092869162E+02  0.00000000000E+00 0. -1.
        -12    1    6    6    0    0  0.59599935131E+02  0.17003135409E+02 -0.69749889246E+02  0.93307587747E+02  0.00000000000E+00 0.  1.
</event>
<event>
12    1  0.8462562E-002  0.2578688E+03  0.7818608E-02  0.1108458E+00
         21   -1    0    0  503  502  0.00000000000E+00  0.00000000000E+00  0.10771422135E+04  0.10771422135E+04  0.00000000000E+00 0. -1.
         21   -1    0    0  501  503 -0.00000000000E+00 -0.00000000000E+00 -0.77352012752E+02  0.77352012752E+02  0.00000000000E+00 0. -1.
          6    2    1    2  501    0 -0.14854995852E+03  0.12158325026E+03  0.24029727507E+03  0.35247564003E+03  0.17218222756E+03 0.  0.
         24    2    3    3    0    0 -0.13476867494E+03  0.12910306243E+03  0.25726858649E+03  0.32888354890E+03  0.84540325682E+02 0.  0.
         -6    2    1    2    0  502  0.14854995852E+03 -0.12158325026E+03  0.75949292564E+03  0.80201858618E+03  0.17191489629E+03 0.  0.
        -24    2    5    5    0    0  0.16693958173E+03 -0.10663742874E+03  0.74191983013E+03  0.77214452539E+03  0.80757467673E+02 0.  0.
          5    1    3    3  501    0 -0.13781283585E+02 -0.75198121712E+01 -0.16971311425E+02  0.23592091129E+02  0.47000000000E+01 0. -1.
        -11    1    4    4    0    0 -0.15173351899E+02  0.51650834139E+02  0.11771990618E+03  0.12944502920E+03  0.00000000000E+00 0.  1.
         12    1    4    4    0    0 -0.11959532304E+03  0.77452228293E+02  0.13954868032E+03  0.19943851970E+03  0.00000000000E+00 0. -1.
         -5    1    5    5    0  502 -0.18389623209E+02 -0.14945821522E+02  0.17573095504E+02  0.29874060794E+02  0.47000000000E+01 0.  1.
         13    1    6    6    0    0  0.82281390133E+02 -0.18027776454E+02  0.40402288066E+03  0.41271020823E+03  0.00000000000E+00 0. -1.
        -14    1    6    6    0    0  0.84658191599E+02 -0.88609652284E+02  0.33789694948E+03  0.35943431715E+03  0.00000000000E+00 0.  1.
</event>
<event>
12    1  0.8462562E-002  0.2432633E+03  0.7818608E-02  0.1117712E+00
         21   -1    0    0  503  502  0.00000000000E+00  0.00000000000E+00  0.17973211572E+03  0.17973211572E+03  0.00000000000E+00 0.  1.
         21   -1    0    0  501  503 -0.00000000000E+00 -0.00000000000E+00 -0.11226436820E+04  0.11226436820E+04  0.00000000000E+00 0. -1.
          6    2    1    2  501    0  0.17073445831E+03 -0.18769703446E+02 -0.10189695563E+04  0.10474996327E+04  0.17162158028E+03 0.  0.
         24    2    3    3    0    0  0.21286811866E+02 -0.11302759535E+02 -0.52778069857E+03  0.53400285741E+03  0.77625415948E+02 0.  0.
         -6    2    1    2    0  502 -0.17073445831E+03  0.18769703446E+02  0.76057989989E+02  0.25487616506E+03  0.17226283596E+03 0.  0.
        -24    2    5    5    0    0 -0.67942011543E+02 -0.29917668850E+02  0.89209804578E+02  0.14028206591E+03  0.78800285155E+02 0.  0.
          5    1    3    3  501    0  0.14944764645E+03 -0.74669439109E+01 -0.49118885771E+03  0.51349677527E+03  0.47000000000E+01 0. -1.
        -13    1    4    4    0    0  0.12509132304E+01 -0.58374718368E+01 -0.15851043728E+00  0.59721007120E+01  0.00000000000E+00 0.  1.
         14    1    4    4    0    0  0.20035898635E+02 -0.54652876980E+01 -0.52762218814E+03  0.52803075670E+03  0.00000000000E+00 0. -1.
         -5    1    5    5    0  502 -0.10279244677E+03  0.48687372296E+02 -0.13151814589E+02  0.11459409915E+03  0.47000000000E+01 0.  1.
         11    1    6    6    0    0  0.13787226950E+02 -0.12947895725E+02  0.11525809356E+01  0.18948986081E+02  0.00000000000E+00 0. -1.
        -12    1    6    6    0    0 -0.81729238493E+02 -0.16969773125E+02  0.88057223642E+02  0.12133307983E+03  0.00000000000E+00 0.  1.
</event>
<event>
12    1  0.8462562E-002  0.1725248E+03  0.7818608E-02  0.1176462E+00
         21   -1    0    0  503  502  0.00000000000E+00  0.00000000000E+00  0.19791578613E+03  0.19791578613E+03  0.00000000000E+00 0. -1.
         21   -1    0    0  501  503 -0.00000000000E+00 -0.00000000000E+00 -0.10814464868E+04  0.10814464868E+04  0.00000000000E+00 0. -1.
          6    2    1    2  501    0  0.24260225019E+01 -0.71834278058E+01 -0.10374195305E+04  0.10516672823E+04  0.17235806669E+03 0.  0.
         24    2    3    3    0    0  0.68858399305E+01 -0.22563379764E+02 -0.10303317733E+04  0.10335355644E+04  0.77818241999E+02 0.  0.
         -6    2    1    2    0  502 -0.24260225019E+01  0.71834278058E+01  0.15388882984E+03  0.22769499064E+03  0.16764769486E+03 0.  0.
        -24    2    5    5    0    0  0.10284820504E+02  0.27737925624E+02  0.15820103517E+02  0.87448364661E+02  0.80757481114E+02 0.  0.
          5    1    3    3  501    0 -0.44598174286E+01  0.15379951959E+02 -0.70877572071E+01  0.18131717954E+02  0.47000000000E+01 0. -1.
        -13    1    4    4    0    0 -0.79249647291E+01 -0.13605389516E+02 -0.39079270864E+02  0.42131948698E+02  0.00000000000E+00 0.  1.
         14    1    4    4    0    0  0.14810804660E+02 -0.89579902489E+01 -0.99125250246E+03  0.99140361566E+03  0.00000000000E+00 0. -1.
         -5    1    5    5    0  502 -0.12710843006E+02 -0.20554497818E+02  0.13806872632E+03  0.14024662598E+03  0.47000000000E+01 0.  1.
         11    1    6    6    0    0  0.32894142811E+02  0.36215747536E+02  0.31929159495E+02  0.58421539067E+02  0.00000000000E+00 0. -1.
        -12    1    6    6    0    0 -0.22609322307E+02 -0.84778219116E+01 -0.16109055979E+02  0.29026825594E+02  0.00000000000E+00 0.  1.
</event>
<event>
12    1  0.8462562E-002  0.1781908E+03  0.7818608E-02  0.1169605E+00
         21   -1    0    0  501  502  0.00000000000E+00  0.00000000000E+00  0.22771323971E+02  0.22771323971E+02  0.00000000000E+00 0. -1.
         21   -1    0    0  502  503 -0.00000000000E+00 -0.00000000000E+00 -0.16368289426E+04  0.16368289426E+04  0.00000000000E+00 0. -1.
         -6    2    1    2    0  503  0.25239735104E+02  0.28016342314E+02 -0.11269042233E+04  0.11408803186E+04  0.17399084217E+03 0.  0.
        -24    2    3    3    0    0  0.75307900672E+02 -0.15109098652E+02 -0.65246039947E+03  0.66183370619E+03  0.80123136582E+02 0.  0.
          6    2    1    2  501    0 -0.25239735104E+02 -0.28016342314E+02 -0.48715339533E+03  0.51871994800E+03  0.17415508664E+03 0.  0.
         24    2    5    5    0    0 -0.50137999922E+02 -0.60068555153E+02 -0.44584166413E+03  0.46061644489E+03  0.85268220767E+02 0.  0.
          5    1    5    5  501    0  0.24898264817E+02  0.32052212839E+02 -0.41311731200E+02  0.58103503109E+02  0.47000000000E+01 0. -1.
        -13    1    6    6    0    0 -0.40096587014E+02 -0.69970978315E+02 -0.21966992387E+03  0.23400544769E+03  0.00000000000E+00 0.  1.
         14    1    6    6    0    0 -0.10041412908E+02  0.99024231624E+01 -0.22617174027E+03  0.22661099720E+03  0.00000000000E+00 0. -1.
         -5    1    3    3    0  503 -0.50068165568E+02  0.43125440967E+02 -0.47444382382E+03  0.47904661237E+03  0.47000000000E+01 0.  1.
         11    1    4    4    0    0 -0.57752239031E+01 -0.25046312143E+02 -0.94838227205E+02  0.98259657553E+02  0.00000000000E+00 0. -1.
        -12    1    4    4    0    0  0.81083124575E+02  0.99372134907E+01 -0.55762217226E+03  0.56357404864E+03  0.00000000000E+00 0.  1.
</event>
<event>
12    1  0.8462562E-002  0.1774457E+03  0.7818608E-02  0.1171033E+00
         21   -1    0    0  501  502  0.00000000000E+00  0.00000000000E+00  0.26236124719E+03  0.26236124719E+03  0.00000000000E+00 0. -1.
         21   -1    0    0  502  503 -0.00000000000E+00 -0.00000000000E+00 -0.12189589219E+03  0.12189589219E+03  0.00000000000E+00 0. -1.
         -6    2    1    2    0  503  0.31598050228E+02  0.11840333062E+02  0.35425230783E+02  0.17805239383E+03  0.17119894189E+03 0.  0.
        -24    2    3    3    0    0 -0.20847166185E+02  0.16911532674E+02  0.72924328358E+02  0.11321035415E+03  0.82328745561E+02 0.  0.
          6    2    1    2  501    0 -0.31598050228E+02 -0.11840333062E+02  0.10504012422E+03  0.20620474556E+03  0.17420774705E+03 0.  0.
         24    2    5    5    0    0 -0.45079653971E+01  0.51657486226E+02  0.99757336418E+02  0.13680846614E+03  0.77950064811E+02 0.  0.
          5    1    5    5  501    0 -0.27090084830E+02 -0.63497819288E+02  0.52827877984E+01  0.69396279420E+02  0.47000000000E+01 0. -1.
        -13    1    6    6    0    0  0.15783150511E+02  0.22058116965E+02 -0.36345402951E+01  0.27365639902E+02  0.00000000000E+00 0.  1.
         14    1    6    6    0    0 -0.20291115908E+02  0.29599369260E+02  0.10339187671E+03  0.10944282624E+03  0.00000000000E+00 0. -1.
         -5    1    3    3    0  503  0.52445216412E+02 -0.50711996117E+01 -0.37499097575E+02  0.64842039673E+02  0.47000000000E+01 0.  1.
         11    1    4    4    0    0 -0.82676100205E+01  0.32343585828E+02 -0.41184220917E+01  0.33636621711E+02  0.00000000000E+00 0. -1.
        -12    1    4    4    0    0 -0.12579556164E+02 -0.15432053153E+02  0.77042750450E+02  0.79573732441E+02  0.00000000000E+00 0.  1.
</event>
<event>
12    1  0.8462562E-002  0.2191502E+03  0.7818608E-02  0.1135417E+00
         21   -1    0    0  503  502  0.00000000000E+00  0.00000000000E+00  0.41533572821E+03  0.41533572821E+03  0.00000000000E+00 0.  1.
         21   -1    0    0  501  503 -0.00000000000E+00 -0.00000000000E+00 -0.14491551302E+03  0.14491551302E+03  0.00000000000E+00 0.  1.
          6    2    1    2  501    0 -0.15358579250E+02 -0.12599725518E+03  0.28968887716E+01  0.21442534380E+03  0.17279653304E+03 0.  0.
         24    2    3    3    0    0 -0.66132160468E+02 -0.61064325136E+02 -0.98953661086E+01  0.13087910667E+03  0.94493956632E+02 0.  0.
         -6    2    1    2    0  502  0.15358579250E+02  0.12599725518E+03  0.26752332642E+03  0.34582589743E+03  0.17864945253E+03 0.  0.
        -24    2    5    5    0    0 -0.26930737059E+02  0.10984998584E+03  0.26712309488E+03  0.30031358298E+03  0.77725261777E+02 0.  0.
          5    1    3    3  501    0  0.50773581218E+02 -0.64932930042E+02  0.12792254880E+02  0.83546237130E+02  0.47000000000E+01 0. -1.
        -11    1    4    4    0    0 -0.45314909852E+02 -0.75026330651E+02 -0.35940304081E+02  0.94731709597E+02  0.00000000000E+00 0.  1.
         12    1    4    4    0    0 -0.20817250616E+02  0.13962005515E+02  0.26044937972E+02  0.36147397073E+02  0.00000000000E+00 0. -1.
         -5    1    5    5    0  502  0.42289316309E+02  0.16147269340E+02  0.40023153521E+00  0.45512314447E+02  0.47000000000E+01 0.  1.
         13    1    6    6    0    0 -0.44822459283E+02  0.79327712382E+02  0.13034501014E+03  0.15903383437E+03  0.00000000000E+00 0. -1.
        -14    1    6    6    0    0  0.17891722224E+02  0.30522273456E+02  0.13677808474E+03  0.14127974861E+03  0.00000000000E+00 0.  1.
</event>
<event>
12    1  0.8462562E-002  0.1868637E+03  0.7818608E-02  0.1161322E+00
         21   -1    0    0  503  502  0.00000000000E+00  0.00000000000E+00  0.11648725129E+04  0.11648725129E+04  0.00000000000E+00 0. -1.
         21   -1    0    0  501  503 -0.00000000000E+00 -0.00000000000E+00 -0.32865885882E+02  0.32865885882E+02  0.00000000000E+00 0. -1.
          6    2    1    2  501    0  0.12593399435E+01  0.72473776374E+02  0.38838537530E+03  0.43099815844E+03  0.17222711352E+03 0.  0.
         24    2    3    3    0    0 -0.37472311974E+02  0.46717892427E+01  0.58982415287E+02  0.92434057589E+02  0.60325201284E+02 0.  0.
         -6    2    1    2    0  502 -0.12593399435E+01 -0.72473776374E+02  0.74362125176E+03  0.76674024038E+03  0.17223238939E+03 0.  0.
        -24    2    5    5    0    0 -0.35090443799E+02 -0.51070552088E+02  0.69955517619E+03  0.70701963578E+03  0.81607477047E+02 0.  0.
          5    1    3    3  501    0  0.38731651917E+02  0.67801987131E+02  0.32940296001E+03  0.33856410085E+03  0.47000000000E+01 0. -1.
        -11    1    4    4    0    0 -0.42368931944E+02  0.29269904109E+01  0.69072002699E+02  0.81084124363E+02  0.00000000000E+00 0.  1.
         12    1    4    4    0    0  0.48966199702E+01  0.17447988318E+01 -0.10089587412E+02  0.11349933226E+02  0.00000000000E+00 0. -1.
         -5    1    5    5    0  502  0.33831103856E+02 -0.21403224285E+02  0.44066075570E+02  0.59720604602E+02  0.47000000000E+01 0.  1.
         11    1    6    6    0    0 -0.35981524120E+02 -0.44945506402E+02  0.21951775517E+03  0.22694231306E+03  0.00000000000E+00 0. -1.
        -12    1    6    6    0    0  0.89108032016E+00 -0.61250456864E+01  0.48003742102E+03  0.48007732272E+03  0.00000000000E+00 0.  1.
</event>
<event>
12    1  0.8462562E-002  0.2007711E+03  0.7818608E-02  0.1149409E+00
         21   -1    0    0  501  502  0.00000000000E+00  0.00000000000E+00  0.22568170889E+03  0.22568170889E+03  0.00000000000E+00 0. -1.
         21   -1    0    0  502  503 -0.00000000000E+00 -0.00000000000E+00 -0.27337830822E+03  0.27337830822E+03  0.00000000000E+00 0. -1.
         -6    2    1    2    0  503 -0.76743686750E+02  0.65787582912E+02 -0.17186146871E+03  0.26428280913E+03  0.17346884232E+03 0.  0.
        -24    2    3    3    0    0 -0.27111752557E+02  0.36380359429E+02 -0.26227201997E+02  0.10756796196E+03  0.93938398092E+02 0.  0.
          6    2    1    2  501    0  0.76743686750E+02 -0.65787582912E+02  0.12416486938E+03  0.23477720798E+03  0.17171436480E+03 0.  0.
         24    2    5    5    0    0  0.10398985888E+03 -0.50661078764E+01  0.89970546864E+02  0.15980525911E+03  0.81261708922E+02 0.  0.
          5    1    5    5  501    0 -0.27246172129E+02 -0.60721475035E+02  0.34194322515E+02  0.74971948877E+02  0.47000000000E+01 0. -1.
        -13    1    6    6    0    0  0.45118655305E+02 -0.41445647358E+02  0.29928636022E+02  0.68184734329E+02  0.00000000000E+00 0.  1.
         14    1    6    6    0    0  0.58871203575E+02  0.36379539481E+02  0.60041910842E+02  0.91620524779E+02  0.00000000000E+00 0. -1.
         -5    1    3    3    0  503 -0.49631934194E+02  0.29407223482E+02 -0.14563426671E+03  0.15671484717E+03  0.47000000000E+01 0.  1.
         11    1    4    4    0    0  0.20172733323E+02  0.50757762773E+02 -0.98311803563E+01  0.55497222981E+02  0.00000000000E+00 0. -1.
        -12    1    4    4    0    0 -0.47284485880E+02 -0.14377403343E+02 -0.16396021641E+02  0.52070738976E+02  0.00000000000E+00 0.  1.
</event>
<event>
12    1  0.8462562E-002  0.1795867E+03  0.7818608E-02  0.1168533E+00
         21   -1    0    0  503  502  0.00000000000E+00  0.00000000000E+00  0.14905581380E+03  0.14905581380E+03  0.00000000000E+00 0. -1.
         21   -1    0    0  501  503 -0.00000000000E+00 -0.00000000000E+00 -0.21601162926E+03  0.21601162926E+03  0.00000000000E+00 0. -1.
          6    2    1    2  501    0  0.54272155422E+01  0.45201992727E+02 -0.47331480924E+02  0.18441167780E+03  0.17232156861E+03 0.  0.
         24    2    3    3    0    0 -0.60826125429E+01  0.10842895872E+02  0.22381678112E+02  0.10570311269E+03  0.10255555544E+03 0.  0.
         -6    2    1    2    0  502 -0.54272155422E+01 -0.45201992727E+02 -0.19624334533E+02  0.18065576525E+03  0.17372022392E+03 0.  0.
        -24    2    5    5    0    0 -0.11566379247E+01  0.18575748674E+02 -0.62905893786E+02  0.10331740800E+03  0.79818162550E+02 0.  0.
          5    1    3    3  501    0  0.11509828085E+02  0.34359096855E+02 -0.69713159035E+02  0.78708565111E+02  0.47000000000E+01 0. -1.
        -11    1    4    4    0    0  0.19207012384E+02 -0.24289498461E+02 -0.26250991447E+02  0.40595610750E+02  0.00000000000E+00 0.  1.
         12    1    4    4    0    0 -0.25289624927E+02  0.35132394333E+02  0.48632669558E+02  0.65107501940E+02  0.00000000000E+00 0. -1.
         -5    1    5    5    0  502 -0.42705776175E+01 -0.63777741401E+02  0.43281559254E+02  0.77338357254E+02  0.47000000000E+01 0.  1.
         11    1    6    6    0    0 -0.25586046970E+02 -0.22247525597E+02 -0.31737372736E+02  0.46441996328E+02  0.00000000000E+00 0. -1.
        -12    1    6    6    0    0  0.24429409046E+02  0.40823274271E+02 -0.31168521051E+02  0.56875411673E+02  0.00000000000E+00 0.  1.
</event>
<event>
12    1  0.8462562E-002  0.2045192E+03  0.7818608E-02  0.1146602E+00
         21   -1    0    0  501  502  0.00000000000E+00  0.00000000000E+00  0.85687668496E+03  0.85687668496E+03  0.00000000000E+00 0.  1.
         21   -1    0    0  502  503 -0.00000000000E+00 -0.00000000000E+00 -0.51039322723E+02  0.51039322723E+02  0.00000000000E+00 0. -1.
         -6    2    1    2    0  503  0.43365460919E+02  0.10081891847E+03  0.29117624488E+03  0.35410721425E+03  0.16900679300E+03 0.  0.
        -24    2    3    3    0    0  0.72851548627E+02  0.95670957559E+02  0.13952560783E+03  0.19945943190E+03  0.76527050606E+02 0.  0.
          6    2    1    2  501    0 -0.43365460919E+02 -0.10081891847E+03  0.51466111736E+03  0.55380879343E+03  0.17257779823E+03 0.  0.
         24    2    5    5    0    0  0.94809952960E+01 -0.26762187918E+01  0.30278556849E+03  0.31435509092E+03  0.83922412310E+02 0.  0.
          5    1    5    5  501    0 -0.52846456215E+02 -0.98142699681E+02  0.21187554887E+03  0.23945370251E+03  0.47000000000E+01 0. -1.
        -11    1    6    6    0    0 -0.16114105367E+02 -0.31451672534E+02  0.22275153042E+03  0.22553739469E+03  0.00000000000E+00 0.  1.
         12    1    6    6    0    0  0.25595100663E+02  0.28775453742E+02  0.80034038064E+02  0.88817696237E+02  0.00000000000E+00 0. -1.
         -5    1    3    3    0  503 -0.29486087708E+02  0.51479609138E+01  0.15165063704E+03  0.15464778235E+03  0.47000000000E+01 0.  1.
         11    1    4    4    0    0  0.30894643585E+02  0.70434115985E+01  0.36508432653E+01  0.31896979571E+02  0.00000000000E+00 0. -1.
        -12    1    4    4    0    0  0.41956905042E+02  0.88627545961E+02  0.13587476457E+03  0.16756245233E+03  0.00000000000E+00 0.  1.
</event>
<event>
12    1  0.8462562E-002  0.2071004E+03  0.7818608E-02  0.1144357E+00
         21   -1    0    0  501  502  0.00000000000E+00  0.00000000000E+00  0.21088474210E+03  0.21088474210E+03  0.00000000000E+00 0. -1.
         21   -1    0    0  502  503 -0.00000000000E+00 -0.00000000000E+00 -0.26577070753E+03  0.26577070753E+03  0.00000000000E+00 0.  1.
         -6    2    1    2    0  503  0.11091024368E+03  0.46070639033E+01 -0.14512848412E+03  0.25288901305E+03  0.17483783580E+03 0.  0.
        -24    2    3    3    0    0  0.44175574738E+02  0.32362291494E+02 -0.15208795710E+03  0.18012643364E+03  0.79473178416E+02 0.  0.
          6    2    1    2  501    0 -0.11091024368E+03 -0.46070639033E+01  0.90242518689E+02  0.22376643657E+03  0.17206219447E+03 0.  0.
         24    2    5    5    0    0 -0.48657442340E+02 -0.45946149584E+02 -0.35114832664E+01  0.10378212859E+03  0.79245216532E+02 0.  0.
          5    1    5    5  501    0 -0.62252801343E+02  0.41339085681E+02  0.93754001955E+02  0.11998430798E+03  0.47000000000E+01 0. -1.
        -13    1    6    6    0    0  0.21480754667E+02 -0.41561489041E+01 -0.33745576750E+01  0.22137841681E+02  0.00000000000E+00 0.  1.
         14    1    6    6    0    0 -0.70138197007E+02 -0.41790000680E+02 -0.13692559131E+00  0.81644286909E+02  0.00000000000E+00 0. -1.
         -5    1    3    3    0  503  0.66734668945E+02 -0.27755227591E+02  0.69594729778E+01  0.72762579407E+02  0.47000000000E+01 0.  1.
         11    1    4    4    0    0  0.20610309538E+02 -0.82367302531E+01 -0.13366359586E+01  0.22235448729E+02  0.00000000000E+00 0. -1.
        -12    1    4    4    0    0  0.23565265200E+02  0.40599021747E+02 -0.15075132114E+03  0.15789098491E+03  0.00000000000E+00 0.  1.
</event>
<event>
12    1  0.8462562E-002  0.2251076E+03  0.7818608E-02  0.1130656E+00
         21   -1    0    0  503  502  0.00000000000E+00  0.00000000000E+00  0.18033389487E+03  0.18033389487E+03  0.00000000000E+00 0.  1.
         21   -1    0    0  501  503 -0.00000000000E+00 -0.00000000000E+00 -0.10488492946E+04  0.10488492946E+04  0.00000000000E+00 0. -1.
          6    2    1    2  501    0 -0.21172967344E+02 -0.13943184220E+03 -0.96059904182E+03  0.98596961952E+03  0.17174410703E+03 0.  0.
         24    2    3    3    0    0 -0.52317862872E+02 -0.69839032499E+02 -0.78790059142E+03  0.79713104176E+03  0.83761008469E+02 0.  0.
         -6    2    1    2    0  502  0.21172967344E+02  0.13943184220E+03  0.92083642051E+02  0.24321357000E+03  0.17545344207E+03 0.  0.
        -24    2    5    5    0    0 -0.22800679170E+01  0.16656614522E+03  0.57069417827E+02  0.19287073375E+03  0.78693850091E+02 0.  0.
          5    1    3    3  501    0  0.31144895527E+02 -0.69592809697E+02 -0.17269845040E+03  0.18883857776E+03  0.47000000000E+01 0. -1.
        -11    1    4    4    0    0 -0.48055027834E+01  0.14894494043E+02 -0.25278569922E+03  0.25326971501E+03  0.00000000000E+00 0.  1.
         12    1    4    4    0    0 -0.47512360088E+02 -0.84733526543E+02 -0.53511489220E+03  0.54386132675E+03  0.00000000000E+00 0. -1.
         -5    1    5    5    0  502  0.23453035262E+02 -0.27134303025E+02  0.35014224224E+02  0.50342836250E+02  0.47000000000E+01 0.  1.
         13    1    6    6    0    0 -0.69366636506E+01  0.71979015336E+02 -0.15016020392E+02  0.73855106931E+02  0.00000000000E+00 0. -1.
        -14    1    6    6    0    0  0.46565957336E+01  0.94587129884E+02  0.72085438218E+02  0.11901562682E+03  0.00000000000E+00 0.  1.
</event>
<event>
12    1  0.8462562E-002  0.1902968E+03  0.7818608E-02  0.1159973E+00
         21   -1    0    0  501  502  0.00000000000E+00  0.00000000000E+00  0.11959378655E+03  0.11959378655E+03  0.00000000000E+00 0.  1.
         21   -1    0    0  502  503 -0.00000000000E+00 -0.00000000000E+00 -0.29357361125E+03  0.29357361125E+03  0.00000000000E+00 0.  1.
         -6    2    1    2    0  503 -0.21559266410E+02 -0.60815114616E+02 -0.10592465952E+03  0.21106746102E+03  0.17078102785E+03 0.  0.
        -24    2    3    3    0    0 -0.51424189786E+02 -0.54386175136E+02 -0.93196809163E+01  0.10963838825E+03  0.79570197847E+02 0.  0.
          6    2    1    2  501    0  0.21559266410E+02  0.60815114616E+02 -0.68055165174E+02  0.20209993678E+03  0.17902401740E+03 0.  0.
         24    2    5    5    0    0  0.60485330399E+02  0.78856729610E+02 -0.88054323707E+02  0.15453109539E+03  0.79053377660E+02 0.  0.
          5    1    5    5  501    0 -0.38926063989E+02 -0.18041614994E+02  0.19999158533E+02  0.47568841392E+02  0.47000000000E+01 0. -1.
        -13    1    6    6    0    0  0.37820510650E+02 -0.63343433048E+01 -0.20603061114E+02  0.43531609874E+02  0.00000000000E+00 0.  1.
         14    1    6    6    0    0  0.22664819750E+02  0.85191072915E+02 -0.67451262592E+02  0.11099948551E+03  0.00000000000E+00 0. -1.
         -5    1    3    3    0  503  0.29864923376E+02 -0.64289394798E+01 -0.96604978606E+02  0.10142907277E+03  0.47000000000E+01 0.  1.
         11    1    4    4    0    0 -0.89587516830E+01 -0.64420614618E+02 -0.11033835715E+02  0.65969844247E+02  0.00000000000E+00 0. -1.
        -12    1    4    4    0    0 -0.42465438103E+02  0.10034439482E+02  0.17141547986E+01  0.43668544007E+02  0.00000000000E+00 0.  1.
</event>
<event>
12    1  0.8462562E-002  0.1779082E+03  0.7818608E-02  0.1170010E+00
         21   -1    0    0  501  502  0.00000000000E+00  0.00000000000E+00  0.98743872201E+02  0.98743872201E+02  0.00000000000E+00 0.  1.
         21   -1    0    0  502  503 -0.00000000000E+00 -0.00000000000E+00 -0.37938499979E+03  0.37938499979E+03  0.00000000000E+00 0.  1.
         -6    2    1    2    0  503 -0.30028561912E+02  0.32588477475E+02 -0.23566783063E+03  0.29528064970E+03  0.17230093529E+03 0.  0.
        -24    2    3    3    0    0  0.93453992972E+01  0.26195843278E+02 -0.24062521854E+03  0.25481041016E+03  0.79084073229E+02 0.  0.
          6    2    1    2  501    0  0.30028561912E+02 -0.32588477475E+02 -0.44973296961E+02  0.18284822229E+03  0.17160172365E+03 0.  0.
         24    2    5    5    0    0  0.39587881980E+01  0.41683422912E+02  0.15169142860E+02  0.83675890685E+02  0.70840468922E+02 0.  0.
          5    1    5    5  501    0  0.26069773714E+02 -0.74271900387E+02 -0.60142439821E+02  0.99172331606E+02  0.47000000000E+01 0. -1.
        -11    1    6    6    0    0  0.35996301920E+02  0.31953244123E+02  0.36639232945E+01  0.48271812643E+02  0.00000000000E+00 0.  1.
         12    1    6    6    0    0 -0.32037513722E+02  0.97301787889E+01  0.11505219566E+02  0.35404078042E+02  0.00000000000E+00 0. -1.
         -5    1    3    3    0  503 -0.39373961209E+02  0.63926341964E+01  0.49573879104E+01  0.40470239537E+02  0.47000000000E+01 0.  1.
         11    1    4    4    0    0  0.20460964107E+02  0.23489627172E+02 -0.28024483311E+02  0.41902091854E+02  0.00000000000E+00 0. -1.
        -12    1    4    4    0    0 -0.11115564810E+02  0.27062161060E+01 -0.21260073523E+03  0.21290831831E+03  0.00000000000E+00 0.  1.
</event>
<event>
12    1  0.8462562E-002  0.2389190E+03  0.7818608E-02  0.1121357E+00
         21   -1    0    0  501  502  0.00000000000E+00  0.00000000000E+00  0.76991115458E+03  0.76991115458E+03  0.00000000000E+00 0. -1.
         21   -1    0    0  502  503 -0.00000000000E+00 -0.00000000000E+00 -0.10721062891E+03  0.10721062891E+03  0.00000000000E+00 0.  1.
         -6    2    1    2    0  503  0.63844748513E+02 -0.14591055451E+03  0.84564149483E+02  0.25344305399E+03  0.17809055114E+03 0.  0.
        -24    2    3    3    0    0  0.10409683977E+03 -0.72361564465E+02  0.29059352726E+02  0.15278244972E+03  0.80160357413E+02 0.  0.
          6    2    1    2  501    0 -0.63844748513E+02  0.14591055451E+03  0.57813637619E+03  0.62367872951E+03  0.17136932731E+03 0.  0.
         24    2    5    5    0    0 -0.81821907888E+02  0.16600919720E+03  0.46073084190E+03  0.50312466206E+03  0.81287383605E+02 0.  0.
          5    1    5    5  501    0  0.17977159376E+02 -0.20098642686E+02  0.11740553429E+03  0.12055406745E+03  0.47000000000E+01 0. -1.
        -11    1    6    6    0    0  0.86377840894E+01  0.95684044511E+01  0.68628022368E+01  0.14603552042E+02  0.00000000000E+00 0.  1.
         12    1    6    6    0    0 -0.90459691978E+02  0.15644079275E+03  0.45386803966E+03  0.48852111002E+03  0.00000000000E+00 0. -1.
         -5    1    3    3    0  503 -0.40252091259E+02 -0.73548990047E+02  0.55504796757E+02  0.10066060426E+03  0.47000000000E+01 0.  1.
         11    1    4    4    0    0  0.88131373009E+02 -0.44217004985E+02 -0.13282508492E+02  0.99492248292E+02  0.00000000000E+00 0. -1.
        -12    1    4    4    0    0  0.15965466762E+02 -0.28144559480E+02  0.42341861218E+02  0.53290201432E+02  0.00000000000E+00 0.  1.
</event>
<event>
12    1  0.8462562E-002  0.1916097E+03  0.7818608E-02  0.1157764E+00
         21   -1    0    0  501  502  0.00000000000E+00  0.00000000000E+00  0.35822574811E+02  0.35822574811E+02  0.00000000000E+00 0. -1.
         21   -1    0    0  502  503 -0.00000000000E+00 -0.00000000000E+00 -0.15513025624E+04  0.15513025624E+04  0.00000000000E+00 0. -1.
         -6    2    1    2    0  503  0.65974279951E+02 -0.51384640527E+02 -0.12233954446E+04  0.12378005379E+04  0.16870320364E+03 0.  0.
        -24    2    3    3    0    0  0.95959549675E+02  0.15843164191E+02 -0.74714883300E+03  0.75587562760E+03  0.60475984699E+02 0.  0.
          6    2    1    2  501    0 -0.65974279951E+02  0.51384640527E+02 -0.29208454294E+03  0.34932459924E+03  0.17239869057E+03 0.  0.
         24    2    5    5    0    0  0.12471136474E+02 -0.27340031609E+02 -0.11620739629E+03  0.14122337849E+03  0.74410194917E+02 0.  0.
          5    1    5    5  501    0 -0.78445416425E+02  0.78724672136E+02 -0.17587714665E+03  0.20810122075E+03  0.47000000000E+01 0. -1.
        -11    1    6    6    0    0  0.43695139476E+02 -0.19580830209E+02 -0.74253838232E+02  0.88353305641E+02  0.00000000000E+00 0.  1.
         12    1    6    6    0    0 -0.31224003002E+02 -0.77592013995E+01 -0.41953558057E+02  0.52870072852E+02  0.00000000000E+00 0. -1.
         -5    1    3    3    0  503 -0.29985269724E+02 -0.67227804719E+02 -0.47624661162E+03  0.48192491034E+03  0.47000000000E+01 0.  1.
         13    1    4    4    0    0  0.73718103815E+02 -0.15057735081E+02 -0.54544661026E+03  0.55061156804E+03  0.00000000000E+00 0. -1.
        -14    1    4    4    0    0  0.22241445860E+02  0.30900899272E+02 -0.20170222274E+03  0.20526405956E+03  0.00000000000E+00 0.  1.
</event>
<event>
12    1  0.8462562E-002  0.2355969E+03  0.7818608E-02  0.1122793E+00
         21   -1    0    0  503  502  0.00000000000E+00  0.00000000000E+00  0.93190935427E+02  0.93190935427E+02  0.00000000000E+00 0. -1.
         21   -1    0    0  501  503 -0.00000000000E+00 -0.00000000000E+00 -0.88195316117E+03  0.88195316117E+03  0.00000000000E+00 0.  1.
          6    2    1    2  501    0 -0.56671823616E+01 -0.16080376733E+03 -0.67231984368E+03  0.71234237904E+03  0.17183632978E+03 0.  0.
         24    2    3    3    0    0 -0.32916521098E+02 -0.15024613367E+03 -0.65590129319E+03  0.67849494354E+03  0.80569745909E+02 0.  0.
         -6    2    1    2    0  502  0.56671823616E+01  0.16080376733E+03 -0.11644238206E+03  0.26280171755E+03  0.17209284083E+03 0.  0.
        -24    2    5    5    0    0 -0.20261149299E+02  0.30733274481E+02 -0.91707889754E+02  0.12780358200E+03  0.81045482280E+02 0.  0.
          5    1    3    3  501    0  0.27249338736E+02 -0.10557633655E+02 -0.16418550487E+02  0.33847435502E+02  0.47000000000E+01 0. -1.
        -13    1    4    4    0    0  0.55092737878E+01 -0.10849613670E+03 -0.32265925353E+03  0.34045668985E+03  0.00000000000E+00 0.  1.
         14    1    4    4    0    0 -0.38425794886E+02 -0.41749996977E+02 -0.33324203967E+03  0.33803825369E+03  0.00000000000E+00 0. -1.
         -5    1    5    5    0  502  0.25928331661E+02  0.13007049285E+03 -0.24734492307E+02  0.13499813555E+03  0.47000000000E+01 0.  1.
         13    1    6    6    0    0 -0.51131055041E+02  0.17288859070E+02 -0.45286083338E+02  0.70456502763E+02  0.00000000000E+00 0. -1.
        -14    1    6    6    0    0  0.30869905742E+02  0.13444415411E+02 -0.46421806416E+02  0.57347079239E+02  0.00000000000E+00 0.  1.
</event>
<event>
12    1  0.8462562E-002  0.1974274E+03  0.7818608E-02  0.1152381E+00
         21   -1    0    0  503  502  0.00000000000E+00  0.00000000000E+00  0.50072769403E+02  0.50072769403E+02  0.00000000000E+00 0. -1.
         21   -1    0    0  501  503 -0.00000000000E+00 -0.00000000000E+00 -0.77205918664E+03  0.77205918664E+03  0.00000000000E+00 0. -1.
          6    2    1    2  501    0 -0.34179932962E+02 -0.90725655687E+02 -0.34252484913E+03  0.39534904410E+03  0.17198308633E+03 0.  0.
         24    2    3    3    0    0  0.25567501053E+02 -0.40412472530E+02 -0.28024943270E+03  0.29534159557E+03  0.80000303110E+02 0.  0.
         -6    2    1    2    0  502  0.34179932962E+02  0.90725655687E+02 -0.37946156811E+03  0.42678291195E+03  0.16956756718E+03 0.  0.
        -24    2    5    5    0    0  0.10659054619E+02  0.17985117802E+02 -0.53224846412E+02  0.91675606512E+02  0.71655095046E+02 0.  0.
          5    1    3    3  501    0 -0.59747434016E+02 -0.50313183157E+02 -0.62275416432E+02  0.10000744854E+03  0.47000000000E+01 0. -1.
        -13    1    4    4    0    0  0.27701691213E+02  0.19103019096E+02 -0.10100783431E+03  0.10646544804E+03  0.00000000000E+00 0.  1.
         14    1    4    4    0    0 -0.21341901594E+01 -0.59515491625E+02 -0.17924159839E+03  0.18887614753E+03  0.00000000000E+00 0. -1.
         -5    1    5    5    0  502  0.23520878343E+02  0.72740537885E+02 -0.32623672170E+03  0.33510730543E+03  0.47000000000E+01 0.  1.
         11    1    6    6    0    0 -0.93674605939E+01  0.30763432651E+02  0.13167860776E+01  0.32184965932E+02  0.00000000000E+00 0. -1.
        -12    1    6    6    0    0  0.20026515213E+02 -0.12778314850E+02 -0.54541632489E+02  0.59490640580E+02  0.00000000000E+00 0.  1.
</event>
<event>
12    1  0.8462562E-002  0.1938958E+03  0.7818608E-02  0.1155477E+00
         21   -1    0    0  503  502  0.00000000000E+00  0.00000000000E+00  0.86595138791E+03  0.86595138791E+03  0.00000000000E+00 0. -1.
         21   -1    0    0  501  503 -0.00000000000E+00 -0.00000000000E+00 -0.10088257803E+03  0.10088257803E+03  0.00000000000E+00 0. -1.
          6    2    1    2  501    0  0.12755815333E+02 -0.88822186159E+02  0.15210569899E+02  0.19231285945E+03  0.16941305409E+03 0.  0.
         24    2    3    3    0    0  0.53803428715E+02 -0.10178334476E+03  0.35952993510E+02  0.14429998270E+03  0.79216217120E+02 0.  0.
         -6    2    1    2    0  502 -0.12755815333E+02  0.88822186159E+02  0.74985823998E+03  0.77452110648E+03  0.17188214784E+03 0.  0.
        -24    2    5    5    0    0 -0.53276429158E+02  0.11140184936E+03  0.56979320645E+03  0.58851769889E+03  0.80249821487E+02 0.  0.
          5    1    3    3  501    0 -0.41047613382E+02  0.12961158597E+02 -0.20742423611E+02  0.48012876750E+02  0.47000000000E+01 0. -1.
        -13    1    4    4    0    0  0.43276237359E+02 -0.93949938015E+02  0.58040189742E+02  0.11860896761E+03  0.00000000000E+00 0.  1.
         14    1    4    4    0    0  0.10527191356E+02 -0.78334067409E+01 -0.22087196232E+02  0.25691015091E+02  0.00000000000E+00 0. -1.
         -5    1    5    5    0  502  0.40520613825E+02 -0.22579663206E+02  0.18006503353E+03  0.18600340759E+03  0.47000000000E+01 0.  1.
         13    1    6    6    0    0 -0.70106359403E+02  0.69084361049E+02  0.44275554845E+03  0.45356369591E+03  0.00000000000E+00 0. -1.
        -14    1    6    6    0    0  0.16829930245E+02  0.42317488316E+02  0.12703765800E+03  0.13495400298E+03  0.00000000000E+00 0.  1.
</event>
<event>
12    1  0.8462562E-002  0.2060992E+03  0.7818608E-02  0.1144801E+00
         21   -1    0    0  501  502  0.00000000000E+00  0.00000000000E+00  0.20314740795E+04  0.20314740795E+04  0.00000000000E+00 0. -1.
         21   -1    0    0  502  503 -0.00000000000E+00 -0.00000000000E+00 -0.94957225862E+02  0.94957225862E+02  0.00000000000E+00 0. -1.
         -6    2    1    2    0  503 -0.20062580690E+02 -0.11123306162E+03  0.28756019617E+02  0.20757010935E+03  0.17170655343E+03 0.  0.
        -24    2    3    3    0    0  0.36532378884E+02 -0.50589387569E+02 -0.27040308535E+02  0.10749031675E+03  0.83241150085E+02 0.  0.
          6    2    1    2  501    0  0.20062580690E+02  0.11123306162E+03  0.19077608340E+04  0.19188611960E+04  0.17234148835E+03 0.  0.
         24    2    5    5    0    0 -0.48300856391E+02  0.30514092773E+02  0.10251462689E+04  0.10299181877E+04  0.80885833982E+02 0.  0.
          5    1    5    5  501    0  0.68363437081E+02  0.80718968846E+02  0.88261456505E+03  0.88894300824E+03  0.47000000000E+01 0. -1.
        -13    1    6    6    0    0  0.92604454825E+01  0.25502602796E+02  0.12457728291E+03  0.12749760005E+03  0.00000000000E+00 0.  1.
         14    1    6    6    0    0 -0.57561301874E+02  0.50114899772E+01  0.90056898601E+03  0.90242058768E+03  0.00000000000E+00 0. -1.
         -5    1    3    3    0  503 -0.56594959574E+02 -0.60643674050E+02  0.55796328152E+02  0.10007979260E+03  0.47000000000E+01 0.  1.
         13    1    4    4    0    0 -0.19567759006E+02 -0.29120138627E+02 -0.31643791947E+02  0.47246261598E+02  0.00000000000E+00 0. -1.
        -14    1    4    4    0    0  0.56100137890E+02 -0.21469248942E+02  0.46034834122E+01  0.60244055150E+02  0.00000000000E+00 0.  1.
</event>
<event>
12    1  0.8462562E-002  0.2047950E+03  0.7818608E-02  0.1146121E+00
         21   -1    0    0  503  502  0.00000000000E+00  0.00000000000E+00  0.77640679397E+03  0.77640679397E+03  0.00000000000E+00 0. -1.
         21   -1    0    0  501  503 -0.00000000000E+00 -0.00000000000E+00 -0.70352409519E+02  0.70352409519E+02  0.00000000000E+00 0. -1.
          6    2    1    2  501    0 -0.17674706893E+02  0.11032935235E+03  0.14495326189E+03  0.24945235093E+03  0.16949945722E+03 0.  0.
         24    2    3    3    0    0  0.25126646863E+02  0.12796036714E+03  0.12731392811E+03  0.19969248093E+03  0.81627487463E+02 0.  0.
         -6    2    1    2    0  502  0.17674706893E+02 -0.11032935235E+03  0.56110112257E+03  0.59730685256E+03  0.17162763507E+03 0.  0.
        -24    2    5    5    0    0  0.51745679693E+02 -0.13064071633E+03  0.40207758128E+03  0.43334356589E+03  0.79847683743E+02 0.  0.
          5    1    3    3  501    0 -0.42801353757E+02 -0.17631014789E+02  0.17639333778E+02  0.49759869996E+02  0.47000000000E+01 0. -1.
        -13    1    4    4    0    0  0.88690426961E+01  0.83703174547E+01  0.60551708659E+02  0.61767560694E+02  0.00000000000E+00 0.  1.
         14    1    4    4    0    0  0.16257604167E+02  0.11959004968E+03  0.66762219450E+02  0.13792492024E+03  0.00000000000E+00 0. -1.
         -5    1    5    5    0  502 -0.34070972799E+02  0.20311363976E+02  0.15902354129E+03  0.16396328668E+03  0.47000000000E+01 0.  1.
         11    1    6    6    0    0  0.34314065214E+02 -0.13542790580E+03  0.31785845105E+03  0.34720623215E+03  0.00000000000E+00 0. -1.
        -12    1    6    6    0    0  0.17431614478E+02  0.47871894749E+01  0.84219130229E+02  0.86137333735E+02  0.00000000000E+00 0.  1.
</event>
<event>
12    1  0.8462562E-002  0.1883453E+03  0.7818608E-02  0.1160054E+00
         21   -1    0    0  501  502  0.00000000000E+00  0.00000000000E+00  0.77651795835E+02  0.77651795835E+02  0.00000000000E+00 0. -1.
         21   -1    0    0  502  503 -0.00000000000E+00 -0.00000000000E+00 -0.92488438096E+03  0.92488438096E+03  0.00000000000E+00 0. -1.
         -6    2    1    2    0  503 -0.74996300405E+02 -0.13422166950E+02 -0.66430052060E+02  0.19933846818E+03  0.17180882818E+03 0.  0.
        -24    2    3    3    0    0 -0.58043862502E+02  0.17836457208E+01  0.20963011485E+02  0.10890484918E+03  0.89713694377E+02 0.  0.
          6    2    1    2  501    0  0.74996300405E+02  0.13422166950E+02 -0.78080253306E+03  0.80319770861E+03  0.17224797194E+03 0.  0.
         24    2    5    5    0    0 -0.27991479557E+02 -0.23539998384E+01 -0.38613664915E+03  0.39498376938E+03  0.78240667242E+02 0.  0.
          5    1    5    5  501    0  0.10298777996E+03  0.15776166789E+02 -0.39466588391E+03  0.40821393923E+03  0.47000000000E+01 0. -1.
        -13    1    6    6    0    0  0.80443528352E+00 -0.36465635344E+02 -0.13155167384E+03  0.13651458738E+03  0.00000000000E+00 0.  1.
         14    1    6    6    0    0 -0.28795914840E+02  0.34111635506E+02 -0.25458497531E+03  0.25846918200E+03  0.00000000000E+00 0. -1.
         -5    1    3    3    0  503 -0.16952437903E+02 -0.15205812671E+02 -0.87393063545E+02  0.90433619001E+02  0.47000000000E+01 0.  1.
         13    1    4    4    0    0 -0.68277166100E+02 -0.15853827104E+02 -0.11039888564E+02  0.70957694326E+02  0.00000000000E+00 0. -1.
        -14    1    4    4    0    0  0.10233303598E+02  0.17637472825E+02  0.32002900049E+02  0.37947154857E+02  0.00000000000E+00 0.  1.
</event>
<event>
12    1  0.8462562E-002  0.1746338E+03  0.7818608E-02  0.1173200E+00
         21   -1    0    0  501  502  0.00000000000E+00  0.00000000000E+00  0.19902199686E+03  0.19902199686E+03  0.00000000000E+00 0. -1.
         21   -1    0    0  502  503 -0.00000000000E+00 -0.00000000000E+00 -0.16268147110E+03  0.16268147110E+03  0.00000000000E+00 0. -1.
         -6    2    1    2    0  503 -0.66625895996E+01 -0.32304363176E+02 -0.26230377449E+02  0.17619857311E+03  0.17108460621E+03 0.  0.
        -24    2    3    3    0    0 -0.24563735490E+02 -0.82999255634E+02 -0.86679437683E+01  0.11944513953E+03  0.81852028517E+02 0.  0.
          6    2    1    2  501    0  0.66625895996E+01  0.32304363176E+02  0.62570903209E+02  0.18550489486E+03  0.17149048401E+03 0.  0.
         24    2    5    5    0    0 -0.27486500481E+02  0.79552964941E+00  0.95882342139E+02  0.12814019398E+03  0.80438455990E+02 0.  0.
          5    1    5    5  501    0  0.34149090081E+02  0.31508833527E+02 -0.33311438931E+02  0.57364700881E+02  0.47000000000E+01 0. -1.
        -13    1    6    6    0    0  0.15869671389E+02  0.11236925309E+02  0.77503716313E+02  0.79905825837E+02  0.00000000000E+00 0.  1.
         14    1    6    6    0    0 -0.43356171870E+02 -0.10441395659E+02  0.18378625826E+02  0.48234368139E+02  0.00000000000E+00 0. -1.
         -5    1    3    3    0  503  0.17901145890E+02  0.50694892457E+02 -0.17562433681E+02  0.56753433572E+02  0.47000000000E+01 0.  1.
         11    1    4    4    0    0  0.53501278632E+01 -0.83183352331E+02 -0.22717872106E+02  0.86395576775E+02  0.00000000000E+00 0. -1.
        -12    1    4    4    0    0 -0.29913863353E+02  0.18409669756E+00  0.14049928338E+02  0.33049562760E+02  0.00000000000E+00 0.  1.
</event>
<event>
12    1  0.8462562E-002  0.2311212E+03  0.7818608E-02  0.1125909E+00
         21   -1    0    0  503  502  0.00000000000E+00  0.00000000000E+00  0.80989891657E+03  0.80989891657E+03  0.00000000000E+00 0. -1.
         21   -1    0    0  501  503 -0.00000000000E+00 -0.00000000000E+00 -0.57483063784E+03  0.57483063784E+03  0.00000000000E+00 0. -1.
          6    2    1    2  501    0 -0.13827964535E+03  0.67261401166E+02 -0.53394932354E+03  0.58182377012E+03  0.17254466949E+03 0.  0.
         24    2    3    3    0    0 -0.16177869554E+03  0.44449482631E+02 -0.50345135915E+03  0.53682593885E+03  0.81059945452E+02 0.  0.
         -6    2    1    2    0  502  0.13827964535E+03 -0.67261401166E+02  0.76901760227E+03  0.80290578429E+03  0.17211702250E+03 0.  0.
        -24    2    5    5    0    0  0.13308788187E+03  0.77694301455E-01  0.47862796074E+03  0.50472841744E+03  0.89183295741E+02 0.  0.
          5    1    3    3  501    0  0.23499050194E+02  0.22811918535E+02 -0.30497964389E+02  0.44997831271E+02  0.47000000000E+01 0. -1.
        -13    1    4    4    0    0 -0.13059169579E+01 -0.15063672145E+02 -0.37373916804E+02  0.40316613138E+02  0.00000000000E+00 0.  1.
         14    1    4    4    0    0 -0.16047277858E+03  0.59513154776E+02 -0.46607744234E+03  0.49650932571E+03  0.00000000000E+00 0. -1.
         -5    1    5    5    0  502  0.51917634748E+01 -0.67339095467E+02  0.29038964154E+03  0.29817736684E+03  0.47000000000E+01 0.  1.
         13    1    6    6    0    0  0.11124188562E+03 -0.35204253900E+02  0.31484160259E+03  0.33576678116E+03  0.00000000000E+00 0. -1.
        -14    1    6    6    0    0  0.21845996255E+02  0.35281948202E+02  0.16378635815E+03  0.16896163629E+03  0.00000000000E+00 0.  1.
</event>
<event>
12    1  0.8462562E-002  0.2071302E+03  0.7818608E-02  0.1144043E+00
         21   -1    0    0  503  502  0.00000000000E+00  0.00000000000E+00  0.50416854374E+03  0.50416854374E+03  0.00000000000E+00 0.  1.
         21   -1    0    0  501  503 -0.00000000000E+00 -0.00000000000E+00 -0.14755680108E+03  0.14755680108E+03  0.00000000000E+00 0.  1.
          6    2    1    2  501    0 -0.15656418830E+02 -0.11399846421E+03 -0.34563900657E+02  0.20909537646E+03  0.17112989200E+03 0.  0.
         24    2    3    3    0    0 -0.49918869542E+02 -0.21358623892E+02 -0.41534835330E+02  0.10996546436E+03  0.86134641439E+02 0.  0.
         -6    2    1    2    0  502  0.15656418830E+02  0.11399846421E+03  0.39117564332E+03  0.44262996836E+03  0.17222697720E+03 0.  0.
        -24    2    5    5    0    0 -0.18929202425E+02  0.24820681864E+02  0.74816706467E+02  0.11209417758E+03  0.77415658162E+02 0.  0.
          5    1    3    3  501    0  0.34262450712E+02 -0.92639840313E+02  0.69709346736E+01  0.99129912096E+02  0.47000000000E+01 0. -1.
        -11    1    4    4    0    0  0.11480564176E+02 -0.36761476205E+02 -0.16257016116E+02  0.41803110645E+02  0.00000000000E+00 0.  1.
         12    1    4    4    0    0 -0.61399433718E+02  0.15402852312E+02 -0.25277819214E+02  0.68162353719E+02  0.00000000000E+00 0. -1.
         -5    1    5    5    0  502  0.34585621254E+02  0.89177782341E+02  0.31635893685E+03  0.33053579078E+03  0.47000000000E+01 0.  1.
         13    1    6    6    0    0 -0.24163056283E+02  0.21194025814E+02  0.90033679966E+02  0.95598658711E+02  0.00000000000E+00 0. -1.
        -14    1    6    6    0    0  0.52338538582E+01  0.36266560498E+01 -0.15216973500E+02  0.16495518870E+02  0.00000000000E+00 0.  1.
</event>
<event>
12    1  0.8462562E-002  0.2126987E+03  0.7818608E-02  0.1139824E+00
         21   -1    0    0  501  502  0.00000000000E+00  0.00000000000E+00  0.48150040540E+02  0.48150040540E+02  0.00000000000E+00 0.  1.
         21   -1    0    0  502  503 -0.00000000000E+00 -0.00000000000E+00 -0.17362922761E+04  0.17362922761E+04  0.00000000000E+00 0.  1.
         -6    2    1    2    0  503 -0.78689015162E+02 -0.96868218857E+02 -0.14537260588E+04  0.14692039377E+04  0.17223630173E+03 0.  0.
        -24    2    3    3    0    0 -0.11974948215E+00  0.80835193821E+01 -0.49777611376E+03  0.50429441641E+03  0.80414186404E+02 0.  0.
          6    2    1    2  501    0  0.78689015162E+02  0.96868218857E+02 -0.23441617674E+03  0.31523837891E+03  0.16984957664E+03 0.  0.
         24    2    5    5    0    0  0.29115663881E+02  0.60005364815E+02 -0.22813722498E+03  0.25296557264E+03  0.86583034293E+02 0.  0.
          5    1    5    5  501    0  0.49573351281E+02  0.36862854042E+02 -0.62789517607E+01  0.62272806269E+02  0.47000000000E+01 0. -1.
        -11    1    6    6    0    0  0.20014085395E+02  0.52799500990E+01 -0.27852670759E+01  0.20885382447E+02  0.00000000000E+00 0.  1.
         12    1    6    6    0    0  0.91015784857E+01  0.54725414716E+02 -0.22535195791E+03  0.23208019019E+03  0.00000000000E+00 0. -1.
         -5    1    3    3    0  503 -0.78569265680E+02 -0.10495173824E+03 -0.95594994504E+03  0.96490952129E+03  0.47000000000E+01 0.  1.
         13    1    4    4    0    0  0.10294058948E+02  0.21541828339E+02 -0.47628015278E+03  0.47687818355E+03  0.00000000000E+00 0. -1.
        -14    1    4    4    0    0 -0.10413808430E+02 -0.13458308957E+02 -0.21495960980E+02  0.27416232864E+02  0.00000000000E+00 0.  1.
</event>
<event>
12    1  0.8462562E-002  0.1982345E+03  0.7818608E-02  0.1151915E+00
         21   -1    0    0  501  502  0.00000000000E+00  0.00000000000E+00  0.80446381862E+02  0.80446381862E+02  0.00000000000E+00 0. -1.
         21   -1    0    0  502  503 -0.00000000000E+00 -0.00000000000E+00 -0.48092174244E+03  0.48092174244E+03  0.00000000000E+00 0.  1.
         -6    2    1    2    0  503 -0.52083248502E+02  0.80773040858E+02 -0.19669073307E+03  0.27925646426E+03  0.17337814005E+03 0.  0.
        -24    2    3    3    0    0 -0.92490216453E+02  0.72604138883E+02 -0.19020706753E+03  0.23726144149E+03  0.79299823179E+02 0.  0.
          6    2    1    2  501    0  0.52083248502E+02 -0.80773040858E+02 -0.20378462751E+03  0.28211166005E+03  0.16977003688E+03 0.  0.
         24    2    5    5    0    0 -0.66717265846E+00 -0.10157694883E+03 -0.17392650791E+03  0.21785431163E+03  0.83016560333E+02 0.  0.
          5    1    5    5  501    0  0.52750421161E+02  0.20803907973E+02 -0.29858119598E+02  0.64257348416E+02  0.47000000000E+01 0. -1.
        -11    1    6    6    0    0  0.25424336840E+02 -0.42087147842E+02 -0.24537416120E+02  0.54952795262E+02  0.00000000000E+00 0.  1.
         12    1    6    6    0    0 -0.26091509499E+02 -0.59489800989E+02 -0.14938909179E+03  0.16290151637E+03  0.00000000000E+00 0. -1.
         -5    1    3    3    0  503  0.40406967951E+02  0.81689019747E+01 -0.64836655434E+01  0.41995022769E+02  0.47000000000E+01 0.  1.
         11    1    4    4    0    0 -0.32704652260E+02  0.54057197965E+02 -0.40636461401E+02  0.75120549295E+02  0.00000000000E+00 0. -1.
        -12    1    4    4    0    0 -0.59785564193E+02  0.18546940918E+02 -0.14957060613E+03  0.16214089219E+03  0.00000000000E+00 0.  1.
</event>
<event>
12    1  0.8462562E-002  0.2749488E+03  0.7818608E-02  0.1098979E+00
         21   -1    0    0  501  502  0.00000000000E+00  0.00000000000E+00  0.12684776929E+04  0.12684776929E+04  0.00000000000E+00 0.  1.
         21   -1    0    0  502  503 -0.00000000000E+00 -0.00000000000E+00 -0.67505649020E+02  0.67505649020E+02  0.00000000000E+00 0.  1.
         -6    2    1    2    0  503  0.66367010738E+02 -0.20207072802E+03  0.35762381402E+03  0.44894722088E+03  0.16858723423E+03 0.  0.
        -24    2    3    3    0    0 -0.74758254830E+01 -0.10141488502E+03  0.26098785537E+03  0.29100748017E+03  0.78929246769E+02 0.  0.
          6    2    1    2  501    0 -0.66367010738E+02  0.20207072802E+03  0.84334822987E+03  0.88703612105E+03  0.17424030530E+03 0.  0.
         24    2    5    5    0    0 -0.65734914969E+02  0.22467483202E+03  0.80867999772E+03  0.84537893220E+03  0.76826695234E+02 0.  0.
          5    1    5    5  501    0 -0.63209576922E+00 -0.22604104003E+02  0.34668232144E+02  0.41657188849E+02  0.47000000000E+01 0. -1.
        -13    1    6    6    0    0 -0.86491336097E+01  0.65048834246E+02  0.35598293102E+03  0.36198067010E+03  0.00000000000E+00 0.  1.
         14    1    6    6    0    0 -0.57085781359E+02  0.15962599777E+03  0.45269706670E+03  0.48339826210E+03  0.00000000000E+00 0. -1.
         -5    1    3    3    0  503  0.73842836221E+02 -0.10065584300E+03  0.96635958659E+02  0.15793974071E+03  0.47000000000E+01 0.  1.
         13    1    4    4    0    0  0.54823946168E+01 -0.80657224265E+01  0.12599204250E+03  0.12636893330E+03  0.00000000000E+00 0. -1.
        -14    1    4    4    0    0 -0.12958220100E+02 -0.93349162592E+02  0.13499581286E+03  0.16463854687E+03  0.00000000000E+00 0.  1.
</event>
<event>
12    1  0.8462562E-002  0.1872973E+03  0.7818608E-02  0.1163939E+00
         21   -1    0    0  503  502  0.00000000000E+00  0.00000000000E+00  0.20565865294E+02  0.20565865294E+02  0.00000000000E+00 0.  1.
         21   -1    0    0  501  503 -0.00000000000E+00 -0.00000000000E+00 -0.16031513584E+04  0.16031513584E+04  0.00000000000E+00 0.  1.
          6    2    1    2  501    0 -0.35004259769E+02  0.30577551390E+02 -0.75252872869E+03  0.77548680039E+03  0.18143870928E+03 0.  0.
         24    2    3    3    0    0  0.40141311008E+02  0.28433931239E+02 -0.57624227269E+03  0.58378271466E+03  0.79544250652E+02 0.  0.
         -6    2    1    2    0  502  0.35004259769E+02 -0.30577551390E+02 -0.83005676440E+03  0.84823042328E+03  0.16834587614E+03 0.  0.
        -24    2    5    5    0    0  0.55995696072E+02 -0.64067077899E+02 -0.40814244277E+03  0.42444277177E+03  0.79569494574E+02 0.  0.
          5    1    3    3  501    0 -0.75145570777E+02  0.21436201515E+01 -0.17628645600E+03  0.19170408572E+03  0.47000000000E+01 0. -1.
        -13    1    4    4    0    0 -0.24086435449E+02  0.13364715652E+02 -0.17329404715E+03  0.17546965200E+03  0.00000000000E+00 0.  1.
         14    1    4    4    0    0  0.64227746456E+02  0.15069215587E+02 -0.40294822554E+03  0.40831306266E+03  0.00000000000E+00 0. -1.
         -5    1    5    5    0  502 -0.20991436303E+02  0.33489526509E+02 -0.42191432162E+03  0.42378765151E+03  0.47000000000E+01 0.  1.
         13    1    6    6    0    0 -0.17263443794E+02 -0.31906159050E+02 -0.13945679954E+03  0.14409798199E+03  0.00000000000E+00 0. -1.
        -14    1    6    6    0    0  0.73259139866E+02 -0.32160918848E+02 -0.26868564323E+03  0.28034478977E+03  0.00000000000E+00 0.  1.
</event>
<event>
12    1  0.8462562E-002  0.1819719E+03  0.7818608E-02  0.1166264E+00
         21   -1    0    0  503  502  0.00000000000E+00  0.00000000000E+00  0.66469281188E+02  0.66469281188E+02  0.00000000000E+00 0. -1.
         21   -1    0    0  501  503 -0.00000000000E+00 -0.00000000000E+00 -0.49579109599E+03  0.49579109599E+03  0.00000000000E+00 0.  1.
          6    2    1    2  501    0  0.31931824494E+02 -0.43463988558E+02 -0.19749827569E+03  0.26754711268E+03  0.17224148423E+03 0.  0.
         24    2    3    3    0    0  0.28304029663E+02 -0.94250992359E+02 -0.16463244089E+03  0.20676279112E+03  0.77218155536E+02 0.  0.
         -6    2    1    2    0  502 -0.31931824494E+02  0.43463988558E+02 -0.23182353911E+03  0.29471326449E+03  0.17379584364E+03 0.  0.
        -24    2    5    5    0    0  0.49412553126E+02  0.14101016355E+02 -0.99214750393E+02  0.13632679805E+03  0.78108834982E+02 0.  0.
          5    1    3    3  501    0  0.36277948314E+01  0.50787003801E+02 -0.32865834799E+02  0.60784321559E+02  0.47000000000E+01 0. -1.
        -13    1    4    4    0    0  0.17411052589E+02 -0.98624266515E+02 -0.16705728807E+03  0.19477686771E+03  0.00000000000E+00 0.  1.
         14    1    4    4    0    0  0.10892977074E+02  0.43732741560E+01  0.24248471748E+01  0.11985923418E+02  0.00000000000E+00 0. -1.
         -5    1    5    5    0  502 -0.81344377620E+02  0.29362972202E+02 -0.13260878872E+03  0.15838646644E+03  0.47000000000E+01 0.  1.
         11    1    6    6    0    0  0.16112766189E+02 -0.17871585978E+02  0.29242722987E+01  0.24239764605E+02  0.00000000000E+00 0. -1.
        -12    1    6    6    0    0  0.33299786937E+02  0.31972602333E+02 -0.10213902269E+03  0.11208703344E+03  0.00000000000E+00 0.  1.
</event>
<event>
12    1  0.8462562E-002  0.5554742E+03  0.7818608E-02  0.1000249E+00
         21   -1    0    0  501  502  0.00000000000E+00  0.00000000000E+00  0.43097309359E+03  0.43097309359E+03  0.00000000000E+00 0.  1.
         21   -1    0    0  502  503 -0.00000000000E+00 -0.00000000000E+00 -0.76759722407E+03  0.76759722407E+03  0.00000000000E+00 0. -1.
         -6    2    1    2    0  503 -0.42643186679E+03  0.30989708435E+03 -0.12411577619E+02  0.55561287682E+03  0.17513218357E+03 0.  0.
        -24    2    3    3    0    0 -0.22747607939E+03  0.10863370336E+03 -0.53975873910E+02  0.26953590362E+03  0.78673757854E+02 0.  0.
          6    2    1    2  501    0  0.42643186679E+03 -0.30989708435E+03 -0.32421255286E+03  0.64295744083E+03  0.17435639187E+03 0.  0.
         24    2    5    5    0    0  0.16193924591E+03 -0.12535009225E+03 -0.19806333245E+03  0.29661995426E+03  0.82567236920E+02 0.  0.
          5    1    5    5  501    0  0.26449262088E+03 -0.18454699209E+03 -0.12614922042E+03  0.34633748657E+03  0.47000000000E+01 0. -1.
        -11    1    6    6    0    0  0.37668984468E+01  0.10802454673E+02 -0.15983598965E+02  0.19655991116E+02  0.00000000000E+00 0.  1.
         12    1    6    6    0    0  0.15817234746E+03 -0.13615254693E+03 -0.18207973348E+03  0.27696396315E+03  0.00000000000E+00 0. -1.
         -5    1    3    3    0  503 -0.19895578740E+03  0.20126338099E+03  0.41564296291E+02  0.28607697320E+03  0.47000000000E+01 0.  1.
         11    1    4    4    0    0 -0.20030916983E+03  0.77830660195E+02 -0.69151329028E+02  0.22575048503E+03  0.00000000000E+00 0. -1.
        -12    1    4    4    0    0 -0.27166909563E+02  0.30803043160E+02  0.15175455118E+02  0.43785418590E+02  0.00000000000E+00 0.  1.
</event>
<event>
12    1  0.8462562E-002  0.2951321E+03  0.7818608E-02  0.1087804E+00
         21   -1    0    0  503  502  0.00000000000E+00  0.00000000000E+00  0.13492228949E+03  0.13492228949E+03  0.00000000000E+00 0. -1.
         21   -1    0    0  501  503 -0.00000000000E+00 -0.00000000000E+00 -0.80227086872E+03  0.80227086872E+03  0.00000000000E+00 0.  1.
          6    2    1    2  501    0 -0.19787026890E+03  0.13569770122E+03 -0.54231741795E+03  0.61742298363E+03  0.17186171611E+03 0.  0.
         24    2    3    3    0    0 -0.33164626522E+02  0.72490537481E+01 -0.15411605990E+03  0.17657222877E+03  0.79205749913E+02 0.  0.
         -6    2    1    2    0  502  0.19787026890E+03 -0.13569770122E+03 -0.12503116128E+03  0.31977017459E+03  0.17045135327E+03 0.  0.
        -24    2    5    5    0    0  0.18638902565E+03 -0.98902076195E+02 -0.41860146757E+02  0.22798104329E+03  0.75502282443E+02 0.  0.
          5    1    3    3  501    0 -0.16470564238E+03  0.12844864747E+03 -0.38820135805E+03  0.44085075486E+03  0.47000000000E+01 0. -1.
        -11    1    4    4    0    0  0.13990410771E+02 -0.16664383672E+02 -0.94125846539E+02  0.96608013453E+02  0.00000000000E+00 0.  1.
         12    1    4    4    0    0 -0.47155037293E+02  0.23913437420E+02 -0.59990213364E+02  0.79964215314E+02  0.00000000000E+00 0. -1.
         -5    1    5    5    0  502  0.11481243247E+02 -0.36795625026E+02 -0.83171014519E+02  0.91789131294E+02  0.47000000000E+01 0.  1.
         11    1    6    6    0    0  0.82789753425E+02 -0.57863341998E+02  0.16253965316E+02  0.10230591873E+03  0.00000000000E+00 0. -1.
        -12    1    6    6    0    0  0.10359927223E+03 -0.41038734196E+02 -0.58114112073E+02  0.12567512456E+03  0.00000000000E+00 0.  1.
</event>
<event>
12    1  0.8462562E-002  0.1945864E+03  0.7818608E-02  0.1154722E+00
         21   -1    0    0  501  502  0.00000000000E+00  0.00000000000E+00  0.31488884662E+03  0.31488884662E+03  0.00000000000E+00 0. -1.
         21   -1    0    0  502  503 -0.00000000000E+00 -0.00000000000E+00 -0.13925367401E+03  0.13925367401E+03  0.00000000000E+00 0. -1.
         -6    2    1    2    0  503 -0.74357731783E+02 -0.44668336419E+02  0.15847894606E+01  0.19307277308E+03  0.17248261244E+03 0.  0.
        -24    2    3    3    0    0 -0.80056933245E+02 -0.86669476331E+02  0.32728519985E+02  0.14026558984E+03  0.68429299168E+02 0.  0.
          6    2    1    2  501    0  0.74357731783E+02  0.44668336419E+02  0.17405038315E+03  0.26106974755E+03  0.17418250387E+03 0.  0.
         24    2    5    5    0    0  0.62511523644E+02  0.54932036665E+02  0.19933725168E+03  0.23095012088E+03  0.81715354653E+02 0.  0.
          5    1    5    5  501    0  0.11846208138E+02 -0.10263700246E+02 -0.25286868535E+02  0.30119626662E+02  0.47000000000E+01 0. -1.
        -11    1    6    6    0    0 -0.12994926771E+02 -0.13510220990E+00  0.71072416498E+02  0.72250776891E+02  0.00000000000E+00 0.  1.
         12    1    6    6    0    0  0.75506450415E+02  0.55067138875E+02  0.12826483519E+03  0.15869934399E+03  0.00000000000E+00 0. -1.
         -5    1    3    3    0  503  0.56992014622E+01  0.42001139912E+02 -0.31143730524E+02  0.52807183244E+02  0.47000000000E+01 0.  1.
         13    1    4    4    0    0 -0.60789667309E+02 -0.20154438712E+02  0.89524510415E+00  0.64049875215E+02  0.00000000000E+00 0. -1.
        -14    1    4    4    0    0 -0.19267265936E+02 -0.66515037619E+02  0.31833274880E+02  0.76215714624E+02  0.00000000000E+00 0.  1.
</event>
<event>
12    1  0.8462562E-002  0.2296722E+03  0.7818608E-02  0.1126998E+00
         21   -1    0    0  501  502  0.00000000000E+00  0.00000000000E+00  0.74899133076E+03  0.74899133076E+03  0.00000000000E+00 0. -1.
         21   -1    0    0  502  503 -0.00000000000E+00 -0.00000000000E+00 -0.13806607072E+03  0.13806607072E+03  0.00000000000E+00 0.  1.
         -6    2    1    2    0  503 -0.94410939578E+02 -0.11829074694E+03 -0.52383516050E+01  0.22973197296E+03  0.17275188205E+03 0.  0.
        -24    2    3    3    0    0 -0.28650985313E+01 -0.39703442254E+02  0.39895523979E+02  0.10082983103E+03  0.83608790660E+02 0.  0.
          6    2    1    2  501    0  0.94410939578E+02  0.11829074694E+03  0.61616361164E+03  0.65732542852E+03  0.17179347002E+03 0.  0.
         24    2    5    5    0    0  0.46709410961E+02  0.13893760540E+03  0.53743721323E+03  0.56287086588E+03  0.80619018964E+02 0.  0.
          5    1    5    5  501    0  0.47701528617E+02 -0.20646858466E+02  0.78726398406E+02  0.94454562637E+02  0.47000000000E+01 0. -1.
        -13    1    6    6    0    0 -0.14467799551E+02  0.11300259526E+01  0.77604691775E+02  0.78949872501E+02  0.00000000000E+00 0.  1.
         14    1    6    6    0    0  0.61177210511E+02  0.13780757945E+03  0.45983252146E+03  0.48392099338E+03  0.00000000000E+00 0. -1.
         -5    1    3    3    0  503 -0.91545841047E+02 -0.78587304682E+02 -0.45133875584E+02  0.12890214193E+03  0.47000000000E+01 0.  1.
         11    1    4    4    0    0 -0.10461362196E+01  0.16189110548E+02 -0.15268666344E+02  0.22278102999E+02  0.00000000000E+00 0. -1.
        -12    1    4    4    0    0 -0.18189623116E+01 -0.55892552802E+02  0.55164190323E+02  0.78551728031E+02  0.00000000000E+00 0.  1.
</event>
<event>
12    1  0.8462562E-002  0.1956078E+03  0.7818608E-02  0.1153839E+00
         21   -1    0    0  503  502  0.00000000000E+00  0.00000000000E+00  0.55585547532E+02  0.55585547532E+02  0.00000000000E+00 0. -1.
         21   -1    0    0  501  503 -0.00000000000E+00 -0.00000000000E+00 -0.68465505072E+03  0.68465505072E+03  0.00000000000E+00 0. -1.
          6    2    1    2  501    0 -0.53966362885E+02  0.71410639204E+02 -0.29691402923E+03  0.35555640069E+03  0.17392689729E+03 0.  0.
         24    2    3    3    0    0  0.23849634751E+02 -0.53423783487E+01 -0.15838683907E+03  0.17903946777E+03  0.79821013182E+02 0.  0.
         -6    2    1    2    0  502  0.53966362885E+02 -0.71410639204E+02 -0.33215547396E+03  0.38468419756E+03  0.17217091875E+03 0.  0.
        -24    2    5    5    0    0  0.64690779279E+02 -0.29583341891E+01 -0.10257759612E+03  0.14483252848E+03  0.79124265662E+02 0.  0.
          5    1    3    3  501    0 -0.77815997637E+02  0.76753017553E+02 -0.13852719016E+03  0.17651693291E+03  0.47000000000E+01 0. -1.
        -13    1    4    4    0    0  0.35665590171E+02 -0.16403371890E+02 -0.29411220528E+02  0.49052266253E+02  0.00000000000E+00 0.  1.
         14    1    4    4    0    0 -0.11815955420E+02  0.11060993541E+02 -0.12897561854E+03  0.12998720152E+03  0.00000000000E+00 0. -1.
         -5    1    5    5    0  502 -0.10724416393E+02 -0.68452305015E+02 -0.22957787784E+03  0.23985166908E+03  0.47000000000E+01 0.  1.
         11    1    6    6    0    0  0.50091758790E+01 -0.18732891593E+02  0.56848043791E+01  0.20207178706E+02  0.00000000000E+00 0. -1.
        -12    1    6    6    0    0  0.59681603400E+02  0.15774557404E+02 -0.10826240050E+03  0.12462534978E+03  0.00000000000E+00 0.  1.
</event>
<event>
12    1  0.8462562E-002  0.1895666E+03  0.7818608E-02  0.1158869E+00
         21   -1    0    0  503  502  0.00000000000E+00  0.00000000000E+00  0.34150857408E+03  0.34150857408E+03  0.00000000000E+00 0.  1.
         21   -1    0    0  501  503 -0.00000000000E+00 -0.00000000000E+00 -0.10629632215E+03  0.10629632215E+03  0.00000000000E+00 0.  1.
          6    2    1    2  501    0 -0.79208987173E+02 -0.41675844922E+01  0.94701259533E+02  0.21184126549E+03  0.17209578960E+03 0.  0.
         24    2    3    3    0    0 -0.88715558313E+02  0.28269959217E+02  0.22143493396E+02  0.13165842092E+03  0.90409980751E+02 0.  0.
         -6    2    1    2    0  502  0.79208987173E+02  0.41675844922E+01  0.14051099239E+03  0.23596363074E+03  0.17217451506E+03 0.  0.
        -24    2    5    5    0    0  0.10009412132E+03 -0.63491921660E+01  0.41758081761E+02  0.13437121577E+03  0.79074274400E+02 0.  0.
          5    1    3    3  501    0  0.95065711400E+01 -0.32437543709E+02  0.72557766137E+02  0.80182844571E+02  0.47000000000E+01 0. -1.
        -11    1    4    4    0    0  0.44947393631E+01  0.35965068564E+02  0.54278621872E+01  0.36649018086E+02  0.00000000000E+00 0.  1.
         12    1    4    4    0    0 -0.93210297676E+02 -0.76951093473E+01  0.16715631209E+02  0.95009402837E+02  0.00000000000E+00 0. -1.
         -5    1    5    5    0  502 -0.20885134149E+02  0.10516776658E+02  0.98752910632E+02  0.10159241496E+03  0.47000000000E+01 0.  1.
         11    1    6    6    0    0  0.43516702879E+01  0.21664236777E+02  0.24743526537E+02  0.33174060574E+02  0.00000000000E+00 0. -1.
        -12    1    6    6    0    0  0.95742451034E+02 -0.28013428943E+02  0.17014555224E+02  0.10119715520E+03  0.00000000000E+00 0.  1.
</event>
<event>
12    1  0.8462562E-002  0.1865584E+03  0.7818608E-02  0.1161838E+00
         21   -1    0    0  503  502  0.00000000000E+00  0.00000000000E+00  0.22862115266E+03  0.22862115266E+03  0.00000000000E+00 0. -1.
         21   -1    0    0  501  503 -0.00000000000E+00 -0.00000000000E+00 -0.21658234739E+03  0.21658234739E+03  0.00000000000E+00 0. -1.
          6    2    1    2  501    0  0.24202747305E+02 -0.67485415317E+02 -0.11610424478E+03  0.21887479489E+03  0.17113131193E+03 0.  0.
         24    2    3    3    0    0 -0.46548681956E+02 -0.27960339924E+02 -0.33675373700E+02  0.10318294074E+03  0.81019306749E+02 0.  0.
         -6    2    1    2    0  502 -0.24202747305E+02  0.67485415317E+02  0.12814305005E+03  0.22632870517E+03  0.17223236412E+03 0.  0.
        -24    2    5    5    0    0 -0.65380691018E+02 -0.55494479109E+01  0.65959579486E+02  0.12183665616E+03  0.78664309111E+02 0.  0.
          5    1    3    3  501    0  0.70751429261E+02 -0.39525075394E+02 -0.82428871082E+02  0.11569185414E+03  0.47000000000E+01 0. -1.
        -13    1    4    4    0    0 -0.78633903249E+01  0.16985267240E+02 -0.39385970130E+02  0.43607188096E+02  0.00000000000E+00 0.  1.
         14    1    4    4    0    0 -0.38685291631E+02 -0.44945607164E+02  0.57105964294E+01  0.59575752647E+02  0.00000000000E+00 0. -1.
         -5    1    5    5    0  502  0.41177943712E+02  0.73034863228E+02  0.62183470567E+02  0.10449204901E+03  0.47000000000E+01 0.  1.
         11    1    6    6    0    0 -0.45804325948E+02  0.29169036220E+02  0.13505563930E+02  0.55957744832E+02  0.00000000000E+00 0. -1.
        -12    1    6    6    0    0 -0.19576365069E+02 -0.34718484131E+02  0.52454015556E+02  0.65878911327E+02  0.00000000000E+00 0.  1.
</event>
<event>
12    1  0.8462562E-002  0.1832533E+03  0.7818608E-02  0.1169584E+00
         21   -1    0    0  503  502  0.00000000000E+00  0.00000000000E+00  0.13077876193E+04  0.13077876193E+04  0.00000000000E+00 0.  1.
         21   -1    0    0  501  503 -0.00000000000E+00 -0.00000000000E+00 -0.32839832760E+02  0.32839832760E+02  0.00000000000E+00 0. -1.
          6    2    1    2  501    0  0.46484484150E+02  0.42221514410E+02  0.24621918977E+03  0.29570434136E+03  0.15124055190E+03 0.  0.
         24    2    3    3    0    0 -0.19629643101E+02 -0.60028970009E+01  0.12128070234E+03  0.14627747857E+03  0.79162707872E+02 0.  0.
         -6    2    1    2    0  502 -0.46484484150E+02 -0.42221514410E+02  0.10287285968E+04  0.10449231107E+04  0.17215782856E+03 0.  0.
        -24    2    5    5    0    0 -0.24521113732E+02 -0.93820224346E+02  0.76311668445E+03  0.77341510996E+03  0.80127016075E+02 0.  0.
          5    1    3    3  501    0  0.66114127251E+02  0.48224411411E+02  0.12493848744E+03  0.14942686278E+03  0.47000000000E+01 0. -1.
        -11    1    4    4    0    0 -0.15618001970E+02 -0.19031138909E+02  0.12851022066E+03  0.13084717440E+03  0.00000000000E+00 0.  1.
         12    1    4    4    0    0 -0.40116411311E+01  0.13028241908E+02 -0.72295183230E+01  0.15430304176E+02  0.00000000000E+00 0. -1.
         -5    1    5    5    0  502 -0.21963370418E+02  0.51598709935E+02  0.26561191233E+03  0.27150800077E+03  0.47000000000E+01 0.  1.
         13    1    6    6    0    0 -0.45206490757E+02 -0.59175081575E+02  0.32395562162E+03  0.33240421458E+03  0.00000000000E+00 0. -1.
        -14    1    6    6    0    0  0.20685377025E+02 -0.34645142771E+02  0.43916106283E+03  0.44101089538E+03  0.00000000000E+00 0.  1.
</event>
<event>
12    1  0.8462562E-002  0.1761911E+03  0.7818608E-02  0.1171693E+00
         21   -1    0    0  503  502  0.00000000000E+00  0.00000000000E+00  0.43502514081E+03  0.43502514081E+03  0.00000000000E+00 0. -1.
         21   -1    0    0  501  503 -0.00000000000E+00 -0.00000000000E+00 -0.14673309258E+03  0.14673309258E+03  0.00000000000E+00 0. -1.
          6    2    1    2  501    0  0.37241080279E+01  0.33589870869E+02 -0.64549638776E+02  0.18764313159E+03  0.17291946264E+03 0.  0.
         24    2    3    3    0    0  0.48057553993E+02 -0.11124683116E+02  0.42770313288E+01  0.94240528376E+02  0.80185392194E+02 0.  0.
         -6    2    1    2    0  502 -0.37241080279E+01 -0.33589870869E+02  0.35284168701E+03  0.39411510180E+03  0.17230005505E+03 0.  0.
        -24    2    5    5    0    0  0.18544573073E+02  0.45751591899E+02  0.18308463513E+03  0.20535464902E+03  0.78825369657E+02 0.  0.
          5    1    3    3  501    0 -0.44333445965E+02  0.44714553985E+02 -0.68826670105E+02  0.93402603212E+02  0.47000000000E+01 0. -1.
        -11    1    4    4    0    0 -0.75244092975E+01 -0.18893985894E+02  0.26906431354E+02  0.33727666484E+02  0.00000000000E+00 0.  1.
         12    1    4    4    0    0  0.55581963290E+02  0.77693027781E+01 -0.22629400025E+02  0.60512861892E+02  0.00000000000E+00 0. -1.
         -5    1    5    5    0  502 -0.22268681101E+02 -0.79341462767E+02  0.16975705188E+03  0.18876045278E+03  0.47000000000E+01 0.  1.
         13    1    6    6    0    0 -0.25571372410E+02  0.29454231725E+02  0.45376171239E+02  0.59836809489E+02  0.00000000000E+00 0. -1.
        -14    1    6    6    0    0  0.44115945483E+02  0.16297360174E+02  0.13770846389E+03  0.14551783953E+03  0.00000000000E+00 0.  1.
</event>
<event>
12    1  0.8462562E-002  0.2074465E+03  0.7818608E-02  0.1143636E+00
         21   -1    0    0  503  502  0.00000000000E+00  0.00000000000E+00  0.44540372438E+03  0.44540372438E+03  0.00000000000E+00 0.  1.
         21   -1    0    0  501  503 -0.00000000000E+00 -0.00000000000E+00 -0.10790303842E+03  0.10790303842E+03  0.00000000000E+00 0.  1.
          6    2    1    2  501    0  0.11340703897E+03 -0.26304448868E+02  0.79049666634E+02  0.22199748943E+03  0.17170018928E+03 0.  0.
         24    2    3    3    0    0  0.10960299970E+03 -0.76146590467E+02  0.73996612888E+02  0.17153628506E+03  0.78345884334E+02 0.  0.
         -6    2    1    2    0  502 -0.11340703897E+03  0.26304448868E+02  0.25845101933E+03  0.33130927337E+03  0.17151042157E+03 0.  0.
        -24    2    5    5    0    0 -0.83706122712E+01 -0.28677198630E+02  0.13464407494E+03  0.15982784005E+03  0.80767955685E+02 0.  0.
          5    1    3    3  501    0  0.38040392773E+01  0.49842141600E+02  0.50530537467E+01  0.50461204368E+02  0.47000000000E+01 0. -1.
        -13    1    4    4    0    0  0.80866213550E+02 -0.11929216120E+02  0.23883113338E+02  0.85158991269E+02  0.00000000000E+00 0.  1.
         14    1    4    4    0    0  0.28736786146E+02 -0.64217374348E+02  0.50113499549E+02  0.86377293794E+02  0.00000000000E+00 0. -1.
         -5    1    5    5    0  502 -0.10503642670E+03  0.54981647498E+02  0.12380694439E+03  0.17148143333E+03  0.47000000000E+01 0.  1.
         11    1    6    6    0    0  0.13779863673E+02 -0.21918282118E+02  0.13418991854E+03  0.13666466248E+03  0.00000000000E+00 0. -1.
        -12    1    6    6    0    0 -0.22150475944E+02 -0.67589165118E+01  0.45415640636E+00  0.23163177567E+02  0.00000000000E+00 0.  1.
</event>
<event>
12    1  0.8462562E-002  0.2015195E+03  0.7818608E-02  0.1148895E+00
         21   -1    0    0  503  502  0.00000000000E+00  0.00000000000E+00  0.67738139226E+03  0.67738139226E+03  0.00000000000E+00 0.  1.
         21   -1    0    0  501  503 -0.00000000000E+00 -0.00000000000E+00 -0.10940403504E+03  0.10940403504E+03  0.00000000000E+00 0.  1.
          6    2    1    2  501    0  0.33622462388E+02 -0.98439572618E+02  0.17090513893E+02  0.20019661187E+03  0.17019335564E+03 0.  0.
         24    2    3    3    0    0  0.63215800089E+02 -0.12455112064E+03  0.15865496867E+02  0.16043269301E+03  0.77315690266E+02 0.  0.
         -6    2    1    2    0  502 -0.33622462388E+02  0.98439572618E+02  0.55088684333E+03  0.58658881544E+03  0.17259578445E+03 0.  0.
        -24    2    5    5    0    0  0.31401345795E+02  0.52868793428E+02  0.16491329936E+03  0.19250448666E+03  0.77977094339E+02 0.  0.
          5    1    3    3  501    0 -0.29593337701E+02  0.26111548022E+02  0.12250170261E+01  0.39763918860E+02  0.47000000000E+01 0. -1.
        -13    1    4    4    0    0  0.42618654976E+02 -0.41035875932E+02  0.39609168944E+02  0.71198168024E+02  0.00000000000E+00 0.  1.
         14    1    4    4    0    0  0.20597145112E+02 -0.83515244708E+02 -0.23743672077E+02  0.89234524984E+02  0.00000000000E+00 0. -1.
         -5    1    5    5    0  502 -0.65023808183E+02  0.45570779189E+02  0.38597354397E+03  0.39408432878E+03  0.47000000000E+01 0.  1.
         11    1    6    6    0    0  0.56372472954E+02  0.37633603851E+02  0.13258974598E+03  0.14890998819E+03  0.00000000000E+00 0. -1.
        -12    1    6    6    0    0 -0.24971127159E+02  0.15235189578E+02  0.32323553382E+02  0.43594498464E+02  0.00000000000E+00 0.  1.
</event>
<event>
12    1  0.8462562E-002  0.1880081E+03  0.7818608E-02  0.1160325E+00
         21   -1    0    0  503  502  0.00000000000E+00  0.00000000000E+00  0.46592414173E+03  0.46592414173E+03  0.00000000000E+00 0.  1.
         21   -1    0    0  501  503 -0.00000000000E+00 -0.00000000000E+00 -0.80140099097E+02  0.80140099097E+02  0.00000000000E+00 0.  1.
          6    2    1    2  501    0 -0.12931369246E+02  0.75050643747E+02  0.25654478132E+03  0.31791992668E+03  0.17163343357E+03 0.  0.
         24    2    3    3    0    0 -0.13366547377E+02  0.84415807780E+02  0.27413008261E+03  0.29744485649E+03  0.77597984964E+02 0.  0.
         -6    2    1    2    0  502  0.12931369246E+02 -0.75050643747E+02  0.12923926131E+03  0.22814431415E+03  0.17189305389E+03 0.  0.
        -24    2    5    5    0    0  0.38133328147E+02 -0.52628994694E+02  0.15299761514E+03  0.18661819640E+03  0.84818153672E+02 0.  0.
          5    1    3    3  501    0  0.43517813083E+00 -0.93651640331E+01 -0.17585301294E+02  0.20475070183E+02  0.47000000000E+01 0. -1.
        -11    1    4    4    0    0 -0.30885173205E+02  0.91468979999E+02  0.23079219936E+03  0.25017095657E+03  0.00000000000E+00 0.  1.
         12    1    4    4    0    0  0.17518625829E+02 -0.70531722194E+01  0.43337883249E+02  0.47273899921E+02  0.00000000000E+00 0. -1.
         -5    1    5    5    0  502 -0.25201958901E+02 -0.22421649052E+02 -0.23758353824E+02  0.41526117746E+02  0.47000000000E+01 0.  1.
         11    1    6    6    0    0  0.36523241966E+02 -0.70591019439E+02  0.14785794640E+03  0.16786605239E+03  0.00000000000E+00 0. -1.
        -12    1    6    6    0    0  0.16100861809E+01  0.17962024745E+02  0.51396687337E+01  0.18752144015E+02  0.00000000000E+00 0.  1.
</event>
<event>
12    1  0.8462562E-002  0.2378370E+03  0.7818608E-02  0.1121269E+00
         21   -1    0    0  503  502  0.00000000000E+00  0.00000000000E+00  0.47576620308E+03  0.47576620308E+03  0.00000000000E+00 0.  1.
         21   -1    0    0  501  503 -0.00000000000E+00 -0.00000000000E+00 -0.13179278641E+03  0.13179278641E+03  0.00000000000E+00 0.  1.
          6    2    1    2  501    0 -0.98813131654E+02 -0.13144428911E+03  0.76716751462E+02  0.24990381495E+03  0.17182788087E+03 0.  0.
         24    2    3    3    0    0 -0.48450184112E+02 -0.15545278273E+03  0.68540359471E+02  0.19331956240E+03  0.78496396931E+02 0.  0.
         -6    2    1    2    0  502  0.98813131654E+02  0.13144428911E+03  0.26725666520E+03  0.35765517454E+03  0.17160845740E+03 0.  0.
        -24    2    5    5    0    0  0.13591399297E+03  0.96180415081E+02  0.19416487404E+03  0.26829906307E+03  0.81000637041E+02 0.  0.
          5    1    3    3  501    0 -0.50362947542E+02  0.24008493615E+02  0.81763919914E+01  0.56584252551E+02  0.47000000000E+01 0. -1.
        -11    1    4    4    0    0 -0.52432456360E+02 -0.51905579955E+02  0.47008866468E+02  0.87482485315E+02  0.00000000000E+00 0.  1.
         12    1    4    4    0    0  0.39822722479E+01 -0.10354720277E+03  0.21531493003E+02  0.10583707708E+03  0.00000000000E+00 0. -1.
         -5    1    5    5    0  502 -0.37100861316E+02  0.35263874034E+02  0.73091791163E+02  0.89356111474E+02  0.47000000000E+01 0.  1.
         11    1    6    6    0    0  0.68183562030E+02  0.16681302911E+02  0.12396706935E+03  0.14246086578E+03  0.00000000000E+00 0. -1.
        -12    1    6    6    0    0  0.67730430941E+02  0.79499112170E+02  0.70197804693E+02  0.12583819728E+03  0.00000000000E+00 0.  1.
</event>
<event>
12    1  0.8462562E-002  0.2076684E+03  0.7818608E-02  0.1143496E+00
         21   -1    0    0  501  502  0.00000000000E+00  0.00000000000E+00  0.59297920950E+03  0.59297920950E+03  0.00000000000E+00 0. -1.
         21   -1    0    0  502  503 -0.00000000000E+00 -0.00000000000E+00 -0.86733476499E+02  0.86733476499E+02  0.00000000000E+00 0. -1.
         -6    2    1    2    0  503 -0.93528997165E+02 -0.63645870178E+02  0.11613861984E+03  0.23793768220E+03  0.17414847542E+03 0.  0.
        -24    2    3    3    0    0 -0.12687085618E+03 -0.20186128627E+02  0.85938242962E+02  0.17521143999E+03  0.82522561548E+02 0.  0.
          6    2    1    2  501    0  0.93528997165E+02  0.63645870178E+02  0.39010711317E+03  0.44177500380E+03  0.17373291036E+03 0.  0.
         24    2    5    5    0    0  0.16267568298E+02 -0.22701856430E+01  0.77513102966E+02  0.11306333681E+03  0.80655126790E+02 0.  0.
          5    1    5    5  501    0  0.77261428867E+02  0.65916055821E+02  0.31259401020E+03  0.32871166700E+03  0.47000000000E+01 0. -1.
        -11    1    6    6    0    0  0.13898905308E+02 -0.41099292450E+02  0.39519261262E+02  0.58686484129E+02  0.00000000000E+00 0.  1.
         12    1    6    6    0    0  0.23686629898E+01  0.38829106807E+02  0.37993841704E+02  0.54376852679E+02  0.00000000000E+00 0. -1.
         -5    1    3    3    0  503  0.33341859012E+02 -0.43459741551E+02  0.30200376876E+02  0.62726242208E+02  0.47000000000E+01 0.  1.
         11    1    4    4    0    0 -0.27632666941E+02 -0.35479310027E+02  0.31634354119E+01  0.45081626477E+02  0.00000000000E+00 0. -1.
        -12    1    4    4    0    0 -0.99238189236E+02  0.15293181400E+02  0.82774807550E+02  0.13012981351E+03  0.00000000000E+00 0.  1.
</event>
<event>
12    1  0.8462562E-002  0.1806856E+03  0.7818608E-02  0.1167878E+00
         21   -1    0    0  503  502  0.00000000000E+00  0.00000000000E+00  0.23494198129E+03  0.23494198129E+03  0.00000000000E+00 0. -1.
         21   -1    0    0  501  503 -0.00000000000E+00 -0.00000000000E+00 -0.18289325411E+03  0.18289325411E+03  0.00000000000E+00 0.  1.
          6    2    1    2  501    0 -0.53440752660E+02 -0.12356199016E+02 -0.78874112538E+02  0.19715075090E+03  0.17215894764E+03 0.  0.
         24    2    3    3    0    0 -0.49799648709E+02 -0.30897054746E+02 -0.11677915584E+03  0.15453733427E+03  0.82521412015E+02 0.  0.
         -6    2    1    2    0  502  0.53440752660E+02  0.12356199016E+02  0.13092283972E+03  0.22068448450E+03  0.16897414607E+03 0.  0.
        -24    2    5    5    0    0  0.91254301499E+02 -0.19707206050E+02  0.11664803663E+03  0.16887921041E+03  0.78725483458E+02 0.  0.
          5    1    3    3  501    0 -0.36411039507E+01  0.18540855730E+02  0.37905043304E+02  0.42613416632E+02  0.47000000000E+01 0. -1.
        -11    1    4    4    0    0 -0.39531903371E+02 -0.37217606342E+02 -0.21337412658E+02  0.58337010421E+02  0.00000000000E+00 0.  1.
         12    1    4    4    0    0 -0.10267745338E+02  0.63205515961E+01 -0.95441743184E+02  0.96200323850E+02  0.00000000000E+00 0. -1.
         -5    1    5    5    0  502 -0.37813548840E+02  0.32063405066E+02  0.14274803086E+02  0.51805274089E+02  0.47000000000E+01 0.  1.
         11    1    6    6    0    0  0.55508043942E+02  0.36582844792E+01  0.11308351739E+03  0.12602542558E+03  0.00000000000E+00 0. -1.
        -12    1    6    6    0    0  0.35746257557E+02 -0.23365490529E+02  0.35645192488E+01  0.42853784833E+02  0.00000000000E+00 0.  1.
</event>
<event>
12    1  0.8462562E-002  0.3635884E+03  0.7818608E-02  0.1057270E+00
         21   -1    0    0  503  502  0.00000000000E+00  0.00000000000E+00  0.82545377422E+03  0.82545377422E+03  0.00000000000E+00 0.  1.
         21   -1    0    0  501  503 -0.00000000000E+00 -0.00000000000E+00 -0.17487279425E+03  0.17487279425E+03  0.00000000000E+00 0. -1.
          6    2    1    2  501    0 -0.47382470597E+02  0.31586832274E+03  0.17758873918E+03  0.40373780016E+03  0.17160581330E+03 0.  0.
         24    2    3    3    0    0  0.28194570422E+02  0.94030946377E+02  0.75791741328E+02  0.14818266040E+03  0.81098459375E+02 0.  0.
         -6    2    1    2    0  502  0.47382470597E+02 -0.31586832274E+03  0.47299224079E+03  0.59658876831E+03  0.17371989753E+03 0.  0.
        -24    2    5    5    0    0  0.41020188814E+02 -0.98864667625E+02  0.26041088996E+03  0.29270723599E+03  0.80042588658E+02 0.  0.
          5    1    3    3  501    0 -0.75577041019E+02  0.22183737636E+03  0.10179699785E+03  0.25555513975E+03  0.47000000000E+01 0. -1.
        -13    1    4    4    0    0 -0.24073830195E+02  0.46176689583E+02  0.51575761361E+02  0.73293213336E+02  0.00000000000E+00 0.  1.
         14    1    4    4    0    0  0.52268400618E+02  0.47854256794E+02  0.24215979967E+02  0.74889447069E+02  0.00000000000E+00 0. -1.
         -5    1    5    5    0  502  0.63622817831E+01 -0.21700365512E+03  0.21258135083E+03  0.30388153232E+03  0.47000000000E+01 0.  1.
         11    1    6    6    0    0  0.41385362232E+01  0.90528826513E+01  0.70384267660E+02  0.71084648838E+02  0.00000000000E+00 0. -1.
        -12    1    6    6    0    0  0.36881652590E+02 -0.10791755028E+03  0.19002662230E+03  0.22162258716E+03  0.00000000000E+00 0.  1.
</event>
<event>
12    1  0.8462562E-002  0.2315946E+03  0.7818608E-02  0.1125983E+00
         21   -1    0    0  501  502  0.00000000000E+00  0.00000000000E+00  0.68433813265E+03  0.68433813265E+03  0.00000000000E+00 0.  1.
         21   -1    0    0  502  503 -0.00000000000E+00 -0.00000000000E+00 -0.17668357724E+03  0.17668357724E+03  0.00000000000E+00 0. -1.
         -6    2    1    2    0  503 -0.85309069381E+02  0.12814484265E+03 -0.68107595216E+02  0.24140152725E+03  0.17302402958E+03 0.  0.
        -24    2    3    3    0    0 -0.53726123789E+02  0.15475053149E+03 -0.75875727759E+02  0.19911939137E+03  0.84007038881E+02 0.  0.
          6    2    1    2  501    0  0.85309069381E+02 -0.12814484265E+03  0.57576215062E+03  0.61962018264E+03  0.16949447964E+03 0.  0.
         24    2    5    5    0    0  0.73185801622E+02 -0.75308650533E+02  0.53645627785E+03  0.55249583197E+03  0.80241833796E+02 0.  0.
          5    1    5    5  501    0  0.12123267760E+02 -0.52836192119E+02  0.39305872771E+02  0.67124350672E+02  0.47000000000E+01 0. -1.
        -11    1    6    6    0    0  0.45586104997E+02 -0.23204526234E+02  0.10252674750E+03  0.11457869330E+03  0.00000000000E+00 0.  1.
         12    1    6    6    0    0  0.27599696624E+02 -0.52104124299E+02  0.43392953036E+03  0.43791713867E+03  0.00000000000E+00 0. -1.
         -5    1    3    3    0  503 -0.31582945592E+02 -0.26605688842E+02  0.77681325429E+01  0.42282135876E+02  0.47000000000E+01 0.  1.
         11    1    4    4    0    0 -0.29285353133E+02  0.99440481697E+02 -0.20413767880E+01  0.10368321237E+03  0.00000000000E+00 0. -1.
        -12    1    4    4    0    0 -0.24440770657E+02  0.55310049797E+02 -0.73834350971E+02  0.95436179000E+02  0.00000000000E+00 0.  1.
</event>
<event>
12    1  0.8462562E-002  0.2590585E+03  0.7818608E-02  0.1107843E+00
         21   -1    0    0  503  502  0.00000000000E+00  0.00000000000E+00  0.70243802758E+03  0.70243802758E+03  0.00000000000E+00 0.  1.
         21   -1    0    0  501  503 -0.00000000000E+00 -0.00000000000E+00 -0.21672249429E+03  0.21672249429E+03  0.00000000000E+00 0. -1.
          6    2    1    2  501    0 -0.49748898316E+00  0.19446376009E+03 -0.10107904500E+03  0.27807966460E+03  0.17115760293E+03 0.  0.
         24    2    3    3    0    0  0.58359081500E+02  0.10225317126E+03 -0.24247018698E+02  0.14431816473E+03  0.79864393373E+02 0.  0.
         -6    2    1    2    0  502  0.49748898316E+00 -0.19446376009E+03  0.58679457829E+03  0.64108085728E+03  0.16982457708E+03 0.  0.
        -24    2    5    5    0    0  0.17346485534E+02 -0.22749666254E+02  0.18021694522E+03  0.19938290572E+03  0.80355135939E+02 0.  0.
          5    1    3    3  501    0 -0.58856570483E+02  0.92210588827E+02 -0.76832026301E+02  0.13376149987E+03  0.47000000000E+01 0. -1.
        -13    1    4    4    0    0 -0.63740380897E+01  0.72664281716E+01  0.19150470074E+02  0.21451569732E+02  0.00000000000E+00 0.  1.
         14    1    4    4    0    0  0.64733119590E+02  0.94986743092E+02 -0.43397488771E+02  0.12286659500E+03  0.00000000000E+00 0. -1.
         -5    1    5    5    0  502 -0.16848996551E+02 -0.17171409384E+03  0.40657763306E+03  0.44169795156E+03  0.47000000000E+01 0.  1.
         13    1    6    6    0    0  0.14511110344E+02  0.21117508912E+02  0.17994716567E+02  0.31310243218E+02  0.00000000000E+00 0. -1.
        -14    1    6    6    0    0  0.28353751900E+01 -0.43867175166E+02  0.16222222865E+03  0.16807266250E+03  0.00000000000E+00 0.  1.
</event>
<event>
12    1  0.8462562E-002  0.2072420E+03  0.7818608E-02  0.1143969E+00
         21   -1    0    0  501  502  0.00000000000E+00  0.00000000000E+00  0.69212854791E+02  0.69212854791E+02  0.00000000000E+00 0. -1.
         21   -1    0    0  502  503 -0.00000000000E+00 -0.00000000000E+00 -0.77751075006E+03  0.77751075006E+03  0.00000000000E+00 0. -1.
         -6    2    1    2    0  503 -0.11295770956E+03 -0.12952058024E+02 -0.54548903211E+03  0.58317857064E+03  0.17208068208E+03 0.  0.
        -24    2    3    3    0    0 -0.11039444546E+03  0.45026697721E+02 -0.43268654732E+03  0.45623528797E+03  0.81967387776E+02 0.  0.
          6    2    1    2  501    0  0.11295770956E+03  0.12952058024E+02 -0.16280886316E+03  0.26354503421E+03  0.17326874842E+03 0.  0.
         24    2    5    5    0    0 -0.12712002315E+02  0.35705792840E+01 -0.53790598980E+02  0.96847822026E+02  0.79446384772E+02 0.  0.
          5    1    5    5  501    0  0.12566971188E+03  0.93814787400E+01 -0.10901826418E+03  0.16669721219E+03  0.47000000000E+01 0. -1.
        -13    1    6    6    0    0  0.14335279895E+02 -0.21047997535E+01  0.16119078177E+02  0.21673834754E+02  0.00000000000E+00 0.  1.
         14    1    6    6    0    0 -0.27047282210E+02  0.56753790375E+01 -0.69909677157E+02  0.75173987272E+02  0.00000000000E+00 0. -1.
         -5    1    3    3    0  503 -0.25632640996E+01 -0.57978755745E+02 -0.11280248479E+03  0.12694328267E+03  0.47000000000E+01 0.  1.
         13    1    4    4    0    0 -0.11318600148E+03  0.39526436743E+02 -0.29528298032E+03  0.31869334571E+03  0.00000000000E+00 0. -1.
        -14    1    4    4    0    0  0.27915560189E+01  0.55002609781E+01 -0.13740356701E+03  0.13754194226E+03  0.00000000000E+00 0.  1.
</event>
<event>
12    1  0.8462562E-002  0.2121425E+03  0.7818608E-02  0.1140708E+00
         21   -1    0    0  503  502  0.00000000000E+00  0.00000000000E+00  0.89482597702E+02  0.89482597702E+02  0.00000000000E+00 0.  1.
         21   -1    0    0  501  503 -0.00000000000E+00 -0.00000000000E+00 -0.20998102140E+04  0.20998102140E+04  0.00000000000E+00 0. -1.
          6    2    1    2  501    0  0.68721021285E+02 -0.10281445889E+03 -0.19603420480E+04  0.19713410109E+04  0.16718565779E+03 0.  0.
         24    2    3    3    0    0  0.83258539409E+02 -0.13106671595E+03 -0.17146792101E+04  0.17235874046E+04  0.80735862448E+02 0.  0.
         -6    2    1    2    0  502 -0.68721021285E+02  0.10281445889E+03 -0.49985568270E+02  0.21795180083E+03  0.17236890301E+03 0.  0.
        -24    2    5    5    0    0 -0.62171556655E+01  0.12321531962E+03 -0.30972492174E+02  0.14934775285E+03  0.78261024756E+02 0.  0.
          5    1    3    3  501    0 -0.14537518124E+02  0.28252257057E+02 -0.24566283792E+03  0.24775360622E+03  0.47000000000E+01 0. -1.
        -13    1    4    4    0    0 -0.12565367542E+01 -0.86263544349E+01 -0.46523392859E+03  0.46531559310E+03  0.00000000000E+00 0.  1.
         14    1    4    4    0    0  0.84515076163E+02 -0.12244036151E+03 -0.12494452815E+04  0.12582718115E+04  0.00000000000E+00 0. -1.
         -5    1    5    5    0  502 -0.62503865620E+02 -0.20400860730E+02 -0.19013076096E+02  0.68604047975E+02  0.47000000000E+01 0.  1.
         11    1    6    6    0    0  0.41586477675E+01 -0.51801851794E+01 -0.18824399303E+02  0.19962131120E+02  0.00000000000E+00 0. -1.
        -12    1    6    6    0    0 -0.10375803433E+02  0.12839550480E+03 -0.12148092871E+02  0.12938562173E+03  0.00000000000E+00 0.  1.
</event>
<event>
12    1  0.8462562E-002  0.1841189E+03  0.7818608E-02  0.1164087E+00
         21   -1    0    0  503  502  0.00000000000E+00  0.00000000000E+00  0.43891357050E+03  0.43891357050E+03  0.00000000000E+00 0.  1.
         21   -1    0    0  501  503 -0.00000000000E+00 -0.00000000000E+00 -0.16860068452E+03  0.16860068452E+03  0.00000000000E+00 0. -1.
          6    2    1    2  501    0 -0.32474261068E+02 -0.58213512297E+02 -0.89061654285E+02  0.20371996631E+03  0.17066474669E+03 0.  0.
         24    2    3    3    0    0 -0.54513806514E+02  0.47336056363E+01 -0.16801303939E+02  0.10527338459E+03  0.88351794360E+02 0.  0.
         -6    2    1    2    0  502  0.32474261068E+02  0.58213512297E+02  0.35937454026E+03  0.40379428871E+03  0.17162860125E+03 0.  0.
        -24    2    5    5    0    0  0.86444151844E+02  0.45511163253E+02  0.22646958905E+03  0.25971127501E+03  0.81348719937E+02 0.  0.
          5    1    3    3  501    0  0.22039545446E+02 -0.62947117934E+02 -0.72260350345E+02  0.98446581717E+02  0.47000000000E+01 0. -1.
        -13    1    4    4    0    0  0.14619498588E+02  0.19101528221E+02  0.14445139993E+02  0.28058157259E+02  0.00000000000E+00 0.  1.
         14    1    4    4    0    0 -0.69133305102E+02 -0.14367922585E+02 -0.31246443932E+02  0.77215227334E+02  0.00000000000E+00 0. -1.
         -5    1    5    5    0  502 -0.53969890776E+02  0.12702349044E+02  0.13290495121E+03  0.14408301370E+03  0.47000000000E+01 0.  1.
         11    1    6    6    0    0  0.29156360737E+02  0.59240325218E+02  0.95495934221E+02  0.11609902220E+03  0.00000000000E+00 0. -1.
        -12    1    6    6    0    0  0.57287791107E+02 -0.13729161965E+02  0.13097365483E+03  0.14361225281E+03  0.00000000000E+00 0.  1.
</event>
<event>
12    1  0.8462562E-002  0.2378692E+03  0.7818608E-02  0.1121691E+00
         21   -1    0    0  501  502  0.00000000000E+00  0.00000000000E+00  0.82385099304E+02  0.82385099304E+02  0.00000000000E+00 0.  1.
         21   -1    0    0  502  503 -0.00000000000E+00 -0.00000000000E+00 -0.97424559635E+03  0.97424559635E+03  0.00000000000E+00 0. -1.
         -6    2    1    2    0  503  0.14496592529E+02  0.15964105159E+03 -0.15317674440E+03  0.28059239954E+03  0.17196965751E+03 0.  0.
        -24    2    3    3    0    0 -0.38980797683E+02  0.75488477997E+02 -0.13735799757E+03  0.17952900528E+03  0.78392801603E+02 0.  0.
          6    2    1    2  501    0 -0.14496592529E+02 -0.15964105159E+03 -0.73868375265E+03  0.77603829612E+03  0.17574508263E+03 0.  0.
         24    2    5    5    0    0  0.22882659659E+01 -0.42512991374E+02 -0.51411059180E+03  0.52215661395E+03  0.80778947124E+02 0.  0.
          5    1    5    5  501    0 -0.16784858495E+02 -0.11712806022E+03 -0.22457316085E+03  0.25388168217E+03  0.47000000000E+01 0. -1.
        -11    1    6    6    0    0 -0.26049845100E+02 -0.10853891217E+02 -0.38910986096E+03  0.39013188190E+03  0.00000000000E+00 0.  1.
         12    1    6    6    0    0  0.28338111065E+02 -0.31659100157E+02 -0.12500073084E+03  0.13202473205E+03  0.00000000000E+00 0. -1.
         -5    1    3    3    0  503  0.53477390212E+02  0.84152573598E+02 -0.15818746832E+02  0.10106339425E+03  0.47000000000E+01 0.  1.
         11    1    4    4    0    0 -0.96354584851E+01  0.32982944909E+02 -0.12033481000E+03  0.12514464916E+03  0.00000000000E+00 0. -1.
        -12    1    4    4    0    0 -0.29345339198E+02  0.42505533088E+02 -0.17023187564E+02  0.54384356120E+02  0.00000000000E+00 0.  1.
</event>
<event>
12    1  0.8462562E-002  0.1851480E+03  0.7818608E-02  0.1163801E+00
         21   -1    0    0  503  502  0.00000000000E+00  0.00000000000E+00  0.31616457700E+03  0.31616457700E+03  0.00000000000E+00 0.  1.
         21   -1    0    0  501  503 -0.00000000000E+00 -0.00000000000E+00 -0.36026474005E+03  0.36026474005E+03  0.00000000000E+00 0. -1.
          6    2    1    2  501    0 -0.60658053391E+02 -0.98156113484E+01 -0.30598745277E+03  0.35570398506E+03  0.17064951821E+03 0.  0.
         24    2    3    3    0    0 -0.20610012439E+02 -0.64876199890E+02 -0.22935929449E+03  0.25309073720E+03  0.82556292074E+02 0.  0.
         -6    2    1    2    0  502  0.60658053391E+02  0.98156113484E+01  0.26188728972E+03  0.32072533199E+03  0.17465405919E+03 0.  0.
        -24    2    5    5    0    0 -0.10429332125E+02  0.14227200708E+01  0.41407140452E+02  0.88868817681E+02  0.77925094640E+02 0.  0.
          5    1    3    3  501    0 -0.40048040952E+02  0.55060588542E+02 -0.76628158279E+02  0.10261324786E+03  0.47000000000E+01 0. -1.
        -13    1    4    4    0    0 -0.48029126843E+02 -0.15930336702E+02 -0.99401198787E+02  0.11153999719E+03  0.00000000000E+00 0.  1.
         14    1    4    4    0    0  0.27419114404E+02 -0.48945863188E+02 -0.12995809571E+03  0.14155074001E+03  0.00000000000E+00 0. -1.
         -5    1    5    5    0  502  0.71087385516E+02  0.83928912776E+01  0.22048014927E+03  0.23185651431E+03  0.47000000000E+01 0.  1.
         11    1    6    6    0    0 -0.22996081222E+02 -0.32094915070E+02  0.88083231811E+01  0.40453552157E+02  0.00000000000E+00 0. -1.
        -12    1    6    6    0    0  0.12566749096E+02  0.33517635141E+02  0.32598817271E+02  0.48415265524E+02  0.00000000000E+00 0.  1.
</event>
<event>
12    1  0.8462562E-002  0.1856700E+03  0.7818608E-02  0.1162804E+00
         21   -1    0    0  501  502  0.00000000000E+00  0.00000000000E+00  0.46141202251E+02  0.46141202251E+02  0.00000000000E+00 0. -1.
         21   -1    0    0  502  503 -0.00000000000E+00 -0.00000000000E+00 -0.16008540991E+04  0.16008540991E+04  0.00000000000E+00 0. -1.
         -6    2    1    2    0  503 -0.33748336671E+02  0.60020350340E+02 -0.13794403582E+04  0.13916644988E+04  0.17068386752E+03 0.  0.
        -24    2    3    3    0    0 -0.47713280256E+02  0.10442640902E+03 -0.93925797883E+03  0.94900262465E+03  0.72242638219E+02 0.  0.
          6    2    1    2  501    0  0.33748336671E+02 -0.60020350340E+02 -0.17527253863E+03  0.25533080256E+03  0.17242958927E+03 0.  0.
         24    2    5    5    0    0 -0.37248996547E+02 -0.29760138854E+02 -0.14256857021E+03  0.17137878487E+03  0.82290564976E+02 0.  0.
          5    1    5    5  501    0  0.70997333218E+02 -0.30260211486E+02 -0.32703968419E+02  0.83952017686E+02  0.47000000000E+01 0. -1.
        -11    1    6    6    0    0 -0.18644097371E+02  0.21620196356E+02 -0.14246498196E+02  0.31906080425E+02  0.00000000000E+00 0.  1.
         12    1    6    6    0    0 -0.18604899177E+02 -0.51380335210E+02 -0.12832207201E+03  0.13947270444E+03  0.00000000000E+00 0. -1.
         -5    1    3    3    0  503  0.13964943585E+02 -0.44406058684E+02 -0.44018237940E+03  0.44266187415E+03  0.47000000000E+01 0.  1.
         13    1    4    4    0    0 -0.44946090652E+02  0.85961396119E+02 -0.49854487931E+03  0.50789419113E+03  0.00000000000E+00 0. -1.
        -14    1    4    4    0    0 -0.27671896038E+01  0.18465012905E+02 -0.44071309952E+03  0.44110843352E+03  0.00000000000E+00 0.  1.
</event>
<event>
12    1  0.8462562E-002  0.2163758E+03  0.7818608E-02  0.1136890E+00
         21   -1    0    0  501  502  0.00000000000E+00  0.00000000000E+00  0.52711556221E+03  0.52711556221E+03  0.00000000000E+00 0. -1.
         21   -1    0    0  502  503 -0.00000000000E+00 -0.00000000000E+00 -0.10984387997E+03  0.10984387997E+03  0.00000000000E+00 0. -1.
         -6    2    1    2    0  503  0.11599853298E+02  0.12825682617E+03  0.66800218629E+02  0.22507504973E+03  0.17208177924E+03 0.  0.
        -24    2    3    3    0    0 -0.46138282445E+02  0.67890354159E+02  0.82550027663E+02  0.13994015825E+03  0.77658866397E+02 0.  0.
          6    2    1    2  501    0 -0.11599853298E+02 -0.12825682617E+03  0.35047146361E+03  0.41188439245E+03  0.17387965921E+03 0.  0.
         24    2    5    5    0    0 -0.48831668183E+01 -0.16175901546E+03  0.27608970600E+03  0.32989508565E+03  0.80096300622E+02 0.  0.
          5    1    5    5  501    0 -0.67166864796E+01  0.33502189298E+02  0.74381757609E+02  0.81989306803E+02  0.47000000000E+01 0. -1.
        -11    1    6    6    0    0  0.22507988051E+02 -0.47434230120E+02  0.39484498207E+02  0.65693540868E+02  0.00000000000E+00 0.  1.
         12    1    6    6    0    0 -0.27391154869E+02 -0.11432478534E+03  0.23660520779E+03  0.26420154478E+03  0.00000000000E+00 0. -1.
         -5    1    3    3    0  503  0.57738135743E+02  0.60366472007E+02 -0.15749809034E+02  0.85134891474E+02  0.47000000000E+01 0.  1.
         13    1    4    4    0    0 -0.51317595047E+01 -0.54817795267E+01 -0.11543722196E+02  0.13771070566E+02  0.00000000000E+00 0. -1.
        -14    1    4    4    0    0 -0.41006522941E+02  0.73372133685E+02  0.94093749859E+02  0.12616908769E+03  0.00000000000E+00 0.  1.
</event>
<event>
12    1  0.8462562E-002  0.2277730E+03  0.7818608E-02  0.1128259E+00
         21   -1    0    0  503  502  0.00000000000E+00  0.00000000000E+00  0.14686197568E+03  0.14686197568E+03  0.00000000000E+00 0. -1.
         21   -1    0    0  501  503 -0.00000000000E+00 -0.00000000000E+00 -0.74073994995E+03  0.74073994995E+03  0.00000000000E+00 0.  1.
          6    2    1    2  501    0 -0.14384037629E+03 -0.39166921124E+02 -0.61814650178E+03  0.65877585962E+03  0.17221043522E+03 0.  0.
         24    2    3    3    0    0 -0.52484833037E+02  0.34887199241E+02 -0.37349657787E+03  0.38728824794E+03  0.80750968694E+02 0.  0.
         -6    2    1    2    0  502  0.14384037629E+03  0.39166921124E+02  0.24268527507E+02  0.22882606601E+03  0.17189620559E+03 0.  0.
        -24    2    5    5    0    0  0.16882272315E+03  0.30274095640E+02 -0.50290373757E+01  0.18903112528E+03  0.79308526599E+02 0.  0.
          5    1    3    3  501    0 -0.91355543258E+02 -0.74054120365E+02 -0.24464992391E+03  0.27148761168E+03  0.47000000000E+01 0. -1.
        -13    1    4    4    0    0 -0.73321900871E+02  0.22129910678E+02 -0.25294911304E+03  0.26428978013E+03  0.00000000000E+00 0.  1.
         14    1    4    4    0    0  0.20837067834E+02  0.12757288563E+02 -0.12054746483E+03  0.12299846781E+03  0.00000000000E+00 0. -1.
         -5    1    5    5    0  502 -0.24982346853E+02  0.88928254845E+01  0.29297564883E+02  0.39794940727E+02  0.47000000000E+01 0.  1.
         11    1    6    6    0    0  0.88143672808E+02 -0.13741872979E+02  0.24477665040E+02  0.92505687473E+02  0.00000000000E+00 0. -1.
        -12    1    6    6    0    0  0.80679050340E+02  0.44015968618E+02 -0.29506702415E+02  0.96525437811E+02  0.00000000000E+00 0.  1.
</event>
<event>
12    1  0.8462562E-002  0.2189783E+03  0.7818608E-02  0.1134839E+00
         21   -1    0    0  503  502  0.00000000000E+00  0.00000000000E+00  0.38915888287E+03  0.38915888287E+03  0.00000000000E+00 0.  1.
         21   -1    0    0  501  503 -0.00000000000E+00 -0.00000000000E+00 -0.22707178918E+03  0.22707178918E+03  0.00000000000E+00 0. -1.
          6    2    1    2  501    0  0.12434264708E+03  0.53279744513E+02 -0.12800532262E+03  0.25276803555E+03  0.17089906997E+03 0.  0.
         24    2    3    3    0    0  0.54555082783E+02  0.53964453257E+02 -0.22397074484E+02  0.12609536671E+03  0.97519194456E+02 0.  0.
         -6    2    1    2    0  502 -0.12434264708E+03 -0.53279744513E+02  0.29009241631E+03  0.36346263651E+03  0.17219655362E+03 0.  0.
        -24    2    5    5    0    0 -0.14863098784E+03 -0.73663113728E+02  0.22531793221E+03  0.29119072615E+03  0.80662528763E+02 0.  0.
          5    1    3    3  501    0  0.69787564302E+02 -0.68470874410E+00 -0.10560824813E+03  0.12667266884E+03  0.47000000000E+01 0. -1.
        -11    1    4    4    0    0  0.77179549334E+02  0.37541287128E+02  0.62683904144E+01  0.86054191025E+02  0.00000000000E+00 0.  1.
         12    1    4    4    0    0 -0.22624466550E+02  0.16423166129E+02 -0.28665464898E+02  0.40041175685E+02  0.00000000000E+00 0. -1.
         -5    1    5    5    0  502  0.24288340759E+02  0.20383369215E+02  0.64774484095E+02  0.72271910361E+02  0.47000000000E+01 0.  1.
         13    1    6    6    0    0 -0.86580016089E+02 -0.55217678386E+02  0.73901681825E+02  0.12651699399E+03  0.00000000000E+00 0. -1.
        -14    1    6    6    0    0 -0.62050971755E+02 -0.18445435342E+02  0.15141625039E+03  0.16467373215E+03  0.00000000000E+00 0.  1.
</event>
<event>
12    1  0.8462562E-002  0.1777962E+03  0.7818608E-02  0.1170356E+00
         21   -1    0    0  503  502  0.00000000000E+00  0.00000000000E+00  0.19051718300E+03  0.19051718300E+03  0.00000000000E+00 0.  1.
         21   -1    0    0  501  503 -0.00000000000E+00 -0.00000000000E+00 -0.20663785521E+03  0.20663785521E+03  0.00000000000E+00 0.  1.
          6    2    1    2  501    0 -0.24011197786E+02 -0.38881508134E+02 -0.97803230288E+02  0.20149324670E+03  0.17013449773E+03 0.  0.
         24    2    3    3    0    0 -0.41433171570E+02 -0.83804412208E+02 -0.90836146313E+02  0.15258289258E+03  0.79312334603E+02 0.  0.
         -6    2    1    2    0  502  0.24011197786E+02  0.38881508134E+02  0.81682558084E+02  0.19566179151E+03  0.17182312728E+03 0.  0.
        -24    2    5    5    0    0  0.81476823753E+02  0.27285564877E+02  0.40270995041E+02  0.12373285699E+03  0.79404609417E+02 0.  0.
          5    1    3    3  501    0  0.17421973784E+02  0.44922904073E+02 -0.69670839757E+01  0.48910354119E+02  0.47000000000E+01 0. -1.
        -13    1    4    4    0    0  0.15066667735E+02 -0.11484443403E+02 -0.47406942005E+02  0.51052081909E+02  0.00000000000E+00 0.  1.
         14    1    4    4    0    0 -0.56499839305E+02 -0.72319968805E+02 -0.43429204307E+02  0.10153081067E+03  0.00000000000E+00 0. -1.
         -5    1    5    5    0  502 -0.57465625967E+02  0.11595943258E+02  0.41411563043E+02  0.71928934522E+02  0.47000000000E+01 0.  1.
         11    1    6    6    0    0  0.33249897009E+02 -0.22074650560E+02 -0.64043622975E+01  0.40421055218E+02  0.00000000000E+00 0. -1.
        -12    1    6    6    0    0  0.48226926743E+02  0.49360215437E+02  0.46675357338E+02  0.83311801768E+02  0.00000000000E+00 0.  1.
</event>
<event>
12    1  0.8462562E-002  0.1745680E+03  0.7818608E-02  0.1173196E+00
         21   -1    0    0  501  502  0.00000000000E+00  0.00000000000E+00  0.47365253249E+03  0.47365253249E+03  0.00000000000E+00 0.  1.
         21   -1    0    0  502  503 -0.00000000000E+00 -0.00000000000E+00 -0.71471111328E+02  0.71471111328E+02  0.00000000000E+00 0.  1.
         -6    2    1    2    0  503  0.18989588477E+01  0.30193502147E+02  0.11478530040E+03  0.20892502845E+03  0.17192657941E+03 0.  0.
        -24    2    3    3    0    0  0.63162358789E+02  0.28018193180E+02  0.72684187933E+02  0.13440972926E+03  0.89490119164E+02 0.  0.
          6    2    1    2  501    0 -0.18989588477E+01 -0.30193502147E+02  0.28739612076E+03  0.33619861537E+03  0.17180723248E+03 0.  0.
         24    2    5    5    0    0 -0.47404642237E+02 -0.30225185353E+02  0.27042529848E+03  0.28740448629E+03  0.79440133083E+02 0.  0.
          5    1    5    5  501    0  0.45505683389E+02  0.31683205781E-01  0.16970822284E+02  0.48794129089E+02  0.47000000000E+01 0. -1.
        -13    1    6    6    0    0 -0.36351480603E+02 -0.26423942031E+02  0.52257829133E+02  0.68924129013E+02  0.00000000000E+00 0.  1.
         14    1    6    6    0    0 -0.11053161633E+02 -0.38012433220E+01  0.21816746935E+03  0.21848035727E+03  0.00000000000E+00 0. -1.
         -5    1    3    3    0  503 -0.61263399941E+02  0.21753089670E+01  0.42101112468E+02  0.74515299184E+02  0.47000000000E+01 0.  1.
         11    1    4    4    0    0 -0.20755171399E+01 -0.27355560267E+02  0.19504793148E+02  0.33661126016E+02  0.00000000000E+00 0. -1.
        -12    1    4    4    0    0  0.65237875929E+02  0.55373753447E+02  0.53179394785E+02  0.10074860325E+03  0.00000000000E+00 0.  1.
</event>
<event>
12    1  0.8462562E-002  0.1761947E+03  0.7818608E-02  0.1171613E+00
         21   -1    0    0  503  502  0.00000000000E+00  0.00000000000E+00  0.43146368874E+03  0.43146368874E+03  0.00000000000E+00 0.  1.
         21   -1    0    0  501  503 -0.00000000000E+00 -0.00000000000E+00 -0.81330102757E+02  0.81330102757E+02  0.00000000000E+00 0.  1.
          6    2    1    2  501    0 -0.83643699456E+01  0.34035191396E+02  0.87298884433E+02  0.19636581260E+03  0.17236612253E+03 0.  0.
         24    2    3    3    0    0 -0.39575438267E+02  0.11265292985E+02 -0.10167939597E+02  0.91415963406E+02  0.80996106262E+02 0.  0.
         -6    2    1    2    0  502  0.83643699456E+01 -0.34035191396E+02  0.26283470155E+03  0.31642797890E+03  0.17267376336E+03 0.  0.
        -24    2    5    5    0    0  0.65617300240E+02 -0.29334513253E+02  0.12983183580E+03  0.17147334220E+03  0.85910754506E+02 0.  0.
          5    1    3    3  501    0  0.31211068322E+02  0.22769898411E+02  0.97466824030E+02  0.10494984919E+03  0.47000000000E+01 0. -1.
        -13    1    4    4    0    0 -0.22788509941E+02  0.13369082960E+02  0.34613810141E+02  0.43544970054E+02  0.00000000000E+00 0.  1.
         14    1    4    4    0    0 -0.16786928326E+02 -0.21037899750E+01 -0.44781749738E+02  0.47870993352E+02  0.00000000000E+00 0. -1.
         -5    1    5    5    0  502 -0.57252930294E+02 -0.47006781429E+01  0.13300286575E+03  0.14495463669E+03  0.47000000000E+01 0.  1.
         11    1    6    6    0    0  0.22127990816E+01  0.24267870269E+02  0.53078720403E+02  0.58405278587E+02  0.00000000000E+00 0. -1.
        -12    1    6    6    0    0  0.63404501158E+02 -0.53602383522E+02  0.76753115401E+02  0.11306806362E+03  0.00000000000E+00 0.  1.
</event>
<event>
12    1  0.8462562E-002  0.1824900E+03  0.7818608E-02  0.1165968E+00
         21   -1    0    0  501  502  0.00000000000E+00  0.00000000000E+00  0.14135295782E+03  0.14135295782E+03  0.00000000000E+00 0. -1.
         21   -1    0    0  502  503 -0.00000000000E+00 -0.00000000000E+00 -0.39271214939E+03  0.39271214939E+03  0.00000000000E+00 0. -1.
         -6    2    1    2    0  503  0.30248201189E+02 -0.51783207799E+02 -0.29569552430E+03  0.34626655366E+03  0.16990652963E+03 0.  0.
        -24    2    3    3    0    0  0.64940601276E+02 -0.45092577772E+02 -0.11155595877E+03  0.15870910447E+03  0.80580553736E+02 0.  0.
          6    2    1    2  501    0 -0.30248201189E+02  0.51783207799E+02  0.44336332736E+02  0.18779855354E+03  0.17235466929E+03 0.  0.
         24    2    5    5    0    0 -0.16271433179E+02  0.80828147566E+02 -0.18518999174E+02  0.11700419417E+03  0.80926381022E+02 0.  0.
          5    1    5    5  501    0 -0.13976768010E+02 -0.29044939768E+02  0.62855331910E+02  0.70794359378E+02  0.47000000000E+01 0. -1.
        -13    1    6    6    0    0 -0.40147621238E+02  0.69259381253E+02 -0.33218759908E+02  0.86672829609E+02  0.00000000000E+00 0.  1.
         14    1    6    6    0    0  0.23876188059E+02  0.11568766314E+02  0.14699760734E+02  0.30331364557E+02  0.00000000000E+00 0. -1.
         -5    1    3    3    0  503 -0.34692400087E+02 -0.66906300270E+01 -0.18413956553E+03  0.18755744919E+03  0.47000000000E+01 0.  1.
         13    1    4    4    0    0 -0.14427600797E+01 -0.16282353391E+02 -0.76633850618E+02  0.78357792524E+02  0.00000000000E+00 0. -1.
        -14    1    4    4    0    0  0.66383361356E+02 -0.28810224380E+02 -0.34922108151E+02  0.80351311946E+02  0.00000000000E+00 0.  1.
</event>
<event>
12    1  0.8462562E-002  0.1908442E+03  0.7818608E-02  0.1157776E+00
         21   -1    0    0  501  502  0.00000000000E+00  0.00000000000E+00  0.21802345591E+03  0.21802345591E+03  0.00000000000E+00 0. -1.
         21   -1    0    0  502  503 -0.00000000000E+00 -0.00000000000E+00 -0.20900046196E+03  0.20900046196E+03  0.00000000000E+00 0.  1.
         -6    2    1    2    0  503 -0.50103618336E+02 -0.66296749605E+02 -0.91472894953E+02  0.21133675738E+03  0.17143600244E+03 0.  0.
        -24    2    3    3    0    0 -0.18740994609E+02 -0.83577208851E+02  0.14051064193E+01  0.11168415291E+03  0.71658921076E+02 0.  0.
          6    2    1    2  501    0  0.50103618336E+02  0.66296749605E+02  0.10049588890E+03  0.21568716049E+03  0.17180190900E+03 0.  0.
         24    2    5    5    0    0  0.84124842495E+02  0.23501089082E+01  0.55515776785E+02  0.13029443811E+03  0.82535610458E+02 0.  0.
          5    1    5    5  501    0 -0.34021224158E+02  0.63946640697E+02  0.44980112120E+02  0.85392722383E+02  0.47000000000E+01 0. -1.
        -13    1    6    6    0    0  0.68782423104E+02  0.28964316770E+02  0.64118572522E+02  0.98392808255E+02  0.00000000000E+00 0.  1.
         14    1    6    6    0    0  0.15342419391E+02 -0.26614207862E+02 -0.86027957373E+01  0.31901629855E+02  0.00000000000E+00 0. -1.
         -5    1    3    3    0  503 -0.31362623727E+02  0.17280459245E+02 -0.92878001372E+02  0.99652604470E+02  0.47000000000E+01 0.  1.
         11    1    4    4    0    0 -0.16413985627E+02 -0.50604590525E+02 -0.34087045932E+02  0.63183622931E+02  0.00000000000E+00 0. -1.
        -12    1    4    4    0    0 -0.23270089829E+01 -0.32972618326E+02  0.35492152351E+02  0.48500529983E+02  0.00000000000E+00 0.  1.
</event>
<event>
12    1  0.8462562E-002  0.2401435E+03  0.7818608E-02  0.1121862E+00
         21   -1    0    0  503  502  0.00000000000E+00  0.00000000000E+00  0.55507155160E+03  0.55507155160E+03  0.00000000000E+00 0. -1.
         21   -1    0    0  501  503 -0.00000000000E+00 -0.00000000000E+00 -0.10310146108E+03  0.10310146108E+03  0.00000000000E+00 0. -1.
          6    2    1    2  501    0 -0.43474177339E+02  0.14297495768E+03  0.16231011957E+03  0.28985076487E+03  0.18798151069E+03 0.  0.
         24    2    3    3    0    0  0.33492002651E+02  0.11442225943E+03  0.55824034716E+02  0.15531294228E+03  0.82411282556E+02 0.  0.
         -6    2    1    2    0  502  0.43474177339E+02 -0.14297495768E+03  0.28965997095E+03  0.36832224781E+03  0.17154164753E+03 0.  0.
        -24    2    5    5    0    0  0.22876144874E+02 -0.16571272673E+03  0.19492740174E+03  0.26863456175E+03  0.78637205022E+02 0.  0.
          5    1    3    3  501    0 -0.76966179990E+02  0.28552698254E+02  0.10648608485E+03  0.13453782259E+03  0.47000000000E+01 0. -1.
        -13    1    4    4    0    0  0.33783218935E+02  0.61409481542E+01  0.20086480372E+01  0.34395519952E+02  0.00000000000E+00 0.  1.
         14    1    4    4    0    0 -0.29121628442E+00  0.10828131128E+03  0.53815386678E+02  0.12091742233E+03  0.00000000000E+00 0. -1.
         -5    1    5    5    0  502  0.20598032465E+02  0.22737769043E+02  0.94732569210E+02  0.99687686058E+02  0.47000000000E+01 0.  1.
         11    1    6    6    0    0 -0.13322274586E+02 -0.17093268588E+02  0.10731572908E+01  0.21698260247E+02  0.00000000000E+00 0. -1.
        -12    1    6    6    0    0  0.36198419460E+02 -0.14861945814E+03  0.19385424445E+03  0.24693630151E+03  0.00000000000E+00 0.  1.
</event>
<event>
12    1  0.8462562E-002  0.1945775E+03  0.7818608E-02  0.1154654E+00
         21   -1    0    0  503  502  0.00000000000E+00  0.00000000000E+00  0.36946801056E+03  0.36946801056E+03  0.00000000000E+00 0.  1.
         21   -1    0    0  501  503 -0.00000000000E+00 -0.00000000000E+00 -0.18664823196E+03  0.18664823196E+03  0.00000000000E+00 0.  1.
          6    2    1    2  501    0 -0.29769757507E+02  0.86973891588E+02 -0.95853153824E+02  0.21690602877E+03  0.17149257108E+03 0.  0.
         24    2    3    3    0    0 -0.37860590586E+02  0.12331666907E+03 -0.95360209738E+02  0.17937481444E+03  0.80257892213E+02 0.  0.
         -6    2    1    2    0  502  0.29769757507E+02 -0.86973891588E+02  0.27867293242E+03  0.33921021375E+03  0.17015954152E+03 0.  0.
        -24    2    5    5    0    0 -0.10974828451E+02 -0.11627162405E+03  0.18887535271E+03  0.23623364490E+03  0.80578525048E+02 0.  0.
          5    1    3    3  501    0  0.80908330784E+01 -0.36342777484E+02 -0.49294408687E+00  0.37531214329E+02  0.47000000000E+01 0. -1.
        -11    1    4    4    0    0 -0.38102905132E+02  0.16614501298E+02 -0.45400623570E+02  0.61555581822E+02  0.00000000000E+00 0.  1.
         12    1    4    4    0    0  0.24231454625E+00  0.10670216777E+03 -0.49959586168E+02  0.11781923261E+03  0.00000000000E+00 0. -1.
         -5    1    5    5    0  502  0.40744585959E+02  0.29297732465E+02  0.89797579709E+02  0.10297656886E+03  0.47000000000E+01 0.  1.
         13    1    6    6    0    0 -0.25244628750E+02 -0.14117525984E+02  0.11658666071E+02  0.31185257979E+02  0.00000000000E+00 0. -1.
        -14    1    6    6    0    0  0.14269800299E+02 -0.10215409807E+03  0.17721668664E+03  0.20504838692E+03  0.00000000000E+00 0.  1.
</event>
<event>
12    1  0.8462562E-002  0.2219709E+03  0.7818608E-02  0.1132657E+00
         21   -1    0    0  503  502  0.00000000000E+00  0.00000000000E+00  0.53883180697E+03  0.53883180697E+03  0.00000000000E+00 0.  1.
         21   -1    0    0  501  503 -0.00000000000E+00 -0.00000000000E+00 -0.63100299608E+03  0.63100299608E+03  0.00000000000E+00 0. -1.
          6    2    1    2  501    0 -0.11906621977E+03  0.71483623235E+02 -0.58724456244E+03  0.62779555943E+03  0.17316008559E+03 0.  0.
         24    2    3    3    0    0 -0.69682905965E+02  0.11233792430E+03 -0.46139015922E+03  0.48648311692E+03  0.79431904184E+02 0.  0.
         -6    2    1    2    0  502  0.11906621977E+03 -0.71483623235E+02  0.49507337333E+03  0.54203924362E+03  0.17152907499E+03 0.  0.
        -24    2    5    5    0    0 -0.16416852322E+01 -0.57025239101E+02  0.22968209444E+03  0.25009050820E+03  0.80850632420E+02 0.  0.
          5    1    3    3  501    0 -0.49383313808E+02 -0.40854301066E+02 -0.12585440322E+03  0.14131244251E+03  0.47000000000E+01 0. -1.
        -11    1    4    4    0    0 -0.12133431443E+02  0.31988196580E+02 -0.25900583173E+03  0.26125559467E+03  0.00000000000E+00 0.  1.
         12    1    4    4    0    0 -0.57549474523E+02  0.80349727720E+02 -0.20238432749E+03  0.22522752225E+03  0.00000000000E+00 0. -1.
         -5    1    5    5    0  502  0.12070790501E+03 -0.14458384134E+02  0.26539127889E+03  0.29194873542E+03  0.47000000000E+01 0.  1.
         13    1    6    6    0    0 -0.28856406597E+02  0.35791978394E+01  0.10325601165E+03  0.10727211567E+03  0.00000000000E+00 0. -1.
        -14    1    6    6    0    0  0.27214721365E+02 -0.60604436941E+02  0.12642608279E+03  0.14281839253E+03  0.00000000000E+00 0.  1.
</event>
<event>
12    1  0.8462562E-002  0.1856154E+03  0.7818608E-02  0.1163592E+00
         21   -1    0    0  501  502  0.00000000000E+00  0.00000000000E+00  0.87775272933E+02  0.87775272933E+02  0.00000000000E+00 0.  1.
         21   -1    0    0  502  503 -0.00000000000E+00 -0.00000000000E+00 -0.70877001696E+03  0.70877001696E+03  0.00000000000E+00 0. -1.
         -6    2    1    2    0  503 -0.38554850757E+02 -0.42307459941E+02 -0.58283778715E+03  0.61168044045E+03  0.17656918592E+03 0.  0.
        -24    2    3    3    0    0 -0.51803677026E+02 -0.67109073608E+02 -0.56726933724E+03  0.57919785942E+03  0.80550671435E+02 0.  0.
          6    2    1    2  501    0  0.38554850757E+02  0.42307459941E+02 -0.38156956872E+02  0.18486484944E+03  0.17158864041E+03 0.  0.
         24    2    5    5    0    0  0.81573336033E+02  0.42123843196E+02  0.98925448383E+01  0.12020057487E+03  0.76952507685E+02 0.  0.
          5    1    5    5  501    0 -0.43018485275E+02  0.18361674525E+00 -0.48049501710E+02  0.64664274566E+02  0.47000000000E+01 0. -1.
        -13    1    6    6    0    0  0.48728909512E+02  0.63173241289E+02 -0.66692058775E+00  0.79786025219E+02  0.00000000000E+00 0.  1.
         14    1    6    6    0    0  0.32844426521E+02 -0.21049398093E+02  0.10559465426E+02  0.40414549653E+02  0.00000000000E+00 0. -1.
         -5    1    3    3    0  503  0.13248826268E+02  0.24801613667E+02 -0.15568449913E+02  0.32482581034E+02  0.47000000000E+01 0.  1.
         11    1    4    4    0    0 -0.41120135314E+02 -0.15519863861E+02 -0.10349679903E+03  0.11244251470E+03  0.00000000000E+00 0. -1.
        -12    1    4    4    0    0 -0.10683541712E+02 -0.51589209747E+02 -0.46377253821E+03  0.46675534472E+03  0.00000000000E+00 0.  1.
</event>
<event>
12    1  0.8462562E-002  0.2609965E+03  0.7818608E-02  0.1106560E+00
         21   -1    0    0  503  502  0.00000000000E+00  0.00000000000E+00  0.18279447018E+03  0.18279447018E+03  0.00000000000E+00 0.  1.
         21   -1    0    0  501  503 -0.00000000000E+00 -0.00000000000E+00 -0.43987540777E+03  0.43987540777E+03  0.00000000000E+00 0.  1.
          6    2    1    2  501    0  0.18546124731E+03  0.63899610059E+02 -0.66968798369E+01  0.26099137247E+03  0.17202503854E+03 0.  0.
         24    2    3    3    0    0  0.10219770696E+03  0.49417313081E+02 -0.58501261530E+02  0.16175257945E+03  0.99272640833E+02 0.  0.
         -6    2    1    2    0  502 -0.18546124731E+03 -0.63899610059E+02 -0.25038405776E+03  0.36167850549E+03  0.17216309284E+03 0.  0.
        -24    2    5    5    0    0 -0.18521199876E+03 -0.66476182177E+01 -0.17016351947E+03  0.26301099586E+03  0.76625617573E+02 0.  0.
          5    1    3    3  501    0  0.83263540348E+02  0.14482296978E+02  0.51804381693E+02  0.99238793018E+02  0.47000000000E+01 0. -1.
        -11    1    4    4    0    0  0.81404748422E+02  0.71765233951E+01  0.59497381327E+01  0.81936774025E+02  0.00000000000E+00 0.  1.
         12    1    4    4    0    0  0.20792958538E+02  0.42240789686E+02 -0.64450999663E+02  0.79815805424E+02  0.00000000000E+00 0. -1.
         -5    1    5    5    0  502 -0.24924854453E+00 -0.57251991842E+02 -0.80220538282E+02  0.98667509632E+02  0.47000000000E+01 0.  1.
         13    1    6    6    0    0 -0.13150705098E+03  0.30266412337E+02 -0.12272835402E+03  0.18240726152E+03  0.00000000000E+00 0. -1.
        -14    1    6    6    0    0 -0.53704947784E+02 -0.36914030555E+02 -0.47435165454E+02  0.80603734342E+02  0.00000000000E+00 0.  1.
</event>
<event>
12    1  0.8462562E-002  0.3123179E+03  0.7818608E-02  0.1079265E+00
         21   -1    0    0  503  502  0.00000000000E+00  0.00000000000E+00  0.11965542810E+03  0.11965542810E+03  0.00000000000E+00 0. -1.
         21   -1    0    0  501  503 -0.00000000000E+00 -0.00000000000E+00 -0.84603429974E+03  0.84603429974E+03  0.00000000000E+00 0. -1.
          6    2    1    2  501    0 -0.16943827112E+03 -0.19871252493E+03 -0.45607998960E+03  0.55264743478E+03  0.17092172176E+03 0.  0.
         24    2    3    3    0    0 -0.70184303760E+02 -0.18173159338E+03 -0.32614454277E+03  0.38819375614E+03  0.79824313363E+02 0.  0.
         -6    2    1    2    0  502  0.16943827112E+03  0.19871252493E+03 -0.27029888204E+03  0.41304229306E+03  0.17130807027E+03 0.  0.
        -24    2    5    5    0    0  0.11585274164E+03  0.14819404097E+03 -0.10197636113E+03  0.22925413448E+03  0.82310074841E+02 0.  0.
          5    1    3    3  501    0 -0.99253967360E+02 -0.16980931551E+02 -0.12993544684E+03  0.16445367864E+03  0.47000000000E+01 0. -1.
        -11    1    4    4    0    0 -0.77837948526E+01 -0.57054451500E+02 -0.40683644521E+02  0.70505012799E+02  0.00000000000E+00 0.  1.
         12    1    4    4    0    0 -0.62400508907E+02 -0.12467714188E+03 -0.28546089825E+03  0.31768874334E+03  0.00000000000E+00 0. -1.
         -5    1    5    5    0  502  0.53585529483E+02  0.50518483963E+02 -0.16832252091E+03  0.18378815859E+03  0.47000000000E+01 0.  1.
         13    1    6    6    0    0  0.76982107118E+02  0.84567333995E+02 -0.10412784452E+03  0.15466249319E+03  0.00000000000E+00 0. -1.
        -14    1    6    6    0    0  0.38870634519E+02  0.63626706976E+02  0.21514833922E+01  0.74591641283E+02  0.00000000000E+00 0.  1.
</event>
<event>
12    1  0.8462562E-002  0.1845901E+03  0.7818608E-02  0.1163515E+00
         21   -1    0    0  503  502  0.00000000000E+00  0.00000000000E+00  0.13605868069E+04  0.13605868069E+04  0.00000000000E+00 0.  1.
         21   -1    0    0  501  503 -0.00000000000E+00 -0.00000000000E+00 -0.25994660701E+02  0.25994660701E+02  0.00000000000E+00 0.  1.
          6    2    1    2  501    0 -0.11290013604E+02  0.62498299405E+02  0.80256873572E+03  0.82344522703E+03  0.17295075753E+03 0.  0.
         24    2    3    3    0    0 -0.29787688946E+02  0.11984346747E+02  0.17101641677E+03  0.18958858317E+03  0.75274730693E+02 0.  0.
         -6    2    1    2    0  502  0.11290013604E+02 -0.62498299405E+02  0.53202341045E+03  0.56313624054E+03  0.17332055362E+03 0.  0.
        -24    2    5    5    0    0  0.49778984630E+02  0.13382826889E+02  0.33712682997E+03  0.35042490257E+03  0.80536112957E+02 0.  0.
          5    1    3    3  501    0  0.18497675342E+02  0.50513952659E+02  0.63155231895E+03  0.63385664387E+03  0.47000000000E+01 0. -1.
        -11    1    4    4    0    0 -0.26056805032E+01  0.35835482005E+02  0.13015393345E+03  0.13502228606E+03  0.00000000000E+00 0.  1.
         12    1    4    4    0    0 -0.27182008443E+02 -0.23851135258E+02  0.40862483329E+02  0.54566297107E+02  0.00000000000E+00 0. -1.
         -5    1    5    5    0  502 -0.38488971025E+02 -0.75881126294E+02  0.19489658048E+03  0.21271133797E+03  0.47000000000E+01 0.  1.
         11    1    6    6    0    0  0.35969467545E+02 -0.31658258081E+02  0.15051036079E+03  0.15795384327E+03  0.00000000000E+00 0. -1.
        -12    1    6    6    0    0  0.13809517084E+02  0.45041084970E+02  0.18661646918E+03  0.19247105930E+03  0.00000000000E+00 0.  1.
</event>
<event>
12    1  0.8462562E-002  0.2013520E+03  0.7818608E-02  0.1151595E+00
         21   -1    0    0  503  502  0.00000000000E+00  0.00000000000E+00  0.50437331320E+03  0.50437331320E+03  0.00000000000E+00 0.  1.
         21   -1    0    0  501  503 -0.00000000000E+00 -0.00000000000E+00 -0.78023571237E+02  0.78023571237E+02  0.00000000000E+00 0.  1.
          6    2    1    2  501    0  0.91799932957E+02  0.29927421041E+02  0.26342421932E+03  0.32338458829E+03  0.16081789203E+03 0.  0.
         24    2    3    3    0    0  0.99053113077E+00  0.40692029198E+02  0.90287641336E+02  0.12752599418E+03  0.80338027249E+02 0.  0.
         -6    2    1    2    0  502 -0.91799932957E+02 -0.29927421041E+02  0.16292552264E+03  0.25901229614E+03  0.17669115826E+03 0.  0.
        -24    2    5    5    0    0  0.11636372352E+02  0.10760545157E+02  0.10737140109E+03  0.13466226490E+03  0.79712692354E+02 0.  0.
          5    1    3    3  501    0  0.90809401827E+02 -0.10764608156E+02  0.17313657798E+03  0.19585859411E+03  0.47000000000E+01 0. -1.
        -13    1    4    4    0    0  0.36079992836E+02 -0.24651730266E+00  0.38519593152E+02  0.52778648244E+02  0.00000000000E+00 0.  1.
         14    1    4    4    0    0 -0.35089461705E+02  0.40938546500E+02  0.51768048184E+02  0.74747345940E+02  0.00000000000E+00 0. -1.
         -5    1    5    5    0  502 -0.10343630531E+03 -0.40687966198E+02  0.55554121546E+02  0.12435003124E+03  0.47000000000E+01 0.  1.
         11    1    6    6    0    0  0.31448811299E+02  0.31249257370E+02  0.33757573773E+02  0.55723582129E+02  0.00000000000E+00 0. -1.
        -12    1    6    6    0    0 -0.19812438947E+02 -0.20488712213E+02  0.73613827320E+02  0.78938682773E+02  0.00000000000E+00 0.  1.
</event>
<event>
12    1  0.8462562E-002  0.3069887E+03  0.7818608E-02  0.1083406E+00
         21   -1    0    0  503  502  0.00000000000E+00  0.00000000000E+00  0.39895922637E+03  0.39895922637E+03  0.00000000000E+00 0.  1.
         21   -1    0    0  501  503 -0.00000000000E+00 -0.00000000000E+00 -0.23033711742E+03  0.23033711742E+03  0.00000000000E+00 0. -1.
          6    2    1    2  501    0 -0.22051006732E+03  0.90340591224E+02  0.44761132958E+02  0.31023482754E+03  0.19353546699E+03 0.  0.
         24    2    3    3    0    0 -0.28342272821E+02 -0.17817094029E+02  0.23073057932E+02  0.88606741055E+02  0.78727728849E+02 0.  0.
         -6    2    1    2    0  502  0.22051006732E+03 -0.90340591224E+02  0.12386097599E+03  0.31906151625E+03  0.17225735852E+03 0.  0.
        -24    2    5    5    0    0  0.21410839778E+03 -0.42357236306E+02  0.62432169731E+02  0.24070992430E+03  0.80043428058E+02 0.  0.
          5    1    3    3  501    0 -0.19216779450E+03  0.10815768525E+03  0.21688075025E+02  0.22162808649E+03  0.47000000000E+01 0. -1.
        -13    1    4    4    0    0  0.18555251519E+01 -0.12921129672E+02  0.47624510483E+02  0.49381095212E+02  0.00000000000E+00 0.  1.
         14    1    4    4    0    0 -0.30197797973E+02 -0.48959643575E+01 -0.24551452551E+02  0.39225645843E+02  0.00000000000E+00 0. -1.
         -5    1    5    5    0  502  0.64016695457E+01 -0.47983354918E+02  0.61428806255E+02  0.78351591943E+02  0.47000000000E+01 0.  1.
         11    1    6    6    0    0  0.31573788756E+02  0.47737821505E+01 -0.16955811947E+02  0.36155119848E+02  0.00000000000E+00 0. -1.
        -12    1    6    6    0    0  0.18253460902E+03 -0.47131018456E+02  0.79387981679E+02  0.20455480446E+03  0.00000000000E+00 0.  1.
</event>
<event>
12    1  0.8462562E-002  0.3747741E+03  0.7818608E-02  0.1053009E+00
         21   -1    0    0  501  502  0.00000000000E+00  0.00000000000E+00  0.42888204638E+03  0.42888204638E+03  0.00000000000E+00 0. -1.
         21   -1    0    0  502  503 -0.00000000000E+00 -0.00000000000E+00 -0.36193798665E+03  0.36193798665E+03  0.00000000000E+00 0.  1.
         -6    2    1    2    0  503 -0.33140235339E+03  0.32584156052E+02 -0.90512598164E+02  0.38554916266E+03  0.17194876954E+03 0.  0.
        -24    2    3    3    0    0 -0.25869308906E+03  0.33968508760E+02 -0.48145378379E+01  0.27305560243E+03  0.80375421156E+02 0.  0.
          6    2    1    2  501    0  0.33140235339E+03 -0.32584156052E+02  0.15745665790E+03  0.40527087037E+03  0.16900482891E+03 0.  0.
         24    2    5    5    0    0  0.17561136262E+03  0.37005040257E+02  0.12194348869E+03  0.23092419207E+03  0.79038246195E+02 0.  0.
          5    1    5    5  501    0  0.15579099076E+03 -0.69589196309E+02  0.35513169208E+02  0.17434667830E+03  0.47000000000E+01 0. -1.
        -13    1    6    6    0    0  0.10154578185E+01  0.97307081192E+01 -0.71180282839E+01  0.12098932256E+02  0.00000000000E+00 0.  1.
         14    1    6    6    0    0  0.17459590480E+03  0.27274332138E+02  0.12906151698E+03  0.21882525981E+03  0.00000000000E+00 0. -1.
         -5    1    3    3    0  503 -0.72709264326E+02 -0.13843527075E+01 -0.85698060326E+02  0.11249356024E+03  0.47000000000E+01 0.  1.
         13    1    4    4    0    0 -0.99658552761E+02  0.39056757547E+02 -0.31811431577E+02  0.11166568241E+03  0.00000000000E+00 0. -1.
        -14    1    4    4    0    0 -0.15903453630E+03 -0.50882487876E+01  0.26996893739E+02  0.16138992002E+03  0.00000000000E+00 0.  1.
</event>
<event>
12    1  0.8462562E-002  0.1788063E+03  0.7818608E-02  0.1169092E+00
         21   -1    0    0  501  502  0.00000000000E+00  0.00000000000E+00  0.90480709669E+02  0.90480709669E+02  0.00000000000E+00 0.  1.
         21   -1    0    0  502  503 -0.00000000000E+00 -0.00000000000E+00 -0.44027017881E+03  0.44027017881E+03  0.00000000000E+00 0. -1.
         -6    2    1    2    0  503 -0.43429897239E+02  0.24352826107E+02 -0.29371759066E+03  0.34386292528E+03  0.17173372471E+03 0.  0.
        -24    2    3    3    0    0 -0.67223589858E+02  0.15457006113E+02 -0.29938564916E+03  0.31741500837E+03  0.79765848225E+02 0.  0.
          6    2    1    2  501    0  0.43429897239E+02 -0.24352826107E+02 -0.56071878480E+02  0.18688796320E+03  0.17118364151E+03 0.  0.
         24    2    5    5    0    0 -0.11641498224E+02 -0.63966740695E+02 -0.59054073197E+02  0.11882105265E+03  0.80023687711E+02 0.  0.
          5    1    5    5  501    0  0.55071395462E+02  0.39613914587E+02  0.29821947166E+01  0.68066910555E+02  0.47000000000E+01 0. -1.
        -13    1    6    6    0    0  0.11235526145E+02 -0.60318589095E+02 -0.68868209858E+01  0.61741376252E+02  0.00000000000E+00 0.  1.
         14    1    6    6    0    0 -0.22877024369E+02 -0.36481515997E+01 -0.52167252211E+02  0.57079676395E+02  0.00000000000E+00 0. -1.
         -5    1    3    3    0  503  0.23793692620E+02  0.88958199937E+01  0.56680584964E+01  0.26447916912E+02  0.47000000000E+01 0.  1.
         13    1    4    4    0    0 -0.37834708961E+01  0.37676822379E+02 -0.12090908780E+03  0.12669990178E+03  0.00000000000E+00 0. -1.
        -14    1    4    4    0    0 -0.63440118962E+02 -0.22219816265E+02 -0.17847656135E+03  0.19071510659E+03  0.00000000000E+00 0.  1.
</event>
<event>
12    1  0.8462562E-002  0.2960391E+03  0.7818608E-02  0.1087280E+00
         21   -1    0    0  503  502  0.00000000000E+00  0.00000000000E+00  0.65051391790E+03  0.65051391790E+03  0.00000000000E+00 0. -1.
         21   -1    0    0  501  503 -0.00000000000E+00 -0.00000000000E+00 -0.13753770863E+03  0.13753770863E+03  0.00000000000E+00 0.  1.
          6    2    1    2  501    0  0.13914817107E+03 -0.19624503755E+03  0.19875472880E+03  0.35657061344E+03  0.17252487319E+03 0.  0.
         24    2    3    3    0    0  0.15886642935E+01 -0.91836339703E+02  0.10981237003E+03  0.16225996711E+03  0.76374754806E+02 0.  0.
         -6    2    1    2    0  502 -0.13914817107E+03  0.19624503755E+03  0.31422148047E+03  0.43148101309E+03  0.17194882260E+03 0.  0.
        -24    2    5    5    0    0 -0.13764820657E+02  0.39899089621E+02  0.14879791027E+03  0.17157316870E+03  0.74263897551E+02 0.  0.
          5    1    3    3  501    0  0.13755950678E+03 -0.10440869785E+03  0.88942358772E+02  0.19431064633E+03  0.47000000000E+01 0. -1.
        -11    1    4    4    0    0 -0.39067955800E+01 -0.39413956105E+02 -0.92501420868E+00  0.39617908057E+02  0.00000000000E+00 0.  1.
         12    1    4    4    0    0  0.54954598735E+01 -0.52422383598E+02  0.11073738424E+03  0.12264205906E+03  0.00000000000E+00 0. -1.
         -5    1    5    5    0  502 -0.12538335041E+03  0.15634594793E+03  0.16542357020E+03  0.25990784439E+03  0.47000000000E+01 0.  1.
         13    1    6    6    0    0 -0.36783618755E+02  0.24667230475E+01  0.96272564129E+02  0.10308989250E+03  0.00000000000E+00 0. -1.
        -14    1    6    6    0    0  0.23018798098E+02  0.37432366573E+02  0.52525346137E+02  0.68483276207E+02  0.00000000000E+00 0.  1.
</event>
<event>
12    1  0.8462562E-002  0.1989840E+03  0.7818608E-02  0.1150662E+00
         21   -1    0    0  501  502  0.00000000000E+00  0.00000000000E+00  0.12160783263E+04  0.12160783263E+04  0.00000000000E+00 0. -1.
         21   -1    0    0  502  503 -0.00000000000E+00 -0.00000000000E+00 -0.41031068114E+02  0.41031068114E+02  0.00000000000E+00 0. -1.
         -6    2    1    2    0  503 -0.67730135633E+02 -0.71991415700E+02  0.30144734586E+03  0.36119956062E+03  0.17269766953E+03 0.  0.
        -24    2    3    3    0    0 -0.84545984005E+02 -0.22936238352E+02  0.10724337151E+03  0.16013624514E+03  0.80426250893E+02 0.  0.
          6    2    1    2  501    0  0.67730135633E+02  0.71991415700E+02  0.87359991238E+03  0.89590983384E+03  0.17235860367E+03 0.  0.
         24    2    5    5    0    0  0.53520467999E+02  0.26265792061E+02  0.81117518780E+03  0.81709559940E+03  0.78010902668E+02 0.  0.
          5    1    5    5  501    0  0.14209667634E+02  0.45725623639E+02  0.62424724579E+02  0.78814234439E+02  0.47000000000E+01 0. -1.
        -13    1    6    6    0    0  0.81900694255E+01 -0.26941895301E+02  0.25205171675E+03  0.25361981562E+03  0.00000000000E+00 0.  1.
         14    1    6    6    0    0  0.45330398574E+02  0.53207687362E+02  0.55912347105E+03  0.56347578378E+03  0.00000000000E+00 0. -1.
         -5    1    3    3    0  503  0.16815848372E+02 -0.49055177349E+02  0.19420397434E+03  0.20106331548E+03  0.47000000000E+01 0.  1.
         11    1    4    4    0    0 -0.21847105937E+02  0.17962522026E+02  0.72079138011E+02  0.77429647886E+02  0.00000000000E+00 0. -1.
        -12    1    4    4    0    0 -0.62698878068E+02 -0.40898760377E+02  0.35164233500E+02  0.82706597252E+02  0.00000000000E+00 0.  1.
</event>
<event>
12    1  0.8462562E-002  0.2254905E+03  0.7818608E-02  0.1129859E+00
         21   -1    0    0  501  502  0.00000000000E+00  0.00000000000E+00  0.42095637769E+02  0.42095637769E+02  0.00000000000E+00 0. -1.
         21   -1    0    0  502  503 -0.00000000000E+00 -0.00000000000E+00 -0.12099388726E+04  0.12099388726E+04  0.00000000000E+00 0. -1.
         -6    2    1    2    0  503 -0.75128956251E+02  0.12309975546E+03 -0.55713481596E+03  0.60102703083E+03  0.17331006539E+03 0.  0.
        -24    2    3    3    0    0  0.10111597251E+02  0.10669506088E+03 -0.38968925188E+03  0.41236020042E+03  0.81836064446E+02 0.  0.
          6    2    1    2  501    0  0.75128956251E+02 -0.12309975546E+03 -0.61070841888E+03  0.65100747955E+03  0.17334375006E+03 0.  0.
         24    2    5    5    0    0  0.88935681014E+02 -0.75356117273E+02 -0.24921857838E+03  0.28608683692E+03  0.78407134122E+02 0.  0.
          5    1    5    5  501    0 -0.13806724763E+02 -0.47743638183E+02 -0.36148984050E+03  0.36492064263E+03  0.47000000000E+01 0. -1.
        -13    1    6    6    0    0  0.10144365388E+03 -0.57818839307E+02 -0.18930938722E+03  0.22242274430E+03  0.00000000000E+00 0.  1.
         14    1    6    6    0    0 -0.12507972869E+02 -0.17537277966E+02 -0.59909191162E+02  0.63664092623E+02  0.00000000000E+00 0. -1.
         -5    1    3    3    0  503 -0.85240553502E+02  0.16404694579E+02 -0.16744556408E+03  0.18866683040E+03  0.47000000000E+01 0.  1.
         13    1    4    4    0    0  0.30587652324E+01 -0.13453530075E+02 -0.28871730145E+02  0.31998911197E+02  0.00000000000E+00 0. -1.
        -14    1    4    4    0    0  0.70528320186E+01  0.12014859095E+03 -0.36081752174E+03  0.38036128922E+03  0.00000000000E+00 0.  1.
</event>
<event>
12    1  0.8462562E-002  0.1810715E+03  0.7818608E-02  0.1166924E+00
         21   -1    0    0  503  502  0.00000000000E+00  0.00000000000E+00  0.58913095544E+02  0.58913095544E+02  0.00000000000E+00 0.  1.
         21   -1    0    0  501  503 -0.00000000000E+00 -0.00000000000E+00 -0.96292171857E+03  0.96292171857E+03  0.00000000000E+00 0.  1.
          6    2    1    2  501    0  0.12467116056E+02 -0.51645969813E+02 -0.78518558415E+03  0.80579358743E+03  0.17310161410E+03 0.  0.
         24    2    3    3    0    0  0.70691767805E+02 -0.38953153160E+02 -0.42677051262E+03  0.44242783345E+03  0.84229704926E+02 0.  0.
         -6    2    1    2    0  502 -0.12467116056E+02  0.51645969813E+02 -0.11882303888E+03  0.21604122669E+03  0.17243016522E+03 0.  0.
        -24    2    5    5    0    0  0.23801991417E+02 -0.28694693972E+02 -0.84435336397E+02  0.12130646804E+03  0.78714756542E+02 0.  0.
          5    1    3    3  501    0 -0.58224651749E+02 -0.12692816654E+02 -0.35841507152E+03  0.36336575398E+03  0.47000000000E+01 0. -1.
        -13    1    4    4    0    0  0.53429951141E+00 -0.45115808099E+02 -0.19728401721E+03  0.20237762985E+03  0.00000000000E+00 0.  1.
         14    1    4    4    0    0  0.70157468294E+02  0.61626549398E+01 -0.22948649541E+03  0.24005020360E+03  0.00000000000E+00 0. -1.
         -5    1    5    5    0  502 -0.36269107473E+02  0.80340663786E+02 -0.34387702480E+02  0.94734758649E+02  0.47000000000E+01 0.  1.
         13    1    6    6    0    0  0.36909349500E+02  0.46311351418E+01 -0.75850482277E+02  0.84481022454E+02  0.00000000000E+00 0. -1.
        -14    1    6    6    0    0 -0.13107358083E+02 -0.33325829114E+02 -0.85848541201E+01  0.36825445582E+02  0.00000000000E+00 0.  1.
</event>
<event>
12    1  0.8462562E-002  0.1953001E+03  0.7818608E-02  0.1154521E+00
         21   -1    0    0  501  502  0.00000000000E+00  0.00000000000E+00  0.12834391463E+04  0.12834391463E+04  0.00000000000E+00 0. -1.
         21   -1    0    0  502  503 -0.00000000000E+00 -0.00000000000E+00 -0.30823240309E+02  0.30823240309E+02  0.00000000000E+00 0. -1.
         -6    2    1    2    0  503  0.81076374892E+02 -0.46044183530E+02  0.78245822185E+03  0.80646326686E+03  0.17160619583E+03 0.  0.
        -24    2    3    3    0    0  0.10987422603E+03 -0.49799773678E+02  0.42762965381E+03  0.45041716958E+03  0.73865708097E+02 0.  0.
          6    2    1    2  501    0 -0.81076374892E+02  0.46044183530E+02  0.47015768416E+03  0.50779911978E+03  0.16768498043E+03 0.  0.
         24    2    5    5    0    0 -0.28941740111E+02  0.67007645570E+02  0.41520600735E+03  0.42906371688E+03  0.79824781342E+02 0.  0.
          5    1    5    5  501    0 -0.52134634781E+02 -0.20963462040E+02  0.54951676810E+02  0.78735402893E+02  0.47000000000E+01 0. -1.
        -11    1    6    6    0    0 -0.56908331648E+02  0.45742175407E+02  0.28401280059E+03  0.29324763549E+03  0.00000000000E+00 0.  1.
         12    1    6    6    0    0  0.27966591537E+02  0.21265470163E+02  0.13119320677E+03  0.13581608140E+03  0.00000000000E+00 0. -1.
         -5    1    3    3    0  503 -0.28797851136E+02  0.37555901481E+01  0.35482856804E+03  0.35604609727E+03  0.47000000000E+01 0.  1.
         13    1    4    4    0    0  0.76813121439E+02 -0.64179291583E+02  0.36145669697E+03  0.37506023633E+03  0.00000000000E+00 0. -1.
        -14    1    4    4    0    0  0.33061104589E+02  0.14379517905E+02  0.66172956844E+02  0.75356933253E+02  0.00000000000E+00 0.  1.
</event>
<event>
12    1  0.8462562E-002  0.2136618E+03  0.7818608E-02  0.1139006E+00
         21   -1    0    0  503  502  0.00000000000E+00  0.00000000000E+00  0.13466625245E+03  0.13466625245E+03  0.00000000000E+00 0.  1.
         21   -1    0    0  501  503 -0.00000000000E+00 -0.00000000000E+00 -0.34415609613E+03  0.34415609613E+03  0.00000000000E+00 0. -1.
          6    2    1    2  501    0  0.11382746931E+03  0.48368544477E+02 -0.68628235978E+02  0.22290564354E+03  0.17228140434E+03 0.  0.
         24    2    3    3    0    0  0.14043899808E+02 -0.24965703336E+02 -0.23022418540E+02  0.90857723338E+02  0.83093782378E+02 0.  0.
         -6    2    1    2    0  502 -0.11382746931E+03 -0.48368544477E+02 -0.14086160770E+03  0.25591670505E+03  0.17422731857E+03 0.  0.
        -24    2    5    5    0    0 -0.10841244301E+03 -0.95545949692E+02 -0.11572695132E+03  0.20198275448E+03  0.80759021434E+02 0.  0.
          5    1    3    3  501    0  0.99783569499E+02  0.73334247813E+02 -0.45605817438E+02  0.13204792020E+03  0.47000000000E+01 0. -1.
        -13    1    4    4    0    0 -0.21829515731E+02 -0.52378350188E+01 -0.40529505252E+02  0.46331452262E+02  0.00000000000E+00 0.  1.
         14    1    4    4    0    0  0.35873415540E+02 -0.19727868317E+02  0.17507086712E+02  0.44526271076E+02  0.00000000000E+00 0. -1.
         -5    1    5    5    0  502 -0.54150262931E+01  0.47177405216E+02 -0.25134656381E+02  0.53933950569E+02  0.47000000000E+01 0.  1.
         13    1    6    6    0    0 -0.92493264061E+02 -0.45511782372E+02 -0.41639251848E+02  0.11117622734E+03  0.00000000000E+00 0. -1.
        -14    1    6    6    0    0 -0.15919178952E+02 -0.50034167320E+02 -0.74087699474E+02  0.90806527141E+02  0.00000000000E+00 0.  1.
</event>
<event>
12    1  0.8462562E-002  0.1793989E+03  0.7818608E-02  0.1168679E+00
         21   -1    0    0  503  502  0.00000000000E+00  0.00000000000E+00  0.67410214445E+02  0.67410214445E+02  0.00000000000E+00 0.  1.
         21   -1    0    0  501  503 -0.00000000000E+00 -0.00000000000E+00 -0.10610765634E+04  0.10610765634E+04  0.00000000000E+00 0.  1.
          6    2    1    2  501    0  0.37700973041E+02  0.31606021068E+02 -0.91570037787E+03  0.93287833418E+03  0.17127317482E+03 0.  0.
         24    2    3    3    0    0 -0.16998709518E+02  0.71586393843E+02 -0.49313774001E+03  0.50489263536E+03  0.79486946778E+02 0.  0.
         -6    2    1    2    0  502 -0.37700973041E+02 -0.31606021068E+02 -0.77965971125E+02  0.19560844371E+03  0.17252149623E+03 0.  0.
        -24    2    5    5    0    0 -0.62277690600E+02  0.31711984360E+02 -0.69818653142E+02  0.12703983830E+03  0.79876877068E+02 0.  0.
          5    1    3    3  501    0  0.54699682559E+02 -0.39980372775E+02 -0.42256263786E+03  0.42798569882E+03  0.47000000000E+01 0. -1.
        -11    1    4    4    0    0 -0.93649747122E+01  0.86869250784E+02 -0.35007916049E+03  0.36081766599E+03  0.00000000000E+00 0.  1.
         12    1    4    4    0    0 -0.76337348056E+01 -0.15282856941E+02 -0.14305857952E+03  0.14407496937E+03  0.00000000000E+00 0. -1.
         -5    1    5    5    0  502  0.24576717559E+02 -0.63318005428E+02 -0.81473179833E+01  0.68568605408E+02  0.47000000000E+01 0.  1.
         11    1    6    6    0    0 -0.65767908935E+02 -0.60548084611E+01 -0.31674089026E+02  0.73248388834E+02  0.00000000000E+00 0. -1.
        -12    1    6    6    0    0  0.34902183342E+01  0.37766792821E+02 -0.38144564116E+02  0.53791449466E+02  0.00000000000E+00 0.  1.
</event>
<event>
12    1  0.8462562E-002  0.1849315E+03  0.7818608E-02  0.1163617E+00
         21   -1    0    0  503  502  0.00000000000E+00  0.00000000000E+00  0.99386837801E+02  0.99386837801E+02  0.00000000000E+00 0.  1.
         21   -1    0    0  501  503 -0.00000000000E+00 -0.00000000000E+00 -0.40579852893E+03  0.40579852893E+03  0.00000000000E+00 0.  1.
          6    2    1    2  501    0  0.63546364108E+02  0.66897821508E+00 -0.25556084515E+03  0.31545365955E+03  0.17366944991E+03 0.  0.
         24    2    3    3    0    0 -0.17437569051E+02  0.46526289375E+02 -0.15709605819E+03  0.17988561507E+03  0.72186554082E+02 0.  0.
         -6    2    1    2    0  502 -0.63546364108E+02 -0.66897821508E+00 -0.50850845979E+02  0.18973170717E+03  0.17138764322E+03 0.  0.
        -24    2    5    5    0    0  0.29873085899E+02  0.19442963761E+02 -0.28354661182E+02  0.91447160167E+02  0.79297958303E+02 0.  0.
          5    1    3    3  501    0  0.80983933159E+02 -0.45857311160E+02 -0.98464786952E+02  0.13556804449E+03  0.47000000000E+01 0. -1.
        -11    1    4    4    0    0 -0.65096199635E+01  0.54368358975E+02 -0.15716952693E+03  0.16643483351E+03  0.00000000000E+00 0.  1.
         12    1    4    4    0    0 -0.10927949088E+02 -0.78420695998E+01  0.73468735405E-01  0.13450781558E+02  0.00000000000E+00 0. -1.
         -5    1    5    5    0  502 -0.93419450007E+02 -0.20111941976E+02 -0.22496184797E+02  0.98284547006E+02  0.47000000000E+01 0.  1.
         13    1    6    6    0    0  0.52411541249E+01  0.21781072834E+02  0.24432682952E+02  0.33148768100E+02  0.00000000000E+00 0. -1.
        -14    1    6    6    0    0  0.24631931774E+02 -0.23381090724E+01 -0.52787344133E+02  0.58298392067E+02  0.00000000000E+00 0.  1.
</event>
<event>
12    1  0.8462562E-002  0.1950717E+03  0.7818608E-02  0.1155718E+00
         21   -1    0    0  503  502  0.00000000000E+00  0.00000000000E+00  0.49536710028E+03  0.49536710028E+03  0.00000000000E+00 0.  1.
         21   -1    0    0  501  503 -0.00000000000E+00 -0.00000000000E+00 -0.74985456702E+02  0.74985456702E+02  0.00000000000E+00 0.  1.
          6    2    1    2  501    0  0.49032978004E+02 -0.78820398633E+02  0.16933493660E+03  0.25242578998E+03  0.16256558837E+03 0.  0.
         24    2    3    3    0    0 -0.25921141956E+02 -0.19446616323E+02  0.47408719122E+02  0.97404957083E+02  0.78676950429E+02 0.  0.
         -6    2    1    2    0  502 -0.49032978004E+02  0.78820398633E+02  0.25104670698E+03  0.31792676700E+03  0.17156949588E+03 0.  0.
        -24    2    5    5    0    0 -0.97338252069E+00  0.82960053909E+02  0.24245339590E+03  0.26870485664E+03  0.80841405131E+02 0.  0.
          5    1    3    3  501    0  0.74954119960E+02 -0.59373782310E+02  0.12192621748E+03  0.15502083290E+03  0.47000000000E+01 0. -1.
        -13    1    4    4    0    0 -0.50748578705E+02 -0.23178497066E+02  0.45912881128E+02  0.72254090682E+02  0.00000000000E+00 0.  1.
         14    1    4    4    0    0  0.24827436749E+02  0.37318807431E+01  0.14958379940E+01  0.25150866401E+02  0.00000000000E+00 0. -1.
         -5    1    5    5    0  502 -0.48059595483E+02 -0.41396552761E+01  0.85933110811E+01  0.49221910356E+02  0.47000000000E+01 0.  1.
         13    1    6    6    0    0 -0.25599122467E+02 -0.65573204126E+00  0.32502631883E+02  0.41378329291E+02  0.00000000000E+00 0. -1.
        -14    1    6    6    0    0  0.24625739946E+02  0.83615785950E+02  0.20995076401E+03  0.22732652735E+03  0.00000000000E+00 0.  1.
</event>
<event>
12    1  0.8462562E-002  0.1782040E+03  0.7818608E-02  0.1169774E+00
         21   -1    0    0  501  502  0.00000000000E+00  0.00000000000E+00  0.17606577010E+03  0.17606577010E+03  0.00000000000E+00 0.  1.
         21   -1    0    0  502  503 -0.00000000000E+00 -0.00000000000E+00 -0.20588939503E+03  0.20588939503E+03  0.00000000000E+00 0.  1.
         -6    2    1    2    0  503 -0.17233282436E+02 -0.35878064975E+02 -0.83303174992E+02  0.19589941991E+03  0.17278003990E+03 0.  0.
        -24    2    3    3    0    0 -0.71577377548E+02 -0.27445358910E+01 -0.74929204238E+02  0.13153075666E+03  0.80963577273E+02 0.  0.
          6    2    1    2  501    0  0.17233282436E+02  0.35878064975E+02  0.53479550061E+02  0.18605574523E+03  0.17370220634E+03 0.  0.
         24    2    5    5    0    0 -0.36268554263E+02 -0.25591899869E+02  0.95326671711E+01  0.93349641738E+02  0.81565498233E+02 0.  0.
          5    1    5    5  501    0  0.53501836700E+02  0.61469964844E+02  0.43946882890E+02  0.92706103488E+02  0.47000000000E+01 0. -1.
        -13    1    6    6    0    0 -0.52599158461E+02  0.10133465895E+02  0.63095733614E+01  0.53936715861E+02  0.00000000000E+00 0.  1.
         14    1    6    6    0    0  0.16330604198E+02 -0.35725365765E+02  0.32230938097E+01  0.39412925877E+02  0.00000000000E+00 0. -1.
         -5    1    3    3    0  503  0.54344095112E+02 -0.33133529084E+02 -0.83739707546E+01  0.64368663255E+02  0.47000000000E+01 0.  1.
         11    1    4    4    0    0 -0.37749407334E+02 -0.31243702889E+02 -0.72141865681E+02  0.87210294737E+02  0.00000000000E+00 0. -1.
        -12    1    4    4    0    0 -0.33827970214E+02  0.28499166998E+02 -0.27873385570E+01  0.44320461918E+02  0.00000000000E+00 0.  1.
</event>
<event>
12    1  0.8462562E-002  0.1812206E+03  0.7818608E-02  0.1166940E+00
         21   -1    0    0  501  502  0.00000000000E+00  0.00000000000E+00  0.66207449105E+02  0.66207449105E+02  0.00000000000E+00 0.  1.
         21   -1    0    0  502  503 -0.00000000000E+00 -0.00000000000E+00 -0.60414775029E+03  0.60414775029E+03  0.00000000000E+00 0. -1.
         -6    2    1    2    0  503  0.48917594021E+02  0.31914641314E+02 -0.41386003629E+03  0.45179757504E+03  0.17155012048E+03 0.  0.
        -24    2    3    3    0    0  0.26971007996E+02  0.38409316899E+02 -0.41675131697E+03  0.42825436045E+03  0.86703091918E+02 0.  0.
          6    2    1    2  501    0 -0.48917594021E+02 -0.31914641314E+02 -0.12408026490E+03  0.21855762436E+03  0.17017651922E+03 0.  0.
         24    2    5    5    0    0 -0.21922896686E+02  0.22893697758E+02 -0.13075737548E+03  0.15691882553E+03  0.80754515466E+02 0.  0.
          5    1    5    5  501    0 -0.26994697336E+02 -0.54808339071E+02  0.66771105776E+01  0.61638798834E+02  0.47000000000E+01 0. -1.
        -13    1    6    6    0    0 -0.47574990050E+01 -0.30159132784E+02 -0.54186320859E+02  0.62196177176E+02  0.00000000000E+00 0.  1.
         14    1    6    6    0    0 -0.17165397681E+02  0.53052830541E+02 -0.76571054617E+02  0.94722648354E+02  0.00000000000E+00 0. -1.
         -5    1    3    3    0  503  0.21946586025E+02 -0.64946755854E+01  0.28912806819E+01  0.23543214588E+02  0.47000000000E+01 0.  1.
         13    1    4    4    0    0  0.38180077660E+02  0.30455193482E+02 -0.10084189633E+03  0.11204608514E+03  0.00000000000E+00 0. -1.
        -14    1    4    4    0    0 -0.11209069664E+02  0.79541234174E+01 -0.31590942064E+03  0.31620827531E+03  0.00000000000E+00 0.  1.
</event>
<event>
12    1  0.8462562E-002  0.1831830E+03  0.7818608E-02  0.1165998E+00
         21   -1    0    0  501  502  0.00000000000E+00  0.00000000000E+00  0.69093863118E+02  0.69093863118E+02  0.00000000000E+00 0. -1.
         21   -1    0    0  502  503 -0.00000000000E+00 -0.00000000000E+00 -0.54472012377E+03  0.54472012377E+03  0.00000000000E+00 0. -1.
         -6    2    1    2    0  503 -0.42339915876E+02  0.17113569235E+02 -0.34694713584E+03  0.38995170170E+03  0.17205950094E+03 0.  0.
        -24    2    3    3    0    0 -0.54921678327E+02  0.66191542569E+02 -0.29017419438E+03  0.31371388238E+03  0.82568915800E+02 0.  0.
          6    2    1    2  501    0  0.42339915876E+02 -0.17113569235E+02 -0.12867912481E+03  0.22386228518E+03  0.17739916245E+03 0.  0.
         24    2    5    5    0    0  0.76457489869E+02 -0.58819502368E+02 -0.10968099328E+03  0.16653504283E+03  0.79990740645E+02 0.  0.
          5    1    5    5  501    0 -0.34117573993E+02  0.41705933132E+02 -0.18998131530E+02  0.57327242348E+02  0.47000000000E+01 0. -1.
        -13    1    6    6    0    0  0.27928114859E+02  0.56540371035E+01 -0.72080668545E+02  0.77508518971E+02  0.00000000000E+00 0.  1.
         14    1    6    6    0    0  0.48529375010E+02 -0.64473539471E+02 -0.37600324731E+02  0.89026523860E+02  0.00000000000E+00 0. -1.
         -5    1    3    3    0  503  0.12581762451E+02 -0.49077973334E+02 -0.56772941463E+02  0.76237819324E+02  0.47000000000E+01 0.  1.
         13    1    4    4    0    0  0.95561549407E+01  0.36253697491E+02 -0.17002074801E+03  0.17410544343E+03  0.00000000000E+00 0. -1.
        -14    1    4    4    0    0 -0.64477833268E+02  0.29937845078E+02 -0.12015344637E+03  0.13960843894E+03  0.00000000000E+00 0.  1.
</event>
<event>
12    1  0.8462562E-002  0.2036785E+03  0.7818608E-02  0.1146715E+00
         21   -1    0    0  503  502  0.00000000000E+00  0.00000000000E+00  0.14087795214E+04  0.14087795214E+04  0.00000000000E+00 0.  1.
         21   -1    0    0  501  503 -0.00000000000E+00 -0.00000000000E+00 -0.34307548393E+02  0.34307548393E+02  0.00000000000E+00 0.  1.
          6    2    1    2  501    0  0.10811268986E+03  0.17859488869E+02  0.41512183567E+03  0.46239710085E+03  0.17169049296E+03 0.  0.
         24    2    3    3    0    0  0.10896938437E+03 -0.38494824487E+02  0.34259297240E+03  0.37042390602E+03  0.80546552825E+02 0.  0.
         -6    2    1    2    0  502 -0.10811268986E+03 -0.17859488869E+02  0.95935013733E+03  0.98068996894E+03  0.17144332629E+03 0.  0.
        -24    2    5    5    0    0 -0.90909142145E+02  0.29204611739E+02  0.38904132295E+03  0.40816466349E+03  0.78280649495E+02 0.  0.
          5    1    3    3  501    0 -0.85669451751E+00  0.56354313356E+02  0.72528863268E+02  0.91973194825E+02  0.47000000000E+01 0. -1.
        -11    1    4    4    0    0 -0.41966254840E+01  0.12100590083E+02  0.12817900034E+02  0.18120002955E+02  0.00000000000E+00 0.  1.
         12    1    4    4    0    0  0.11316600986E+03 -0.50595414570E+02  0.32977507237E+03  0.35230390307E+03  0.00000000000E+00 0. -1.
         -5    1    5    5    0  502 -0.17203547711E+02 -0.47064100608E+02  0.57030881438E+03  0.57252530545E+03  0.47000000000E+01 0.  1.
         11    1    6    6    0    0 -0.38031534768E+02  0.24645571299E+02  0.30783397999E+03  0.31115199028E+03  0.00000000000E+00 0. -1.
        -12    1    6    6    0    0 -0.52877607376E+02  0.45590404403E+01  0.81207342963E+02  0.97012673206E+02  0.00000000000E+00 0.  1.
</event>
<event>
12    1  0.8462562E-002  0.2180141E+03  0.7818608E-02  0.1136185E+00
         21   -1    0    0  503  502  0.00000000000E+00  0.00000000000E+00  0.34325567261E+03  0.34325567261E+03  0.00000000000E+00 0. -1.
         21   -1    0    0  501  503 -0.00000000000E+00 -0.00000000000E+00 -0.13594805882E+03  0.13594805882E+03  0.00000000000E+00 0. -1.
          6    2    1    2  501    0  0.71494946009E+02 -0.10909371977E+03  0.94068943959E+02  0.23353494975E+03  0.16934178320E+03 0.  0.
         24    2    3    3    0    0  0.95163390627E+02 -0.94966082700E+02  0.11518926518E+03  0.19849292686E+03  0.89756600995E+02 0.  0.
         -6    2    1    2    0  502 -0.71494946009E+02  0.10909371977E+03  0.11323866983E+03  0.24566878168E+03  0.17469169113E+03 0.  0.
        -24    2    5    5    0    0 -0.11354706347E+03  0.96354770078E+02  0.69690323093E+02  0.18362678037E+03  0.81761090975E+02 0.  0.
          5    1    3    3  501    0 -0.23668444618E+02 -0.14127637067E+02 -0.21120321218E+02  0.35042022888E+02  0.47000000000E+01 0. -1.
        -13    1    4    4    0    0 -0.11733772680E+02 -0.29144367362E+00  0.30007558031E+02  0.32221419889E+02  0.00000000000E+00 0.  1.
         14    1    4    4    0    0  0.10689716331E+03 -0.94674639026E+02  0.85181707146E+02  0.16627150697E+03  0.00000000000E+00 0. -1.
         -5    1    5    5    0  502  0.42052117465E+02  0.12738949690E+02  0.43548346742E+02  0.62042001309E+02  0.47000000000E+01 0.  1.
         13    1    6    6    0    0 -0.59471171602E+02  0.81830962043E+02  0.97897401236E+01  0.10163151879E+03  0.00000000000E+00 0. -1.
        -14    1    6    6    0    0 -0.54075891872E+02  0.14523808034E+02  0.59900582969E+02  0.81995261580E+02  0.00000000000E+00 0.  1.
</event>
<event>
12    1  0.8462562E-002  0.1781752E+03  0.7818608E-02  0.1169732E+00
         21   -1    0    0  503  502  0.00000000000E+00  0.00000000000E+00  0.15218421303E+03  0.15218421303E+03  0.00000000000E+00 0. -1.
         21   -1    0    0  501  503 -0.00000000000E+00 -0.00000000000E+00 -0.32672982624E+03  0.32672982624E+03  0.00000000000E+00 0. -1.
          6    2    1    2  501    0  0.99572615839E+01  0.44225232116E+02 -0.23159463203E+03  0.29182852989E+03  0.17167643710E+03 0.  0.
         24    2    3    3    0    0  0.58202461886E+02  0.10152209730E+02 -0.20212097985E+03  0.22565182417E+03  0.81087985067E+02 0.  0.
         -6    2    1    2    0  502 -0.99572615839E+01 -0.44225232116E+02  0.57049018825E+02  0.18708550938E+03  0.17231186569E+03 0.  0.
        -24    2    5    5    0    0 -0.70754962763E+02 -0.35851569531E+02  0.54918105529E+02  0.12549728417E+03  0.80261885255E+02 0.  0.
          5    1    3    3  501    0 -0.48245200302E+02  0.34073022386E+02 -0.29473652180E+02  0.66176705717E+02  0.47000000000E+01 0. -1.
        -11    1    4    4    0    0 -0.14228160374E+01 -0.24224001720E+02 -0.97112964567E+02  0.10009872403E+03  0.00000000000E+00 0.  1.
         12    1    4    4    0    0  0.59625277924E+02  0.34376211450E+02 -0.10500801528E+03  0.12555310014E+03  0.00000000000E+00 0. -1.
         -5    1    5    5    0  502  0.60797701179E+02 -0.83736625851E+01  0.21309132956E+01  0.61588225216E+02  0.47000000000E+01 0.  1.
         13    1    6    6    0    0 -0.10219348319E+02 -0.24228798285E+02  0.58100268158E+02  0.63773904588E+02  0.00000000000E+00 0. -1.
        -14    1    6    6    0    0 -0.60535614444E+02 -0.11622771246E+02 -0.31821626286E+01  0.61723379578E+02  0.00000000000E+00 0.  1.
</event>
<event>
12    1  0.8462562E-002  0.2156227E+03  0.7818608E-02  0.1137278E+00
         21   -1    0    0  503  502  0.00000000000E+00  0.00000000000E+00  0.11634284095E+03  0.11634284095E+03  0.00000000000E+00 0. -1.
         21   -1    0    0  501  503 -0.00000000000E+00 -0.00000000000E+00 -0.57079518627E+03  0.57079518627E+03  0.00000000000E+00 0.  1.
          6    2    1    2  501    0 -0.11470624281E+03 -0.59241247675E+02 -0.41601152371E+03  0.46857095541E+03  0.17270235907E+03 0.  0.
         24    2    3    3    0    0  0.42317741950E+01 -0.56108986689E+02 -0.18781165965E+03  0.21117373145E+03  0.78453802023E+02 0.  0.
         -6    2    1    2    0  502  0.11470624281E+03  0.59241247675E+02 -0.38440821599E+02  0.21856707181E+03  0.17212443333E+03 0.  0.
        -24    2    5    5    0    0  0.34927014294E+01  0.45680227985E+02 -0.45144541991E+02  0.10623104505E+03  0.84546573375E+02 0.  0.
          5    1    3    3  501    0 -0.11893801700E+03 -0.31322609866E+01 -0.22819986406E+03  0.25739722397E+03  0.47000000000E+01 0. -1.
        -13    1    4    4    0    0 -0.50510584678E+01 -0.57486129788E+02 -0.60837543922E+02  0.83853294867E+02  0.00000000000E+00 0.  1.
         14    1    4    4    0    0  0.92828326628E+01  0.13771430995E+01 -0.12697411573E+03  0.12732043658E+03  0.00000000000E+00 0. -1.
         -5    1    5    5    0  502  0.11121354138E+03  0.13561019690E+02  0.67037203923E+01  0.11233602676E+03  0.47000000000E+01 0.  1.
         13    1    6    6    0    0  0.33790164184E+02  0.50841441239E+02 -0.14321254417E+02  0.62703474153E+02  0.00000000000E+00 0. -1.
        -14    1    6    6    0    0 -0.30297462754E+02 -0.51612132535E+01 -0.30823287574E+02  0.43527570900E+02  0.00000000000E+00 0.  1.
</event>
<event>
12    1  0.8462562E-002  0.1896820E+03  0.7818608E-02  0.1160772E+00
         21   -1    0    0  501  502  0.00000000000E+00  0.00000000000E+00  0.48200040184E+02  0.48200040184E+02  0.00000000000E+00 0.  1.
         21   -1    0    0  502  503 -0.00000000000E+00 -0.00000000000E+00 -0.75783363672E+03  0.75783363672E+03  0.00000000000E+00 0.  1.
         -6    2    1    2    0  503  0.88125874538E+01  0.58599960323E+02 -0.46121869989E+03  0.49870025892E+03  0.18018779667E+03 0.  0.
        -24    2    3    3    0    0 -0.16935713052E+02  0.10677392439E+03 -0.30415779703E+03  0.33234544835E+03  0.79082502721E+02 0.  0.
          6    2    1    2  501    0 -0.88125874538E+01 -0.58599960323E+02 -0.24841489664E+03  0.30733341798E+03  0.17097441881E+03 0.  0.
         24    2    5    5    0    0  0.54127133717E+02 -0.27868491542E+02 -0.19531601705E+03  0.21931402985E+03  0.79018338025E+02 0.  0.
          5    1    5    5  501    0 -0.62939721171E+02 -0.30731468781E+02 -0.53098879585E+02  0.88019388135E+02  0.47000000000E+01 0. -1.
        -11    1    6    6    0    0 -0.18245047146E+02  0.32751514281E+01 -0.20948851808E+02  0.27972535715E+02  0.00000000000E+00 0.  1.
         12    1    6    6    0    0  0.72372180864E+02 -0.31143642970E+02 -0.17436716525E+03  0.19134149413E+03  0.00000000000E+00 0. -1.
         -5    1    3    3    0  503  0.25748300506E+02 -0.48173964065E+02 -0.15706090287E+03  0.16635481058E+03  0.47000000000E+01 0.  1.
         13    1    4    4    0    0 -0.85818320129E+01  0.61434590661E+01 -0.13448797574E+03  0.13490146607E+03  0.00000000000E+00 0. -1.
        -14    1    4    4    0    0 -0.83538810392E+01  0.10063046532E+03 -0.16966982129E+03  0.19744398227E+03  0.00000000000E+00 0.  1.
</event>
<event>
12    1  0.8462562E-002  0.2168927E+03  0.7818608E-02  0.1136239E+00
         21   -1    0    0  501  502  0.00000000000E+00  0.00000000000E+00  0.34455245797E+03  0.34455245797E+03  0.00000000000E+00 0.  1.
         21   -1    0    0  502  503 -0.00000000000E+00 -0.00000000000E+00 -0.33387952823E+03  0.33387952823E+03  0.00000000000E+00 0.  1.
         -6    2    1    2    0  503 -0.11475570265E+03 -0.64448518643E+02 -0.25549688829E+03  0.33514339730E+03  0.17239476205E+03 0.  0.
        -24    2    3    3    0    0 -0.85606839742E+02  0.27116850205E+02 -0.13778352024E+03  0.18311576823E+03  0.80518516825E+02 0.  0.
          6    2    1    2  501    0  0.11475570265E+03  0.64448518643E+02  0.26616981802E+03  0.34328858890E+03  0.17227362072E+03 0.  0.
         24    2    5    5    0    0  0.32175223190E+02 -0.30413643841E+02  0.10039073235E+03  0.13514642425E+03  0.78905146387E+02 0.  0.
          5    1    5    5  501    0  0.82580479459E+02  0.94862162484E+02  0.16577908568E+03  0.20814216465E+03  0.47000000000E+01 0. -1.
        -11    1    6    6    0    0  0.15045566943E+02  0.10451078154E+02 -0.64979766427E+01  0.19437536358E+02  0.00000000000E+00 0.  1.
         12    1    6    6    0    0  0.17129656247E+02 -0.40864721995E+02  0.10688870899E+03  0.11570888789E+03  0.00000000000E+00 0. -1.
         -5    1    3    3    0  503 -0.29148862907E+02 -0.91565368848E+02 -0.11771336805E+03  0.15202762907E+03  0.47000000000E+01 0.  1.
         11    1    4    4    0    0 -0.37365591843E+02 -0.21860532481E+01 -0.36703681261E+01  0.37609013344E+02  0.00000000000E+00 0. -1.
        -12    1    4    4    0    0 -0.48241247899E+02  0.29302903453E+02 -0.13411315211E+03  0.14550675489E+03  0.00000000000E+00 0.  1.
</event>
<event>
12    1  0.8462562E-002  0.1775575E+03  0.7818608E-02  0.1170620E+00
         21   -1    0    0  503  502  0.00000000000E+00  0.00000000000E+00  0.38108143055E+02  0.38108143055E+02  0.00000000000E+00 0.  1.
         21   -1    0    0  501  503 -0.00000000000E+00 -0.00000000000E+00 -0.14597494588E+04  0.14597494588E+04  0.00000000000E+00 0.  1.
          6    2    1    2  501    0  0.21886650660E+02  0.29677859756E+02 -0.12049636378E+04  0.12177221074E+04  0.17190102229E+03 0.  0.
         24    2    3    3    0    0  0.64393617223E+02  0.54180668290E+02 -0.10119682154E+04  0.10185323664E+04  0.79034357484E+02 0.  0.
         -6    2    1    2    0  502 -0.21886650660E+02 -0.29677859756E+02 -0.21667767794E+03  0.28013549450E+03  0.17368614892E+03 0.  0.
        -24    2    5    5    0    0  0.99271812423E+01  0.20261565375E+02 -0.20289388879E+03  0.21915886844E+03  0.79722014208E+02 0.  0.
          5    1    3    3  501    0 -0.42506966563E+02 -0.24502808534E+02 -0.19299542244E+03  0.19918974099E+03  0.47000000000E+01 0. -1.
        -11    1    4    4    0    0  0.59773381509E+02  0.25826605867E+02 -0.35409084491E+03  0.36002805052E+03  0.00000000000E+00 0.  1.
         12    1    4    4    0    0  0.46202357137E+01  0.28354062424E+02 -0.65787737049E+03  0.65850431588E+03  0.00000000000E+00 0. -1.
         -5    1    5    5    0  502 -0.31813831902E+02 -0.49939425131E+02 -0.13783789151E+02  0.60976626063E+02  0.47000000000E+01 0.  1.
         11    1    6    6    0    0 -0.35112876499E+02  0.10354881226E+02 -0.95889189465E+02  0.10263953584E+03  0.00000000000E+00 0. -1.
        -12    1    6    6    0    0  0.45040057742E+02  0.99066841484E+01 -0.10700469932E+03  0.11651933260E+03  0.00000000000E+00 0.  1.
</event>
<event>
12    1  0.8462562E-002  0.2150832E+03  0.7818608E-02  0.1137712E+00
         21   -1    0    0  501  502  0.00000000000E+00  0.00000000000E+00  0.90392287189E+03  0.90392287189E+03  0.00000000000E+00 0. -1.
         21   -1    0    0  502  503 -0.00000000000E+00 -0.00000000000E+00 -0.54097256276E+02  0.54097256276E+02  0.00000000000E+00 0.  1.
         -6    2    1    2    0  503  0.48868007249E+02 -0.11956916525E+03  0.31162491712E+03  0.37864348467E+03  0.17197654522E+03 0.  0.
        -24    2    3    3    0    0  0.39269318640E+02 -0.14304626295E+03  0.31011254287E+03  0.35280385976E+03  0.79350245650E+02 0.  0.
          6    2    1    2  501    0 -0.48868007249E+02  0.11956916525E+03  0.53820069850E+03  0.57937664350E+03  0.17126714732E+03 0.  0.
         24    2    5    5    0    0 -0.15299818809E+02  0.11712310214E+03  0.24188594569E+03  0.28111949063E+03  0.81039816021E+02 0.  0.
          5    1    5    5  501    0 -0.33568188440E+02  0.24460631053E+01  0.29631475282E+03  0.29825715287E+03  0.47000000000E+01 0. -1.
        -11    1    6    6    0    0 -0.35926285482E+02  0.23860488021E+02  0.45240147273E+02  0.62503534319E+02  0.00000000000E+00 0.  1.
         12    1    6    6    0    0  0.20626466673E+02  0.93262614124E+02  0.19664579841E+03  0.21861595631E+03  0.00000000000E+00 0. -1.
         -5    1    3    3    0  503  0.95986886094E+01  0.23477097703E+02  0.15123742416E+01  0.25839624908E+02  0.47000000000E+01 0.  1.
         11    1    4    4    0    0  0.27548337538E+01  0.28068574267E+01  0.65904183809E+02  0.66021428348E+02  0.00000000000E+00 0. -1.
        -12    1    4    4    0    0  0.36514484886E+02 -0.14585312038E+03  0.24420835907E+03  0.28678243142E+03  0.00000000000E+00 0.  1.
</event>
<event>
12    1  0.8462562E-002  0.2473441E+03  0.7818608E-02  0.1115555E+00
         21   -1    0    0  503  502  0.00000000000E+00  0.00000000000E+00  0.16474383336E+03  0.16474383336E+03  0.00000000000E+00 0.  1.
         21   -1    0    0  501  503 -0.00000000000E+00 -0.00000000000E+00 -0.37554475578E+03  0.37554475578E+03  0.00000000000E+00 0. -1.
          6    2    1    2  501    0  0.44075072567E+02 -0.17000094611E+03 -0.14735350316E+03  0.28493652212E+03  0.16921239035E+03 0.  0.
         24    2    3    3    0    0 -0.20741757572E+01 -0.68895856509E+02 -0.70771135695E+01  0.10590706159E+03  0.80095436252E+02 0.  0.
         -6    2    1    2    0  502 -0.44075072567E+02  0.17000094611E+03 -0.63447419259E+02  0.25535206702E+03  0.17417281482E+03 0.  0.
        -24    2    5    5    0    0  0.41904258332E+02  0.64193150831E+02 -0.29730478436E+02  0.11482926823E+03  0.80156921182E+02 0.  0.
          5    1    3    3  501    0  0.46149248324E+02 -0.10110508960E+03 -0.14027638959E+03  0.17902946053E+03  0.47000000000E+01 0. -1.
        -11    1    4    4    0    0  0.16214701957E+02 -0.64030612302E+02 -0.32979725610E+02  0.73827489275E+02  0.00000000000E+00 0.  1.
         12    1    4    4    0    0 -0.18288877714E+02 -0.48652442071E+01  0.25902612041E+02  0.32079572313E+02  0.00000000000E+00 0. -1.
         -5    1    5    5    0  502 -0.85979330899E+02  0.10580779527E+03 -0.33716940824E+02  0.14052279880E+03  0.47000000000E+01 0.  1.
         11    1    6    6    0    0 -0.51442321585E-01  0.96238835436E+01 -0.43568107791E+02  0.44618402003E+02  0.00000000000E+00 0. -1.
        -12    1    6    6    0    0  0.41955700654E+02  0.54569267287E+02  0.13837629356E+02  0.70210866223E+02  0.00000000000E+00 0.  1.
</event>
<event>
12    1  0.8462562E-002  0.2029879E+03  0.7818608E-02  0.1148403E+00
         21   -1    0    0  503  502  0.00000000000E+00  0.00000000000E+00  0.37531940734E+02  0.37531940734E+02  0.00000000000E+00 0.  1.
         21   -1    0    0  501  503 -0.00000000000E+00 -0.00000000000E+00 -0.16416037522E+04  0.16416037522E+04  0.00000000000E+00 0.  1.
          6    2    1    2  501    0  0.20564685192E+02 -0.94137389715E+02 -0.12910162875E+04  0.13060300396E+04  0.17235618735E+03 0.  0.
         24    2    3    3    0    0  0.44776200739E+02 -0.87327969991E+02 -0.55980461004E+03  0.57437084780E+03  0.83003535393E+02 0.  0.
         -6    2    1    2    0  502 -0.20564685192E+02  0.94137389715E+02 -0.31305552394E+03  0.37310565331E+03  0.17865976896E+03 0.  0.
        -24    2    5    5    0    0 -0.34727835329E+02  0.33363958576E+02 -0.56781696791E+02  0.10930199671E+03  0.80022428832E+02 0.  0.
          5    1    3    3  501    0 -0.24211515547E+02 -0.68094197239E+01 -0.73121167749E+03  0.73165919182E+03  0.47000000000E+01 0. -1.
        -11    1    4    4    0    0  0.22483146705E+02 -0.49251041035E+02 -0.48114326908E+03  0.48417972108E+03  0.00000000000E+00 0.  1.
         12    1    4    4    0    0  0.22293054034E+02 -0.38076928956E+02 -0.78661340957E+02  0.90191126715E+02  0.00000000000E+00 0. -1.
         -5    1    5    5    0  502  0.14163150137E+02  0.60773431139E+02 -0.25627382715E+03  0.26380365660E+03  0.47000000000E+01 0.  1.
         13    1    6    6    0    0 -0.12130651917E+02 -0.12850483527E+02 -0.55063876072E+02  0.57830079465E+02  0.00000000000E+00 0. -1.
        -14    1    6    6    0    0 -0.22597183412E+02  0.46214442103E+02 -0.17178207188E+01  0.51471917247E+02  0.00000000000E+00 0.  1.
</event>
<event>
12    1  0.8462562E-002  0.1971527E+03  0.7818608E-02  0.1152398E+00
         21   -1    0    0  503  502  0.00000000000E+00  0.00000000000E+00  0.33854566546E+02  0.33854566546E+02  0.00000000000E+00 0. -1.
         21   -1    0    0  501  503 -0.00000000000E+00 -0.00000000000E+00 -0.12249728550E+04  0.12249728550E+04  0.00000000000E+00 0.  1.
          6    2    1    2  501    0 -0.72158662764E+02  0.68342201201E+02 -0.43308687549E+03  0.47585020918E+03  0.17026934772E+03 0.  0.
         24    2    3    3    0    0 -0.55752629141E+02  0.89585794337E+01 -0.38588699640E+03  0.39809745321E+03  0.79901166862E+02 0.  0.
         -6    2    1    2    0  502  0.72158662764E+02 -0.68342201201E+02 -0.75803141299E+03  0.78297721239E+03  0.16900935765E+03 0.  0.
        -24    2    5    5    0    0  0.24930512843E+02  0.28560770161E+02 -0.32301782403E+03  0.33478127691E+03  0.79377204957E+02 0.  0.
          5    1    3    3  501    0 -0.16406033624E+02  0.59383621767E+02 -0.47199879096E+02  0.77752755965E+02  0.47000000000E+01 0. -1.
        -11    1    4    4    0    0 -0.31433033926E+02  0.44588778194E+02 -0.20457264419E+03  0.21172189663E+03  0.00000000000E+00 0.  1.
         12    1    4    4    0    0 -0.24319595214E+02 -0.35630198760E+02 -0.18131435221E+03  0.18637555658E+03  0.00000000000E+00 0. -1.
         -5    1    5    5    0  502  0.47228149921E+02 -0.96902971362E+02 -0.43501358896E+03  0.44819593548E+03  0.47000000000E+01 0.  1.
         13    1    6    6    0    0  0.17623884175E+02  0.48048202529E+02 -0.11685794503E+03  0.12757354889E+03  0.00000000000E+00 0. -1.
        -14    1    6    6    0    0  0.73066286679E+01 -0.19487432368E+02 -0.20615987900E+03  0.20720772802E+03  0.00000000000E+00 0.  1.
</event>
<event>
12    1  0.8462562E-002  0.2073351E+03  0.7818608E-02  0.1144646E+00
         21   -1    0    0  501  502  0.00000000000E+00  0.00000000000E+00  0.19943057354E+03  0.19943057354E+03  0.00000000000E+00 0. -1.
         21   -1    0    0  502  503 -0.00000000000E+00 -0.00000000000E+00 -0.25323846123E+03  0.25323846123E+03  0.00000000000E+00 0.  1.
         -6    2    1    2    0  503 -0.81065403293E+02  0.80910798959E+02 -0.11989485812E+03  0.23950495136E+03  0.17282849222E+03 0.  0.
        -24    2    3    3    0    0 -0.25888464906E+02  0.10793275628E+03 -0.51449828391E+02  0.14740993086E+03  0.82236916171E+02 0.  0.
          6    2    1    2  501    0  0.81065403293E+02 -0.80910798959E+02  0.66086970440E+02  0.21316408341E+03  0.16719234969E+03 0.  0.
         24    2    5    5    0    0  0.62159053679E+02  0.63901359594E+01  0.45378630815E+01  0.10458560529E+03  0.83743506262E+02 0.  0.
          5    1    5    5  501    0  0.18906349614E+02 -0.87300934919E+02  0.61549107358E+02  0.10857847812E+03  0.47000000000E+01 0. -1.
        -11    1    6    6    0    0  0.14910950279E+02  0.10018776821E+02 -0.37281769117E+02  0.41384086745E+02  0.00000000000E+00 0.  1.
         12    1    6    6    0    0  0.47248103400E+02 -0.36286408612E+01  0.41819632199E+02  0.63201518547E+02  0.00000000000E+00 0. -1.
         -5    1    3    3    0  503 -0.55176938387E+02 -0.27021957317E+02 -0.68445029733E+02  0.92095020506E+02  0.47000000000E+01 0.  1.
         11    1    4    4    0    0  0.16548168562E+02  0.88038325615E+02 -0.22646906808E+02  0.92398436393E+02  0.00000000000E+00 0. -1.
        -12    1    4    4    0    0 -0.42436633469E+02  0.19894430661E+02 -0.28802921583E+02  0.55011494464E+02  0.00000000000E+00 0.  1.
</event>
<event>
12    1  0.8462562E-002  0.3645349E+03  0.7818608E-02  0.1056855E+00
         21   -1    0    0  501  502  0.00000000000E+00  0.00000000000E+00  0.16641683836E+03  0.16641683836E+03  0.00000000000E+00 0.  1.
         21   -1    0    0  502  503 -0.00000000000E+00 -0.00000000000E+00 -0.10242683764E+04  0.10242683764E+04  0.00000000000E+00 0.  1.
         -6    2    1    2    0  503 -0.30017855477E+03 -0.11625125492E+03 -0.70890746405E+03  0.79689589956E+03  0.16991693012E+03 0.  0.
        -24    2    3    3    0    0 -0.12891098977E+03 -0.10175221860E+03 -0.27165139528E+03  0.32704724249E+03  0.78701086339E+02 0.  0.
          6    2    1    2  501    0  0.30017855477E+03  0.11625125492E+03 -0.14894407404E+03  0.39378931525E+03  0.17106773102E+03 0.  0.
         24    2    5    5    0    0  0.11914485464E+03  0.10843656321E+03 -0.10203633755E+03  0.20655498150E+03  0.79369777477E+02 0.  0.
          5    1    5    5  501    0  0.18103370013E+03  0.78146917150E+01 -0.46907736490E+02  0.18723433374E+03  0.47000000000E+01 0. -1.
        -11    1    6    6    0    0  0.10286470650E+03  0.69567733109E+02 -0.37940786783E+02  0.12984729737E+03  0.00000000000E+00 0.  1.
         12    1    6    6    0    0  0.16280148135E+02  0.38868830097E+02 -0.64095550765E+02  0.76707684128E+02  0.00000000000E+00 0. -1.
         -5    1    3    3    0  503 -0.17126756500E+03 -0.14499036319E+02 -0.43725606877E+03  0.46984865707E+03  0.47000000000E+01 0.  1.
         11    1    4    4    0    0 -0.43115995097E+01  0.10044141500E+02 -0.45869656756E+01  0.11853899059E+02  0.00000000000E+00 0. -1.
        -12    1    4    4    0    0 -0.12459939026E+03 -0.11179636010E+03 -0.26706442960E+03  0.31519334343E+03  0.00000000000E+00 0.  1.
</event>
<event>
12    1  0.8462562E-002  0.1793969E+03  0.7818608E-02  0.1168896E+00
         21   -1    0    0  503  502  0.00000000000E+00  0.00000000000E+00  0.35647850584E+03  0.35647850584E+03  0.00000000000E+00 0. -1.
         21   -1    0    0  501  503 -0.00000000000E+00 -0.00000000000E+00 -0.89252928533E+02  0.89252928533E+02  0.00000000000E+00 0. -1.
          6    2    1    2  501    0  0.14033141664E+02 -0.38938014161E+02  0.13713404395E+03  0.22580739278E+03  0.17455696667E+03 0.  0.
         24    2    3    3    0    0 -0.23100769028E+02 -0.59383561847E+02  0.14984941279E+03  0.18130213075E+03  0.79721785937E+02 0.  0.
         -6    2    1    2    0  502 -0.14033141664E+02  0.38938014161E+02  0.13009153335E+03  0.21992404159E+03  0.17242296543E+03 0.  0.
        -24    2    5    5    0    0  0.74021141197E+01 -0.15883144715E+02  0.13986366194E+03  0.16007076976E+03  0.75853423270E+02 0.  0.
          5    1    3    3  501    0  0.37133910693E+02  0.20445547686E+02 -0.12715368841E+02  0.44505262029E+02  0.47000000000E+01 0. -1.
        -11    1    4    4    0    0  0.25860191444E+02 -0.39430765929E+02  0.52840492474E+02  0.70821271156E+02  0.00000000000E+00 0.  1.
         12    1    4    4    0    0 -0.48960960473E+02 -0.19952795919E+02  0.97008920316E+02  0.11048085959E+03  0.00000000000E+00 0. -1.
         -5    1    5    5    0  502 -0.21435255784E+02  0.54821158876E+02 -0.97721285891E+01  0.59853271826E+02  0.47000000000E+01 0.  1.
         11    1    6    6    0    0  0.17851329107E+02  0.19790613004E+02  0.10759259709E+03  0.11084450939E+03  0.00000000000E+00 0. -1.
        -12    1    6    6    0    0 -0.10449214987E+02 -0.35673757719E+02  0.32271064856E+02  0.49226260376E+02  0.00000000000E+00 0.  1.
</event>
<event>
12    1  0.8462562E-002  0.1841027E+03  0.7818608E-02  0.1163912E+00
         21   -1    0    0  503  502  0.00000000000E+00  0.00000000000E+00  0.79960576158E+02  0.79960576158E+02  0.00000000000E+00 0. -1.
         21   -1    0    0  501  503 -0.00000000000E+00 -0.00000000000E+00 -0.11153031496E+04  0.11153031496E+04  0.00000000000E+00 0. -1.
          6    2    1    2  501    0 -0.55394567640E+02  0.32703840925E+02 -0.98824746786E+03  0.10052328430E+04  0.17240043975E+03 0.  0.
         24    2    3    3    0    0 -0.37634962646E+02 -0.15548678313E+02 -0.88837173314E+03  0.89280081214E+03  0.78935429989E+02 0.  0.
         -6    2    1    2    0  502  0.55394567640E+02 -0.32703840925E+02 -0.47095105555E+02  0.19003088271E+03  0.17249837124E+03 0.  0.
        -24    2    5    5    0    0  0.22053639276E+02  0.52762492660E+02 -0.16844796174E+01  0.87559781275E+02  0.66284494328E+02 0.  0.
          5    1    3    3  501    0 -0.17759604995E+02  0.48252519239E+02 -0.99875734719E+02  0.11243203088E+03  0.47000000000E+01 0. -1.
        -11    1    4    4    0    0 -0.30268559234E+02  0.29986391222E+02 -0.40702562969E+03  0.40924959690E+03  0.00000000000E+00 0.  1.
         12    1    4    4    0    0 -0.73664034117E+01 -0.45535069536E+02 -0.48134610345E+03  0.48355121525E+03  0.00000000000E+00 0. -1.
         -5    1    5    5    0  502  0.33340928364E+02 -0.85466333585E+02 -0.45410625938E+02  0.10247110143E+03  0.47000000000E+01 0.  1.
         13    1    6    6    0    0  0.45547217168E+02  0.38739435947E+02  0.26781583170E+01  0.59853700147E+02  0.00000000000E+00 0. -1.
        -14    1    6    6    0    0 -0.23493577892E+02  0.14023056713E+02 -0.43626379343E+01  0.27706081128E+02  0.00000000000E+00 0.  1.
</event>
<event>
12    1  0.8462562E-002  0.2692226E+03  0.7818608E-02  0.1102139E+00
         21   -1    0    0  501  502  0.00000000000E+00  0.00000000000E+00  0.10468606318E+03  0.10468606318E+03  0.00000000000E+00 0. -1.
         21   -1    0    0  502  503 -0.00000000000E+00 -0.00000000000E+00 -0.15537440733E+04  0.15537440733E+04  0.00000000000E+00 0.  1.
         -6    2    1    2    0  503  0.16323520788E+03  0.12342276022E+03 -0.10278869904E+03  0.28550556517E+03  0.17049633505E+03 0.  0.
        -24    2    3    3    0    0  0.42857850839E+02  0.10812489749E+03 -0.78985864762E+02  0.16175825162E+03  0.79994851712E+02 0.  0.
          6    2    1    2  501    0 -0.16323520788E+03 -0.12342276022E+03 -0.13462693111E+04  0.13729245713E+04  0.17493401531E+03 0.  0.
         24    2    5    5    0    0 -0.33597088662E+02 -0.48008055052E+02 -0.30031414775E+03  0.31626108968E+03  0.79993448418E+02 0.  0.
          5    1    5    5  501    0 -0.12963811921E+03 -0.75414705168E+02 -0.10459551634E+04  0.10566634817E+04  0.47000000000E+01 0. -1.
        -11    1    6    6    0    0 -0.56196756381E+02 -0.25228444225E+02 -0.14293037916E+03  0.15563946515E+03  0.00000000000E+00 0.  1.
         12    1    6    6    0    0  0.22599667719E+02 -0.22779610827E+02 -0.15738376859E+03  0.16062162453E+03  0.00000000000E+00 0. -1.
         -5    1    3    3    0  503  0.12037735704E+03  0.15297862733E+02 -0.23802834275E+02  0.12374731355E+03  0.47000000000E+01 0.  1.
         11    1    4    4    0    0 -0.12695404751E+02  0.69309821066E+02 -0.23840734673E+02  0.74386861930E+02  0.00000000000E+00 0. -1.
        -12    1    4    4    0    0  0.55553255590E+02  0.38815076421E+02 -0.55145130089E+02  0.87371389692E+02  0.00000000000E+00 0.  1.
</event>
<event>
12    1  0.8462562E-002  0.3145249E+03  0.7818608E-02  0.1078202E+00
         21   -1    0    0  501  502  0.00000000000E+00  0.00000000000E+00  0.18596367172E+04  0.18596367172E+04  0.00000000000E+00 0. -1.
         21   -1    0    0  502  503 -0.00000000000E+00 -0.00000000000E+00 -0.10090151270E+03  0.10090151270E+03  0.00000000000E+00 0.  1.
         -6    2    1    2    0  503  0.20621765368E+03 -0.16373469533E+03  0.20531813544E+03  0.37560806570E+03  0.17202067066E+03 0.  0.
        -24    2    3    3    0    0  0.21190853822E+02 -0.37068072612E+02  0.64059255056E+02  0.11055050353E+03  0.79339343200E+02 0.  0.
          6    2    1    2  501    0 -0.20621765368E+03  0.16373469533E+03  0.15534170691E+04  0.15849301642E+04  0.17194261782E+03 0.  0.
         24    2    5    5    0    0 -0.88120419159E+02  0.17993585403E+02  0.77636397688E+03  0.78554225712E+03  0.79035661209E+02 0.  0.
          5    1    5    5  501    0 -0.11809723452E+03  0.14574110993E+03  0.77705309219E+03  0.79938790710E+03  0.47000000000E+01 0. -1.
        -11    1    6    6    0    0  0.40406998263E+01 -0.15949725363E+01  0.29564151562E+03  0.29567342956E+03  0.00000000000E+00 0.  1.
         12    1    6    6    0    0 -0.92161118986E+02  0.19588557940E+02  0.48072246126E+03  0.48986882756E+03  0.00000000000E+00 0. -1.
         -5    1    3    3    0  503  0.18502679986E+03 -0.12666662272E+03  0.14125888039E+03  0.26505756217E+03  0.47000000000E+01 0.  1.
         11    1    4    4    0    0  0.34496495250E+02  0.13235724180E+02  0.18180133767E+02  0.41178997595E+02  0.00000000000E+00 0. -1.
        -12    1    4    4    0    0 -0.13305641428E+02 -0.50303796792E+02  0.45879121289E+02  0.69371505935E+02  0.00000000000E+00 0.  1.
</event>
<event>
12    1  0.8462562E-002  0.2947916E+03  0.7818608E-02  0.1088132E+00
         21   -1    0    0  503  502  0.00000000000E+00  0.00000000000E+00  0.11363196808E+04  0.11363196808E+04  0.00000000000E+00 0.  1.
         21   -1    0    0  501  503 -0.00000000000E+00 -0.00000000000E+00 -0.80574511950E+02  0.80574511950E+02  0.00000000000E+00 0.  1.
          6    2    1    2  501    0 -0.20514061096E+03 -0.12409744445E+03  0.38046369756E+03  0.48007186382E+03  0.16802834072E+03 0.  0.
         24    2    3    3    0    0 -0.87340275080E+02 -0.26906775130E+02  0.87795647554E+02  0.14992095464E+03  0.80099430159E+02 0.  0.
         -6    2    1    2    0  502  0.20514061096E+03  0.12409744445E+03  0.67528147129E+03  0.73682232893E+03  0.17152035728E+03 0.  0.
        -24    2    5    5    0    0  0.48839406501E+02 -0.20107783970E+01  0.17067913337E+03  0.19370267377E+03  0.77459850256E+02 0.  0.
          5    1    3    3  501    0 -0.11780033588E+03 -0.97190669322E+02  0.29266805001E+03  0.33015090918E+03  0.47000000000E+01 0. -1.
        -13    1    4    4    0    0 -0.88043473597E+02 -0.38860991444E+02  0.95581135691E+02  0.13563769166E+03  0.00000000000E+00 0.  1.
         14    1    4    4    0    0  0.70319851664E+00  0.11954216314E+02 -0.77854881363E+01  0.14283262980E+02  0.00000000000E+00 0. -1.
         -5    1    5    5    0  502  0.15630120446E+03  0.12610822285E+03  0.50460233792E+03  0.54311965516E+03  0.47000000000E+01 0.  1.
         13    1    6    6    0    0  0.10193473598E+02  0.24559676867E+01 -0.64776089491E+01  0.12324694681E+02  0.00000000000E+00 0. -1.
        -14    1    6    6    0    0  0.38645932903E+02 -0.44667460837E+01  0.17715674232E+03  0.18137797909E+03  0.00000000000E+00 0.  1.
</event>
<event>
12    1  0.8462562E-002  0.1738268E+03  0.7818608E-02  0.1174015E+00
         21   -1    0    0  501  502  0.00000000000E+00  0.00000000000E+00  0.10976392723E+03  0.10976392723E+03  0.00000000000E+00 0. -1.
         21   -1    0    0  502  503 -0.00000000000E+00 -0.00000000000E+00 -0.35286858179E+03  0.35286858179E+03  0.00000000000E+00 0. -1.
         -6    2    1    2    0  503 -0.37623902700E+02 -0.49381062104E+01 -0.23034807383E+03  0.28833825326E+03  0.16922993301E+03 0.  0.
        -24    2    3    3    0    0 -0.23293383729E+02  0.10479605673E+02 -0.24732753259E+03  0.26088899765E+03  0.78992131628E+02 0.  0.
          6    2    1    2  501    0  0.37623902700E+02  0.49381062104E+01 -0.12756580724E+02  0.17429425577E+03  0.16963435470E+03 0.  0.
         24    2    5    5    0    0 -0.40365222349E+02  0.18166706211E+02 -0.17379005035E+02  0.94916952396E+02  0.82145101171E+02 0.  0.
          5    1    5    5  501    0  0.77989125049E+02 -0.13228600001E+02  0.46224243118E+01  0.79377303371E+02  0.47000000000E+01 0. -1.
        -13    1    6    6    0    0 -0.38162946451E+01  0.23969022581E+02 -0.43366943954E+02  0.49696780340E+02  0.00000000000E+00 0.  1.
         14    1    6    6    0    0 -0.36548927704E+02 -0.58023163702E+01  0.25987938918E+02  0.45220172056E+02  0.00000000000E+00 0. -1.
         -5    1    3    3    0  503 -0.14330518972E+02 -0.15417711884E+02  0.16979458756E+02  0.27449255607E+02  0.47000000000E+01 0.  1.
         11    1    4    4    0    0 -0.52346010380E+02  0.16610265631E+01 -0.16675383771E+03  0.17478474248E+03  0.00000000000E+00 0. -1.
        -12    1    4    4    0    0  0.29052626651E+02  0.88185791103E+01 -0.80573694878E+02  0.86104255175E+02  0.00000000000E+00 0.  1.
</event>
<event>
12    1  0.8462562E-002  0.2107007E+03  0.7818608E-02  0.1142247E+00
         21   -1    0    0  501  502  0.00000000000E+00  0.00000000000E+00  0.46219367225E+03  0.46219367225E+03  0.00000000000E+00 0. -1.
         21   -1    0    0  502  503 -0.00000000000E+00 -0.00000000000E+00 -0.99840852856E+02  0.99840852856E+02  0.00000000000E+00 0. -1.
         -6    2    1    2    0  503  0.55852178232E+02  0.10470544037E+03  0.11156295761E+03  0.23841370105E+03  0.17410371703E+03 0.  0.
        -24    2    3    3    0    0  0.61537798890E+02  0.98898535212E+02  0.13911725820E+02  0.14031222553E+03  0.76981579343E+02 0.  0.
          6    2    1    2  501    0 -0.55852178232E+02 -0.10470544037E+03  0.25078986178E+03  0.32362082406E+03  0.16658987944E+03 0.  0.
         24    2    5    5    0    0 -0.24496386088E+02 -0.88350443746E+02  0.25943062600E+03  0.28691354383E+03  0.81297343640E+02 0.  0.
          5    1    5    5  501    0 -0.31355792144E+02 -0.16354996623E+02 -0.86407642153E+01  0.36707280229E+02  0.47000000000E+01 0. -1.
        -11    1    6    6    0    0 -0.37623581648E+02 -0.19688297196E+02  0.15883572845E+03  0.16441396405E+03  0.00000000000E+00 0.  1.
         12    1    6    6    0    0  0.13127195561E+02 -0.68662146550E+02  0.10059489755E+03  0.12249957977E+03  0.00000000000E+00 0. -1.
         -5    1    3    3    0  503 -0.56856206583E+01  0.58069051583E+01  0.97651231790E+02  0.98101475524E+02  0.47000000000E+01 0.  1.
         11    1    4    4    0    0  0.14727204720E+01  0.74654661245E+02  0.39119279443E+01  0.74771589066E+02  0.00000000000E+00 0. -1.
        -12    1    4    4    0    0  0.60065078418E+02  0.24243873966E+02  0.99997978759E+01  0.65540636462E+02  0.00000000000E+00 0.  1.
</event>
<event>
12    1  0.8462562E-002  0.1761127E+03  0.7818608E-02  0.1173034E+00
         21   -1    0    0  503  502  0.00000000000E+00  0.00000000000E+00  0.79106399048E+03  0.79106399048E+03  0.00000000000E+00 0.  1.
         21   -1    0    0  501  503 -0.00000000000E+00 -0.00000000000E+00 -0.82064780643E+02  0.82064780643E+02  0.00000000000E+00 0.  1.
          6    2    1    2  501    0  0.22376726244E+02 -0.31437864579E+02  0.67711841008E+03  0.69964635756E+03  0.17183313757E+03 0.  0.
         24    2    3    3    0    0 -0.25536386663E+02 -0.44906627865E+02  0.22265663775E+03  0.24244326649E+03  0.80833451378E+02 0.  0.
         -6    2    1    2    0  502 -0.22376726244E+02  0.31437864579E+02  0.31880799751E+02  0.17348241356E+03  0.16610450089E+03 0.  0.
        -24    2    5    5    0    0  0.36053085725E+02 -0.52616964441E+01  0.42275966929E+02  0.10354636987E+03  0.87218592594E+02 0.  0.
          5    1    3    3  501    0  0.47913112907E+02  0.13468763286E+02  0.45446177234E+03  0.45720309107E+03  0.47000000000E+01 0. -1.
        -13    1    4    4    0    0 -0.23411452838E+02 -0.37191756187E+02  0.22840245155E+03  0.23259192318E+03  0.00000000000E+00 0.  1.
         14    1    4    4    0    0 -0.21249338254E+01 -0.77148716786E+01 -0.57458138029E+01  0.98513433113E+01  0.00000000000E+00 0. -1.
         -5    1    5    5    0  502 -0.58429811969E+02  0.36699561024E+02 -0.10395167178E+02  0.69936043688E+02  0.47000000000E+01 0.  1.
         13    1    6    6    0    0  0.12842106003E+02 -0.26060028206E+02  0.60733650160E+02  0.67324742989E+02  0.00000000000E+00 0. -1.
        -14    1    6    6    0    0  0.23210979722E+02  0.20798331762E+02 -0.18457683231E+02  0.36221626883E+02  0.00000000000E+00 0.  1.
</event>
<event>
12    1  0.8462562E-002  0.1747773E+03  0.7818608E-02  0.1173055E+00
         21   -1    0    0  501  502  0.00000000000E+00  0.00000000000E+00  0.12487400515E+02  0.12487400515E+02  0.00000000000E+00 0.  1.
         21   -1    0    0  502  503 -0.00000000000E+00 -0.00000000000E+00 -0.24454126676E+04  0.24454126676E+04  0.00000000000E+00 0.  1.
         -6    2    1    2    0  503 -0.15690964501E+02  0.29884267746E+02 -0.12716838492E+04  0.12836381561E+04  0.17148710574E+03 0.  0.
        -24    2    3    3    0    0 -0.67707107368E+01  0.99910120874E+01 -0.12496689803E+04  0.12523003674E+04  0.80237066301E+02 0.  0.
          6    2    1    2  501    0  0.15690964501E+02 -0.29884267746E+02 -0.11612414179E+04  0.11742619121E+04  0.17108515942E+03 0.  0.
         24    2    5    5    0    0  0.34187136779E+02 -0.57637765065E+02 -0.10944413689E+04  0.10994508064E+04  0.80618194524E+02 0.  0.
          5    1    5    5  501    0 -0.18496172278E+02  0.27753497319E+02 -0.66800048958E+02  0.74811105747E+02  0.47000000000E+01 0. -1.
        -13    1    6    6    0    0 -0.50330302008E+01 -0.34916347081E+02 -0.15701019917E+03  0.16092447089E+03  0.00000000000E+00 0.  1.
         14    1    6    6    0    0  0.39220166980E+02 -0.22721417984E+02 -0.93743116975E+03  0.93852633546E+03  0.00000000000E+00 0. -1.
         -5    1    3    3    0  503 -0.89202537646E+01  0.19893255659E+02 -0.22014868905E+02  0.31337788704E+02  0.47000000000E+01 0.  1.
         13    1    4    4    0    0  0.22002554625E+02 -0.26101602660E+02 -0.44417743201E+03  0.44548737039E+03  0.00000000000E+00 0. -1.
        -14    1    4    4    0    0 -0.28773265362E+02  0.36092614748E+02 -0.80549154832E+03  0.80681299696E+03  0.00000000000E+00 0.  1.
</event>
<event>
12    1  0.8462562E-002  0.1743143E+03  0.7818608E-02  0.1173941E+00
         21   -1    0    0  503  502  0.00000000000E+00  0.00000000000E+00  0.55182492628E+03  0.55182492628E+03  0.00000000000E+00 0. -1.
         21   -1    0    0  501  503 -0.00000000000E+00 -0.00000000000E+00 -0.61019042201E+02  0.61019042201E+02  0.00000000000E+00 0. -1.
          6    2    1    2  501    0 -0.14083047810E+02 -0.21384329421E+02  0.14592168940E+03  0.22732932984E+03  0.17242349894E+03 0.  0.
         24    2    3    3    0    0 -0.28985022973E+02  0.16232070600E+02  0.10903647114E+02  0.86300878251E+02  0.78900826319E+02 0.  0.
         -6    2    1    2    0  502  0.14083047810E+02  0.21384329421E+02  0.34488419468E+03  0.38551463864E+03  0.17035494442E+03 0.  0.
        -24    2    5    5    0    0  0.37470599796E+02 -0.30298880642E+02  0.29625016715E+03  0.31064481545E+03  0.80087276244E+02 0.  0.
          5    1    3    3  501    0  0.14901975164E+02 -0.37616400021E+02  0.13501804229E+03  0.14102845159E+03  0.47000000000E+01 0. -1.
        -11    1    4    4    0    0  0.10510484603E+02  0.38583145678E+02  0.83240348682E+01  0.40846284697E+02  0.00000000000E+00 0.  1.
         12    1    4    4    0    0 -0.39495507577E+02 -0.22351075079E+02  0.25796122458E+01  0.45454593555E+02  0.00000000000E+00 0. -1.
         -5    1    5    5    0  502 -0.23387551987E+02  0.51683210063E+02  0.48634027532E+02  0.74869823189E+02  0.47000000000E+01 0.  1.
         13    1    6    6    0    0 -0.21914128677E+02 -0.11344177390E+01  0.36383534146E+02  0.42488557239E+02  0.00000000000E+00 0. -1.
        -14    1    6    6    0    0  0.59384728474E+02 -0.29164462903E+02  0.25986663300E+03  0.26815625821E+03  0.00000000000E+00 0.  1.
</event>
<event>
12    1  0.8462562E-002  0.1796623E+03  0.7818608E-02  0.1168945E+00
         21   -1    0    0  501  502  0.00000000000E+00  0.00000000000E+00  0.22750550463E+03  0.22750550463E+03  0.00000000000E+00 0. -1.
         21   -1    0    0  502  503 -0.00000000000E+00 -0.00000000000E+00 -0.50838829573E+03  0.50838829573E+03  0.00000000000E+00 0. -1.
         -6    2    1    2    0  503 -0.22785316717E+02  0.35954918110E+02 -0.45360302836E+03  0.48667335812E+03  0.17112370782E+03 0.  0.
        -24    2    3    3    0    0  0.33599147121E+02  0.19184015640E+02 -0.38984690260E+03  0.39979755883E+03  0.79753065356E+02 0.  0.
          6    2    1    2  501    0  0.22785316717E+02 -0.35954918110E+02  0.17272023726E+03  0.24922044224E+03  0.17454690394E+03 0.  0.
         24    2    5    5    0    0  0.36368269241E+02 -0.64217294066E+02  0.18580917215E+03  0.21491783723E+03  0.78855034334E+02 0.  0.
          5    1    5    5  501    0 -0.13582952524E+02  0.28262375956E+02 -0.13088934889E+02  0.34302605010E+02  0.47000000000E+01 0. -1.
        -13    1    6    6    0    0 -0.12114847299E+02 -0.57841367436E+02  0.10279016419E+03  0.11856732757E+03  0.00000000000E+00 0.  1.
         14    1    6    6    0    0  0.48483116540E+02 -0.63759266298E+01  0.83019007952E+02  0.96350509657E+02  0.00000000000E+00 0. -1.
         -5    1    3    3    0  503 -0.56384463838E+02  0.16770902470E+02 -0.63756125754E+02  0.86875799295E+02  0.47000000000E+01 0.  1.
         13    1    4    4    0    0 -0.96952815765E+01  0.24732969593E+02 -0.28489585390E+03  0.28613172812E+03  0.00000000000E+00 0. -1.
        -14    1    4    4    0    0  0.43294428698E+02 -0.55489539529E+01 -0.10495104871E+03  0.11366583071E+03  0.00000000000E+00 0.  1.
</event>
<event>
12    1  0.8462562E-002  0.1754910E+03  0.7818608E-02  0.1172378E+00
         21   -1    0    0  503  502  0.00000000000E+00  0.00000000000E+00  0.37136107310E+03  0.37136107310E+03  0.00000000000E+00 0.  1.
         21   -1    0    0  501  503 -0.00000000000E+00 -0.00000000000E+00 -0.10144083360E+03  0.10144083360E+03  0.00000000000E+00 0.  1.
          6    2    1    2  501    0 -0.26062621799E+02  0.21537919711E+02  0.33441042714E+02  0.17864877912E+03  0.17220319598E+03 0.  0.
         24    2    3    3    0    0  0.20685207788E+02  0.20929679593E+02  0.77351811108E+02  0.11433723189E+03  0.78890877830E+02 0.  0.
         -6    2    1    2    0  502  0.26062621799E+02 -0.21537919711E+02  0.23647919679E+03  0.29415312758E+03  0.17164064120E+03 0.  0.
        -24    2    5    5    0    0  0.75276746838E+02 -0.39074502751E+02  0.12505441142E+03  0.17099820628E+03  0.80052328846E+02 0.  0.
          5    1    3    3  501    0 -0.46747829587E+02  0.60824011773E+00 -0.43910768394E+02  0.64311547237E+02  0.47000000000E+01 0. -1.
        -13    1    4    4    0    0 -0.11272022168E+02 -0.21396247440E+02  0.51098754560E+01  0.24717781362E+02  0.00000000000E+00 0.  1.
         14    1    4    4    0    0  0.31957229956E+02  0.42325927034E+02  0.72241935652E+02  0.89619450525E+02  0.00000000000E+00 0. -1.
         -5    1    5    5    0  502 -0.49214125039E+02  0.17536583040E+02  0.11142478536E+03  0.12315492130E+03  0.47000000000E+01 0.  1.
         11    1    6    6    0    0  0.15427476679E+02  0.66141026321E+01 -0.76299828146E+01  0.18438276168E+02  0.00000000000E+00 0. -1.
        -12    1    6    6    0    0  0.59849270159E+02 -0.45688605383E+02  0.13268439424E+03  0.15255993011E+03  0.00000000000E+00 0.  1.
</event>
<event>
12    1  0.8462562E-002  0.1828541E+03  0.7818608E-02  0.1165226E+00
         21   -1    0    0  503  502  0.00000000000E+00  0.00000000000E+00  0.70255753772E+02  0.70255753772E+02  0.00000000000E+00 0. -1.
         21   -1    0    0  501  503 -0.00000000000E+00 -0.00000000000E+00 -0.90190013291E+03  0.90190013291E+03  0.00000000000E+00 0. -1.
          6    2    1    2  501    0  0.14015042375E+02 -0.59620919997E+02 -0.75095011137E+03  0.77289176761E+03  0.17229201713E+03 0.  0.
         24    2    3    3    0    0 -0.23263993942E+02 -0.58054048137E+02 -0.22514433836E+03  0.24574284884E+03  0.76079489621E+02 0.  0.
         -6    2    1    2    0  502 -0.14015042375E+02  0.59620919997E+02 -0.80694267771E+02  0.19926411907E+03  0.17159122583E+03 0.  0.
        -24    2    5    5    0    0  0.33710239795E+02  0.53207533914E+02  0.31217614901E+01  0.10248575971E+03  0.80784674389E+02 0.  0.
          5    1    3    3  501    0  0.37279036317E+02 -0.15668718606E+01 -0.52580577301E+03  0.52714891878E+03  0.47000000000E+01 0. -1.
        -11    1    4    4    0    0 -0.45503371501E+02 -0.18866581961E+02 -0.81833917323E+02  0.95515939807E+02  0.00000000000E+00 0.  1.
         12    1    4    4    0    0  0.22239377560E+02 -0.39187466176E+02 -0.14331042103E+03  0.15022690903E+03  0.00000000000E+00 0. -1.
         -5    1    5    5    0  502 -0.47725282170E+02  0.64133860832E+01 -0.83816029261E+02  0.96778359360E+02  0.47000000000E+01 0.  1.
         11    1    6    6    0    0  0.21065832742E+01  0.67633447544E+02  0.85881685309E+00  0.67671696344E+02  0.00000000000E+00 0. -1.
        -12    1    6    6    0    0  0.31603656521E+02 -0.14425913629E+02  0.22629446370E+01  0.34814063365E+02  0.00000000000E+00 0.  1.
</event>
<event>
12    1  0.8462562E-002  0.2513998E+03  0.7818608E-02  0.1112729E+00
         21   -1    0    0  501  502  0.00000000000E+00  0.00000000000E+00  0.97053794780E+03  0.97053794780E+03  0.00000000000E+00 0.  1.
         21   -1    0    0  502  503 -0.00000000000E+00 -0.00000000000E+00 -0.20411967651E+03  0.20411967651E+03  0.00000000000E+00 0. -1.
         -6    2    1    2    0  503  0.13911885662E+03  0.11889249778E+03 -0.10280105044E+03  0.26981283036E+03  0.16953296187E+03 0.  0.
        -24    2    3    3    0    0  0.32646035265E+02  0.14921443960E+02 -0.83481605180E+02  0.11967365265E+03  0.77872919723E+02 0.  0.
          6    2    1    2  501    0 -0.13911885662E+03 -0.11889249778E+03  0.86921932174E+03  0.90484479395E+03  0.17237282138E+03 0.  0.
         24    2    5    5    0    0 -0.92415698235E+02 -0.15107625537E+03  0.69481273858E+03  0.72138709990E+03  0.79182763233E+02 0.  0.
          5    1    5    5  501    0 -0.46703158382E+02  0.32183757585E+02  0.17440658316E+03  0.18345769404E+03  0.47000000000E+01 0. -1.
        -11    1    6    6    0    0 -0.82365168780E+02 -0.84695996708E+02  0.53779204528E+03  0.55061576154E+03  0.00000000000E+00 0.  1.
         12    1    6    6    0    0 -0.10050529455E+02 -0.66380258658E+02  0.15702069330E+03  0.17077133836E+03  0.00000000000E+00 0. -1.
         -5    1    3    3    0  503  0.10647282135E+03  0.10397105382E+03 -0.19319445264E+02  0.15013917771E+03  0.47000000000E+01 0.  1.
         11    1    4    4    0    0  0.68646120947E+01  0.45342639602E+02 -0.43672770191E+02  0.63327630000E+02  0.00000000000E+00 0. -1.
        -12    1    4    4    0    0  0.25781423171E+02 -0.30421195642E+02 -0.39808834989E+02  0.56346022648E+02  0.00000000000E+00 0.  1.
</event>
<event>
12    1  0.8462562E-002  0.1888750E+03  0.7818608E-02  0.1161510E+00
         21   -1    0    0  501  502  0.00000000000E+00  0.00000000000E+00  0.63649763162E+03  0.63649763162E+03  0.00000000000E+00 0. -1.
         21   -1    0    0  502  503 -0.00000000000E+00 -0.00000000000E+00 -0.53626236008E+02  0.53626236008E+02  0.00000000000E+00 0. -1.
         -6    2    1    2    0  503 -0.73212897536E+02  0.20971603955E+02  0.31557400505E+03  0.36777810570E+03  0.17284052138E+03 0.  0.
        -24    2    3    3    0    0 -0.11083744227E+03  0.43135371220E+02  0.21771255309E+03  0.26051304743E+03  0.79515364869E+02 0.  0.
          6    2    1    2  501    0  0.73212897536E+02 -0.20971603955E+02  0.26729739057E+03  0.32234576194E+03  0.16327571373E+03 0.  0.
         24    2    5    5    0    0  0.41672809244E+02  0.37687575683E+02  0.21450786245E+03  0.23723112862E+03  0.84309008666E+02 0.  0.
          5    1    5    5  501    0  0.31540088292E+02 -0.58659179638E+02  0.52789528121E+02  0.85114633316E+02  0.47000000000E+01 0. -1.
        -11    1    6    6    0    0 -0.76437256730E+01  0.45030378455E+02  0.63613447563E+02  0.78312401552E+02  0.00000000000E+00 0.  1.
         12    1    6    6    0    0  0.49316534917E+02 -0.73428027726E+01  0.15089441489E+03  0.15891872707E+03  0.00000000000E+00 0. -1.
         -5    1    3    3    0  503  0.37624544733E+02 -0.22163767264E+02  0.97861451958E+02  0.10726505827E+03  0.47000000000E+01 0.  1.
         11    1    4    4    0    0 -0.35661526201E+02  0.44777156371E+02  0.47329489684E+02  0.74275290490E+02  0.00000000000E+00 0. -1.
        -12    1    4    4    0    0 -0.75175916068E+02 -0.16417851510E+01  0.17038306340E+03  0.18623775694E+03  0.00000000000E+00 0.  1.
</event>
<event>
12    1  0.8462562E-002  0.2486245E+03  0.7818608E-02  0.1114330E+00
         21   -1    0    0  503  502  0.00000000000E+00  0.00000000000E+00  0.78230054336E+02  0.78230054336E+02  0.00000000000E+00 0. -1.
         21   -1    0    0  501  503 -0.00000000000E+00 -0.00000000000E+00 -0.11233724552E+04  0.11233724552E+04  0.00000000000E+00 0.  1.
          6    2    1    2  501    0  0.11565541879E+02  0.17760253109E+03 -0.85056970903E+03  0.88589271345E+03  0.17222267274E+03 0.  0.
         24    2    3    3    0    0  0.61906144851E+02  0.16857792998E+03 -0.65216322914E+03  0.68094676693E+03  0.78235111657E+02 0.  0.
         -6    2    1    2    0  502 -0.11565541879E+02 -0.17760253109E+03 -0.19457269185E+03  0.31570979611E+03  0.17360219508E+03 0.  0.
        -24    2    5    5    0    0  0.42622504179E+02 -0.61805090550E+02 -0.45852145888E+02  0.11953313500E+03  0.80927152430E+02 0.  0.
          5    1    3    3  501    0 -0.50340602972E+02  0.90246011172E+01 -0.19840647989E+03  0.20494594652E+03  0.47000000000E+01 0. -1.
        -11    1    4    4    0    0  0.39877999811E+02  0.21622497013E+02 -0.11544000841E+03  0.12403299073E+03  0.00000000000E+00 0.  1.
         12    1    4    4    0    0  0.22028145040E+02  0.14695543296E+03 -0.53672322073E+03  0.55691377620E+03  0.00000000000E+00 0. -1.
         -5    1    5    5    0  502 -0.54188046057E+02 -0.11579744054E+03 -0.14872054596E+03  0.19617666111E+03  0.47000000000E+01 0.  1.
         13    1    6    6    0    0  0.52230940760E+02 -0.77019585576E+01 -0.94903905143E+01  0.53641950472E+02  0.00000000000E+00 0. -1.
        -14    1    6    6    0    0 -0.96084365811E+01 -0.54103131993E+02 -0.36361755374E+02  0.65891184530E+02  0.00000000000E+00 0.  1.
</event>
<event>
12    1  0.8462562E-002  0.1917159E+03  0.7818608E-02  0.1156964E+00
         21   -1    0    0  503  502  0.00000000000E+00  0.00000000000E+00  0.13378564203E+03  0.13378564203E+03  0.00000000000E+00 0.  1.
         21   -1    0    0  501  503 -0.00000000000E+00 -0.00000000000E+00 -0.27446548793E+03  0.27446548793E+03  0.00000000000E+00 0. -1.
          6    2    1    2  501    0  0.82373314966E+02  0.22311077616E+02 -0.70003595111E+02  0.20409675403E+03  0.17167362778E+03 0.  0.
         24    2    3    3    0    0 -0.10372704827E+02  0.13500391134E+01 -0.68817926924E+02  0.10888811403E+03  0.83733498074E+02 0.  0.
         -6    2    1    2    0  502 -0.82373314966E+02 -0.22311077616E+02 -0.70676250791E+02  0.20415437593E+03  0.17146640948E+03 0.  0.
        -24    2    5    5    0    0  0.94028908515E+01 -0.48653305254E+02 -0.33818753245E+02  0.10169779958E+03  0.82116842974E+02 0.  0.
          5    1    3    3  501    0  0.92746019793E+02  0.20961038502E+02 -0.11856681874E+01  0.95208640005E+02  0.47000000000E+01 0. -1.
        -11    1    4    4    0    0 -0.41781898814E+00  0.42267306214E+02 -0.35011460516E+02  0.54886265265E+02  0.00000000000E+00 0.  1.
         12    1    4    4    0    0 -0.99548858393E+01 -0.40917267100E+02 -0.33806466407E+02  0.54001848764E+02  0.00000000000E+00 0. -1.
         -5    1    5    5    0  502 -0.91776205817E+02  0.26342227638E+02 -0.36857497546E+02  0.10245657635E+03  0.47000000000E+01 0.  1.
         11    1    6    6    0    0  0.39200009243E+02 -0.19385939292E+01 -0.60209157600E+01  0.39707056018E+02  0.00000000000E+00 0. -1.
        -12    1    6    6    0    0 -0.29797118391E+02 -0.46714711325E+02 -0.27797837485E+02  0.61990743563E+02  0.00000000000E+00 0.  1.
</event>
<event>
12    1  0.8462562E-002  0.2183083E+03  0.7818608E-02  0.1135455E+00
         21   -1    0    0  503  502  0.00000000000E+00  0.00000000000E+00  0.14720505388E+04  0.14720505388E+04  0.00000000000E+00 0.  1.
         21   -1    0    0  501  503 -0.00000000000E+00 -0.00000000000E+00 -0.32145853667E+02  0.32145853667E+02  0.00000000000E+00 0.  1.
          6    2    1    2  501    0 -0.11627456661E+03  0.66638369836E+02  0.72989302218E+03  0.76138076056E+03  0.17028326858E+03 0.  0.
         24    2    3    3    0    0 -0.10093066636E+03  0.23202622049E+02  0.28144976715E+03  0.31055314113E+03  0.80646890570E+02 0.  0.
         -6    2    1    2    0  502  0.11627456661E+03 -0.66638369836E+02  0.71001166294E+03  0.74281563189E+03  0.17233123423E+03 0.  0.
        -24    2    5    5    0    0  0.40072853825E+02  0.94573680922E+01  0.48548596889E+03  0.49375511786E+03  0.80013842507E+02 0.  0.
          5    1    3    3  501    0 -0.15343900254E+02  0.43435747787E+02  0.44844325502E+03  0.45082761943E+03  0.47000000000E+01 0. -1.
        -13    1    4    4    0    0  0.20420020890E+01  0.36157458187E+01 -0.44246380607E+01  0.60680155179E+01  0.00000000000E+00 0.  1.
         14    1    4    4    0    0 -0.10297266844E+03  0.19586876230E+02  0.28587440521E+03  0.30448512562E+03  0.00000000000E+00 0. -1.
         -5    1    5    5    0  502  0.76201712785E+02 -0.76095737928E+02  0.22452569405E+03  0.24906051403E+03  0.47000000000E+01 0.  1.
         13    1    6    6    0    0 -0.17881593017E+02 -0.17355154992E+02  0.17550883531E+03  0.17726901603E+03  0.00000000000E+00 0. -1.
        -14    1    6    6    0    0  0.57954446841E+02  0.26812523085E+02  0.30997713359E+03  0.31648610183E+03  0.00000000000E+00 0.  1.
</event>
<event>
12    1  0.8462562E-002  0.1979342E+03  0.7818608E-02  0.1151690E+00
         21   -1    0    0  501  502  0.00000000000E+00  0.00000000000E+00  0.12384894537E+04  0.12384894537E+04  0.00000000000E+00 0. -1.
         21   -1    0    0  502  503 -0.00000000000E+00 -0.00000000000E+00 -0.36150344623E+02  0.36150344623E+02  0.00000000000E+00 0. -1.
         -6    2    1    2    0  503  0.77049497190E+02  0.55612256597E+02  0.37107287528E+03  0.42013322567E+03  0.17259055722E+03 0.  0.
        -24    2    3    3    0    0  0.31626671308E+02  0.85873821745E+02  0.15442443324E+03  0.19666592857E+03  0.80349376340E+02 0.  0.
          6    2    1    2  501    0 -0.77049497190E+02 -0.55612256597E+02  0.83126623382E+03  0.85450657268E+03  0.17363347360E+03 0.  0.
         24    2    5    5    0    0  0.18506513807E+02  0.53842708400E+01  0.30649629435E+03  0.31761076624E+03  0.81025545080E+02 0.  0.
          5    1    5    5  501    0 -0.95556010997E+02 -0.60996527437E+02  0.52476993947E+03  0.53689580644E+03  0.47000000000E+01 0. -1.
        -13    1    6    6    0    0 -0.19555371189E+02  0.22489907324E+02  0.21490283460E+03  0.21695952800E+03  0.00000000000E+00 0.  1.
         14    1    6    6    0    0  0.38061884996E+02 -0.17105636484E+02  0.91593459749E+02  0.10065123823E+03  0.00000000000E+00 0. -1.
         -5    1    3    3    0  503  0.45422825883E+02 -0.30261565148E+02  0.21664844204E+03  0.22346729710E+03  0.47000000000E+01 0.  1.
         11    1    4    4    0    0  0.28091008236E+02  0.58257317367E+02  0.15590159609E+03  0.16878485546E+03  0.00000000000E+00 0. -1.
        -12    1    4    4    0    0  0.35356630716E+01  0.27616504377E+02 -0.14771628475E+01  0.27881073105E+02  0.00000000000E+00 0.  1.
</event>
<event>
12    1  0.8462562E-002  0.2958474E+03  0.7818608E-02  0.1087453E+00
         21   -1    0    0  501  502  0.00000000000E+00  0.00000000000E+00  0.44163960473E+03  0.44163960473E+03  0.00000000000E+00 0. -1.
         21   -1    0    0  502  503 -0.00000000000E+00 -0.00000000000E+00 -0.23629772943E+03  0.23629772943E+03  0.00000000000E+00 0.  1.
         -6    2    1    2    0  503  0.20878831218E+03  0.11822959530E+03 -0.34436079034E+02  0.29784479256E+03  0.17307478271E+03 0.  0.
        -24    2    3    3    0    0  0.85446852271E+02 -0.10517380034E+02 -0.27028691002E+02  0.11933468420E+03  0.78092489205E+02 0.  0.
          6    2    1    2  501    0 -0.20878831218E+03 -0.11822959530E+03  0.23977795433E+03  0.38009254160E+03  0.17148199990E+03 0.  0.
         24    2    5    5    0    0 -0.12743111890E+03 -0.10705296897E+03  0.23379552449E+03  0.29761958033E+03  0.78854543903E+02 0.  0.
          5    1    5    5  501    0 -0.81357193272E+02 -0.11176626336E+02  0.59824298389E+01  0.82472961267E+02  0.47000000000E+01 0. -1.
        -11    1    6    6    0    0 -0.61787633158E+01 -0.41020647388E+01  0.65992068512E+02  0.66407508294E+02  0.00000000000E+00 0.  1.
         12    1    6    6    0    0 -0.12125235559E+03 -0.10295090423E+03  0.16780345598E+03  0.23121207204E+03  0.00000000000E+00 0. -1.
         -5    1    3    3    0  503  0.12334145991E+03  0.12874697534E+03 -0.74073880319E+01  0.17851010836E+03  0.47000000000E+01 0.  1.
         11    1    4    4    0    0  0.97618549913E+02 -0.68223247063E+01 -0.35449485886E+02  0.10407973603E+03  0.00000000000E+00 0. -1.
        -12    1    4    4    0    0 -0.12171697642E+02 -0.36950553274E+01  0.84207948837E+01  0.15254948176E+02  0.00000000000E+00 0.  1.
</event>
<event>
12    1  0.8462562E-002  0.1854921E+03  0.7818608E-02  0.1162883E+00
         21   -1    0    0  503  502  0.00000000000E+00  0.00000000000E+00  0.75256161557E+02  0.75256161557E+02  0.00000000000E+00 0.  1.
         21   -1    0    0  501  503 -0.00000000000E+00 -0.00000000000E+00 -0.73329360315E+03  0.73329360315E+03  0.00000000000E+00 0.  1.
          6    2    1    2  501    0  0.54401899725E+02  0.50948901770E+00 -0.57777015939E+03  0.60643552928E+03  0.17602803135E+03 0.  0.
         24    2    3    3    0    0  0.51744161245E+01 -0.64545715892E+02 -0.32966007900E+03  0.34521488152E+03  0.79401654338E+02 0.  0.
         -6    2    1    2    0  502 -0.54401899725E+02 -0.50948901770E+00 -0.80267282202E+02  0.20211423543E+03  0.17733443348E+03 0.  0.
        -24    2    5    5    0    0 -0.10505841022E+03  0.11016056257E+02 -0.65344861409E+02  0.14785846254E+03  0.80209419506E+02 0.  0.
          5    1    3    3  501    0  0.49227483600E+02  0.65055204910E+02 -0.24811008039E+03  0.26122064777E+03  0.47000000000E+01 0. -1.
        -11    1    4    4    0    0 -0.35773101664E+02 -0.18111494232E+02 -0.14569852772E+03  0.15111519449E+03  0.00000000000E+00 0.  1.
         12    1    4    4    0    0  0.40947517789E+02 -0.46434221660E+02 -0.18396155128E+03  0.19409968703E+03  0.00000000000E+00 0. -1.
         -5    1    5    5    0  502  0.50656510496E+02 -0.11525545275E+02 -0.14922420793E+02  0.54255772889E+02  0.47000000000E+01 0.  1.
         11    1    6    6    0    0 -0.17279959490E+02 -0.18735506583E+02 -0.46869840708E+02  0.53351646412E+02  0.00000000000E+00 0. -1.
        -12    1    6    6    0    0 -0.87778450730E+02  0.29751562840E+02 -0.18475020701E+02  0.94506816124E+02  0.00000000000E+00 0.  1.
</event>
<event>
12    1  0.8462562E-002  0.1845559E+03  0.7818608E-02  0.1163721E+00
         21   -1    0    0  501  502  0.00000000000E+00  0.00000000000E+00  0.15167114514E+03  0.15167114514E+03  0.00000000000E+00 0.  1.
         21   -1    0    0  502  503 -0.00000000000E+00 -0.00000000000E+00 -0.23687522681E+03  0.23687522681E+03  0.00000000000E+00 0.  1.
         -6    2    1    2    0  503  0.26767994647E+02  0.58211147311E+02 -0.89077330883E+02  0.20394985379E+03  0.17191773840E+03 0.  0.
        -24    2    3    3    0    0  0.15117048040E+02 -0.50307351123E+00  0.17276077515E+02  0.81817786905E+02  0.78529670669E+02 0.  0.
          6    2    1    2  501    0 -0.26767994647E+02 -0.58211147311E+02  0.38732492130E+01  0.18459651817E+03  0.17307746604E+03 0.  0.
         24    2    5    5    0    0 -0.62430194422E+02  0.11942601061E+02 -0.19725835273E+02  0.10230224320E+03  0.77694822807E+02 0.  0.
          5    1    5    5  501    0  0.35662199776E+02 -0.70153748372E+02  0.23599084486E+02  0.82294274965E+02  0.47000000000E+01 0. -1.
        -11    1    6    6    0    0 -0.35787410208E+01 -0.47823130848E+01  0.25518631589E+02  0.26208366296E+02  0.00000000000E+00 0.  1.
         12    1    6    6    0    0 -0.58851453402E+02  0.16724914146E+02 -0.45244466862E+02  0.76093876904E+02  0.00000000000E+00 0. -1.
         -5    1    3    3    0  503  0.11650946607E+02  0.58714220822E+02 -0.10635340840E+03  0.12213206688E+03  0.47000000000E+01 0.  1.
         11    1    4    4    0    0  0.27088163498E+02 -0.32566653911E+02  0.21198973992E+02  0.47368259911E+02  0.00000000000E+00 0. -1.
        -12    1    4    4    0    0 -0.11971115459E+02  0.32063580400E+02 -0.39228964769E+01  0.34449526994E+02  0.00000000000E+00 0.  1.
</event>
<event>
12    1  0.8462562E-002  0.2106413E+03  0.7818608E-02  0.1141344E+00
         21   -1    0    0  501  502  0.00000000000E+00  0.00000000000E+00  0.81678587650E+03  0.81678587650E+03  0.00000000000E+00 0.  1.
         21   -1    0    0  502  503 -0.00000000000E+00 -0.00000000000E+00 -0.17572484359E+03  0.17572484359E+03  0.00000000000E+00 0.  1.
         -6    2    1    2    0  503  0.96438926287E+02 -0.67057992916E+02 -0.92239762814E+02  0.22995205160E+03  0.17485002509E+03 0.  0.
        -24    2    3    3    0    0  0.60371893914E+02 -0.11359923245E+03 -0.65079955468E+02  0.16493926104E+03  0.80124952679E+02 0.  0.
          6    2    1    2  501    0 -0.96438926287E+02  0.67057992916E+02  0.73330079573E+03  0.76255866849E+03  0.17311390744E+03 0.  0.
         24    2    5    5    0    0 -0.50902019068E+02  0.40767148410E+02  0.67818843131E+03  0.68624169045E+03  0.82067858644E+02 0.  0.
          5    1    5    5  501    0 -0.45536907219E+02  0.26290844506E+02  0.55112364424E+02  0.76316978034E+02  0.47000000000E+01 0. -1.
        -11    1    6    6    0    0 -0.67028366501E+02  0.76931709703E+01  0.47164796405E+03  0.47644914607E+03  0.00000000000E+00 0.  1.
         12    1    6    6    0    0  0.16126347433E+02  0.33073977440E+02  0.20654046726E+03  0.20979254439E+03  0.00000000000E+00 0. -1.
         -5    1    3    3    0  503  0.36067032373E+02  0.46541239533E+02 -0.27159807346E+02  0.65012790561E+02  0.47000000000E+01 0.  1.
         13    1    4    4    0    0  0.17877974894E+02 -0.28988396383E+02  0.18400173787E+02  0.38710663990E+02  0.00000000000E+00 0. -1.
        -14    1    4    4    0    0  0.42493919020E+02 -0.84610836066E+02 -0.83480129255E+02  0.12622859705E+03  0.00000000000E+00 0.  1.
</event>
<event>
12    1  0.8462562E-002  0.2431315E+03  0.7818608E-02  0.1118751E+00
         21   -1    0    0  501  502  0.00000000000E+00  0.00000000000E+00  0.36470640503E+02  0.36470640503E+02  0.00000000000E+00 0.  1.
         21   -1    0    0  502  503 -0.00000000000E+00 -0.00000000000E+00 -0.17497181784E+04  0.17497181784E+04  0.00000000000E+00 0. -1.
         -6    2    1    2    0  503 -0.83526929316E+02  0.15124322937E+03 -0.11248982562E+04  0.11495823328E+04  0.16214866825E+03 0.  0.
        -24    2    3    3    0    0 -0.82745404416E+02  0.13714626721E+03 -0.64598864357E+03  0.67044159957E+03  0.80837554701E+02 0.  0.
          6    2    1    2  501    0  0.83526929316E+02 -0.15124322937E+03 -0.58834928166E+03  0.63660648611E+03  0.17106045301E+03 0.  0.
         24    2    5    5    0    0  0.22099721456E+02 -0.15976165941E+02 -0.31061181755E+03  0.32159748738E+03  0.78750283302E+02 0.  0.
          5    1    5    5  501    0  0.61427207860E+02 -0.13526706343E+03 -0.27773746410E+03  0.31500899873E+03  0.47000000000E+01 0. -1.
        -13    1    6    6    0    0  0.20228320671E+02 -0.96933212917E+00 -0.14044732899E+02  0.24645062064E+02  0.00000000000E+00 0.  1.
         14    1    6    6    0    0  0.18714007859E+01 -0.15006833812E+02 -0.29656708465E+03  0.29695242532E+03  0.00000000000E+00 0. -1.
         -5    1    3    3    0  503 -0.78152490023E+00  0.14096962169E+02 -0.47890961266E+03  0.47914073321E+03  0.47000000000E+01 0.  1.
         11    1    4    4    0    0 -0.16195515707E+02  0.71926773839E+02 -0.41267348903E+03  0.41920778150E+03  0.00000000000E+00 0. -1.
        -12    1    4    4    0    0 -0.66549888708E+02  0.65219493366E+02 -0.23331515454E+03  0.25123381807E+03  0.00000000000E+00 0.  1.
</event>
<event>
12    1  0.8462562E-002  0.1780043E+03  0.7818608E-02  0.1169982E+00
         21   -1    0    0  501  502  0.00000000000E+00  0.00000000000E+00  0.33281647551E+02  0.33281647551E+02  0.00000000000E+00 0.  1.
         21   -1    0    0  502  503 -0.00000000000E+00 -0.00000000000E+00 -0.11019087504E+04  0.11019087504E+04  0.00000000000E+00 0.  1.
         -6    2    1    2    0  503  0.24830124197E+02  0.20000470565E+02 -0.74836791314E+03  0.76924642134E+03  0.17512558193E+03 0.  0.
        -24    2    3    3    0    0  0.18697462600E+02 -0.44679588269E+02 -0.25358468683E+03  0.27019366803E+03  0.79709247498E+02 0.  0.
          6    2    1    2  501    0 -0.24830124197E+02 -0.20000470565E+02 -0.32025918970E+03  0.36594397660E+03  0.17416225633E+03 0.  0.
         24    2    5    5    0    0 -0.51361511893E+02  0.21435325211E+02 -0.10053939940E+03  0.14073359505E+03  0.81242205002E+02 0.  0.
          5    1    5    5  501    0  0.26531387696E+02 -0.41435795776E+02 -0.21971979031E+03  0.22521038155E+03  0.47000000000E+01 0. -1.
        -13    1    6    6    0    0 -0.41930567251E+02 -0.18923341490E+02 -0.20013693136E+02  0.50167850623E+02  0.00000000000E+00 0.  1.
         14    1    6    6    0    0 -0.94309446422E+01  0.40358666701E+02 -0.80525706259E+02  0.90565744425E+02  0.00000000000E+00 0. -1.
         -5    1    3    3    0  503  0.61326615963E+01  0.64680058834E+02 -0.49478322631E+03  0.49905275331E+03  0.47000000000E+01 0.  1.
         11    1    4    4    0    0 -0.97784765302E+00 -0.48906078445E+02 -0.24216336507E+03  0.24705435855E+03  0.00000000000E+00 0. -1.
        -12    1    4    4    0    0  0.19675310253E+02  0.42264901762E+01 -0.11421321754E+02  0.23139309484E+02  0.00000000000E+00 0.  1.
</event>
<event>
12    1  0.8462562E-002  0.1797520E+03  0.7818608E-02  0.1168302E+00
         21   -1    0    0  503  502  0.00000000000E+00  0.00000000000E+00  0.24018285747E+03  0.24018285747E+03  0.00000000000E+00 0. -1.
         21   -1    0    0  501  503 -0.00000000000E+00 -0.00000000000E+00 -0.13431528939E+03  0.13431528939E+03  0.00000000000E+00 0. -1.
          6    2    1    2  501    0  0.19410154232E+02 -0.47763608477E+02  0.40725687211E+02  0.18430779577E+03  0.17219949361E+03 0.  0.
         24    2    3    3    0    0 -0.15044529558E+01 -0.78226594759E+02  0.74594952734E+02  0.13396267213E+03  0.79119700731E+02 0.  0.
         -6    2    1    2    0  502 -0.19410154232E+02  0.47763608477E+02  0.65141880865E+02  0.19019035109E+03  0.17108707907E+03 0.  0.
        -24    2    5    5    0    0 -0.62728761690E+01 -0.38621583130E+02  0.11966373904E+02  0.87795458912E+02  0.77678007455E+02 0.  0.
          5    1    3    3  501    0  0.20914607188E+02  0.30462986282E+02 -0.33869265523E+02  0.50345123638E+02  0.47000000000E+01 0. -1.
        -13    1    4    4    0    0 -0.36917675626E+02 -0.17237527682E+02  0.27863480753E+02  0.49360112377E+02  0.00000000000E+00 0.  1.
         14    1    4    4    0    0  0.35413222670E+02 -0.60989067076E+02  0.46731471982E+02  0.84602559750E+02  0.00000000000E+00 0. -1.
         -5    1    5    5    0  502 -0.13137278063E+02  0.86385191607E+02  0.53175506960E+02  0.10239489218E+03  0.47000000000E+01 0.  1.
         13    1    6    6    0    0 -0.37826461194E+02 -0.30949921674E+02  0.22294875712E+02  0.53719645392E+02  0.00000000000E+00 0. -1.
        -14    1    6    6    0    0  0.31553585025E+02 -0.76716614559E+01 -0.10328501808E+02  0.34075813519E+02  0.00000000000E+00 0.  1.
</event>
<event>
12    1  0.8462562E-002  0.2031429E+03  0.7818608E-02  0.1147216E+00
         21   -1    0    0  501  502  0.00000000000E+00  0.00000000000E+00  0.84784816853E+02  0.84784816853E+02  0.00000000000E+00 0. -1.
         21   -1    0    0  502  503 -0.00000000000E+00 -0.00000000000E+00 -0.75904544553E+03  0.75904544553E+03  0.00000000000E+00 0. -1.
         -6    2    1    2    0  503  0.21489092403E+02  0.10818029638E+03 -0.59065570568E+03  0.62461283944E+03  0.17059390061E+03 0.  0.
        -24    2    3    3    0    0 -0.33227922773E+02  0.11845544199E+03 -0.40623315367E+03  0.43191281853E+03  0.79921968739E+02 0.  0.
          6    2    1    2  501    0 -0.21489092403E+02 -0.10818029638E+03 -0.83604923002E+02  0.21921742295E+03  0.17000511097E+03 0.  0.
         24    2    5    5    0    0  0.29844825326E+02 -0.11945198983E+03 -0.69980169699E+02  0.16472021123E+03  0.84119155747E+02 0.  0.
          5    1    5    5  501    0 -0.51333917729E+02  0.11271693449E+02 -0.13624753304E+02  0.54497211719E+02  0.47000000000E+01 0. -1.
        -13    1    6    6    0    0  0.19406578810E+02 -0.47888896769E+01 -0.41575420950E+02  0.46130948317E+02  0.00000000000E+00 0.  1.
         14    1    6    6    0    0  0.10438246516E+02 -0.11466310015E+03 -0.28404748748E+02  0.11858926291E+03  0.00000000000E+00 0. -1.
         -5    1    3    3    0  503  0.54717015176E+02 -0.10275145610E+02 -0.18442255201E+03  0.19270002091E+03  0.47000000000E+01 0.  1.
         13    1    4    4    0    0 -0.12158227780E+02  0.49020677664E+02 -0.29372252266E+03  0.29803316872E+03  0.00000000000E+00 0. -1.
        -14    1    4    4    0    0 -0.21069694994E+02  0.69434764322E+02 -0.11251063100E+03  0.13387964981E+03  0.00000000000E+00 0.  1.
</event>
<event>
12    1  0.8462562E-002  0.2051365E+03  0.7818608E-02  0.1146377E+00
         21   -1    0    0  503  502  0.00000000000E+00  0.00000000000E+00  0.54842638865E+02  0.54842638865E+02  0.00000000000E+00 0. -1.
         21   -1    0    0  501  503 -0.00000000000E+00 -0.00000000000E+00 -0.87933161068E+03  0.87933161068E+03  0.00000000000E+00 0.  1.
          6    2    1    2  501    0 -0.90009183713E+02  0.53298197968E+02 -0.58684002160E+03  0.62023473684E+03  0.17136967865E+03 0.  0.
         24    2    3    3    0    0 -0.10687816492E+03  0.88980875220E+02 -0.45515674306E+03  0.48268332161E+03  0.80467322031E+02 0.  0.
         -6    2    1    2    0  502  0.90009183713E+02 -0.53298197968E+02 -0.23764895021E+03  0.31393951271E+03  0.17646144918E+03 0.  0.
        -24    2    5    5    0    0  0.45751277243E+02 -0.74289583406E+02 -0.66276846804E+02  0.13564232156E+03  0.79963100258E+02 0.  0.
          5    1    3    3  501    0  0.16868981203E+02 -0.35682677253E+02 -0.13168327855E+03  0.13755141523E+03  0.47000000000E+01 0. -1.
        -13    1    4    4    0    0  0.10485784138E+02  0.38278809325E+01 -0.74736700308E+02  0.75565724468E+02  0.00000000000E+00 0.  1.
         14    1    4    4    0    0 -0.11736394905E+03  0.85152994288E+02 -0.38042004275E+03  0.40711759714E+03  0.00000000000E+00 0. -1.
         -5    1    5    5    0  502  0.44257906470E+02  0.20991385438E+02 -0.17137210341E+03  0.17829719115E+03  0.47000000000E+01 0.  1.
         11    1    6    6    0    0  0.36711153767E+02  0.44193075894E+01 -0.95146078938E+01  0.38180713113E+02  0.00000000000E+00 0. -1.
        -12    1    6    6    0    0  0.90401234759E+01 -0.78708890995E+02 -0.56762238910E+02  0.97461608443E+02  0.00000000000E+00 0.  1.
</event>
<event>
12    1  0.8462562E-002  0.2132013E+03  0.7818608E-02  0.1139999E+00
         21   -1    0    0  503  502  0.00000000000E+00  0.00000000000E+00  0.12858170624E+03  0.12858170624E+03  0.00000000000E+00 0. -1.
         21   -1    0    0  501  503 -0.00000000000E+00 -0.00000000000E+00 -0.36326275604E+03  0.36326275604E+03  0.00000000000E+00 0. -1.
          6    2    1    2  501    0 -0.81692446125E+02 -0.82240787968E+02 -0.17283792460E+03  0.27445902932E+03  0.17893464627E+03 0.  0.
         24    2    3    3    0    0 -0.10691288102E+03 -0.60238491175E+02 -0.18750096096E+03  0.23761793765E+03  0.79035650091E+02 0.  0.
         -6    2    1    2    0  502  0.81692446125E+02  0.82240787968E+02 -0.61843125201E+02  0.21738543296E+03  0.17318963990E+03 0.  0.
        -24    2    5    5    0    0  0.10324530733E+03  0.91431718427E+01 -0.16547329235E+02  0.12860713358E+03  0.74315473668E+02 0.  0.
          5    1    3    3  501    0  0.25220434894E+02 -0.22002296792E+02  0.14663036357E+02  0.36841091672E+02  0.47000000000E+01 0. -1.
        -11    1    4    4    0    0 -0.55871742131E+02 -0.43961322135E+02 -0.16470987008E+03  0.17939785594E+03  0.00000000000E+00 0.  1.
         12    1    4    4    0    0 -0.51041138888E+02 -0.16277169040E+02 -0.22791090873E+02  0.58220081708E+02  0.00000000000E+00 0. -1.
         -5    1    5    5    0  502 -0.21552861202E+02  0.73097616125E+02 -0.45295795965E+02  0.88778299382E+02  0.47000000000E+01 0.  1.
         11    1    6    6    0    0 -0.11802250602E+02 -0.34835610814E+00 -0.41026881629E+01  0.12499860855E+02  0.00000000000E+00 0. -1.
        -12    1    6    6    0    0  0.11504755793E+03  0.94915279509E+01 -0.12444641073E+02  0.11610727273E+03  0.00000000000E+00 0.  1.
</event>
<event>
12    1  0.8462562E-002  0.2203705E+03  0.7818608E-02  0.1135453E+00
         21   -1    0    0  503  502  0.00000000000E+00  0.00000000000E+00  0.28318302398E+03  0.28318302398E+03  0.00000000000E+00 0.  1.
         21   -1    0    0  501  503 -0.00000000000E+00 -0.00000000000E+00 -0.66554386964E+03  0.66554386964E+03  0.00000000000E+00 0. -1.
          6    2    1    2  501    0  0.62225539191E+02 -0.10130535809E+03  0.21951270591E+03  0.31104499452E+03  0.18554882716E+03 0.  0.
         24    2    3    3    0    0  0.95867335597E+02 -0.37881615498E+02  0.78192869076E+02  0.15246464306E+03  0.80658414198E+02 0.  0.
         -6    2    1    2    0  502 -0.62225539191E+02  0.10130535809E+03 -0.60187355156E+03  0.63768189910E+03  0.17392998320E+03 0.  0.
        -24    2    5    5    0    0 -0.96572519806E+02  0.11817058802E+03 -0.48851471442E+03  0.51794691250E+03  0.79572850292E+02 0.  0.
          5    1    3    3  501    0 -0.33641796406E+02 -0.63423742590E+02  0.14131983683E+03  0.15858035147E+03  0.47000000000E+01 0. -1.
        -13    1    4    4    0    0  0.10976265118E+02 -0.16358648399E+02  0.59821172574E+02  0.62981397742E+02  0.00000000000E+00 0.  1.
         14    1    4    4    0    0  0.84891070479E+02 -0.21522967099E+02  0.18371696502E+02  0.89483245315E+02  0.00000000000E+00 0. -1.
         -5    1    5    5    0  502  0.34346980615E+02 -0.16865229929E+02 -0.11335883714E+03  0.11973498660E+03  0.47000000000E+01 0.  1.
         11    1    6    6    0    0 -0.83367005254E+02  0.42253315489E+02 -0.23235485262E+03  0.25044795421E+03  0.00000000000E+00 0. -1.
        -12    1    6    6    0    0 -0.13205514552E+02  0.75917272528E+02 -0.25615986181E+03  0.26749895828E+03  0.00000000000E+00 0.  1.
</event>
<event>
12    1  0.8462562E-002  0.2391062E+03  0.7818608E-02  0.1120591E+00
         21   -1    0    0  501  502  0.00000000000E+00  0.00000000000E+00  0.16506919459E+03  0.16506919459E+03  0.00000000000E+00 0. -1.
         21   -1    0    0  502  503 -0.00000000000E+00 -0.00000000000E+00 -0.34675536117E+03  0.34675536117E+03  0.00000000000E+00 0.  1.
         -6    2    1    2    0  503 -0.99818143849E+02  0.13239168815E+03 -0.70977642326E+02  0.24941851631E+03  0.17228043893E+03 0.  0.
        -24    2    3    3    0    0 -0.45940027141E+02 -0.28572044276E+01 -0.17238472617E+02  0.94160335321E+02  0.80314096514E+02 0.  0.
          6    2    1    2  501    0  0.99818143849E+02 -0.13239168815E+03 -0.11070852425E+03  0.26240603945E+03  0.17061456932E+03 0.  0.
         24    2    5    5    0    0 -0.88540840845E+01 -0.42275009946E+02 -0.70784091143E+02  0.11561803186E+03  0.80570282738E+02 0.  0.
          5    1    5    5  501    0  0.10867222793E+03 -0.90116678205E+02 -0.39924433108E+02  0.14678800759E+03  0.47000000000E+01 0. -1.
        -11    1    6    6    0    0  0.31124954695E+01 -0.37912392197E+02 -0.87026513046E+02  0.94977108206E+02  0.00000000000E+00 0.  1.
         12    1    6    6    0    0 -0.11966579554E+02 -0.43626177493E+01  0.16242421903E+02  0.20640923650E+02  0.00000000000E+00 0. -1.
         -5    1    3    3    0  503 -0.53878116708E+02  0.13524889258E+03 -0.53739169709E+02  0.15525818099E+03  0.47000000000E+01 0.  1.
         11    1    4    4    0    0 -0.58367041799E+02 -0.25928093993E+02 -0.21953391159E+02  0.67534650438E+02  0.00000000000E+00 0. -1.
        -12    1    4    4    0    0  0.12427014658E+02  0.23070889565E+02  0.47149185424E+01  0.26625684883E+02  0.00000000000E+00 0.  1.
</event>
<event>
12    1  0.8462562E-002  0.2864489E+03  0.7818608E-02  0.1092374E+00
         21   -1    0    0  503  502  0.00000000000E+00  0.00000000000E+00  0.23836768042E+03  0.23836768042E+03  0.00000000000E+00 0.  1.
         21   -1    0    0  501  503 -0.00000000000E+00 -0.00000000000E+00 -0.49330502857E+03  0.49330502857E+03  0.00000000000E+00 0.  1.
          6    2    1    2  501    0 -0.97982419614E+02 -0.20862177088E+03 -0.32971148762E+03  0.43676381811E+03  0.17008636015E+03 0.  0.
         24    2    3    3    0    0 -0.11769128118E+02 -0.17334233549E+03 -0.24497939142E+03  0.31075196027E+03  0.79785969567E+02 0.  0.
         -6    2    1    2    0  502  0.97982419614E+02  0.20862177088E+03  0.74774139469E+02  0.29490889087E+03  0.16809665120E+03 0.  0.
        -24    2    5    5    0    0 -0.15084371184E+02  0.69493396404E+02  0.18066343475E+02  0.10681671163E+03  0.77630836134E+02 0.  0.
          5    1    3    3  501    0 -0.86213291495E+02 -0.35279435388E+02 -0.84732096196E+02  0.12601185784E+03  0.47000000000E+01 0. -1.
        -11    1    4    4    0    0 -0.45307578974E+02 -0.79612365573E+02 -0.12032231146E+03  0.15122289542E+03  0.00000000000E+00 0.  1.
         12    1    4    4    0    0  0.33538450856E+02 -0.93729969917E+02 -0.12465707997E+03  0.15952906485E+03  0.00000000000E+00 0. -1.
         -5    1    5    5    0  502  0.11306679080E+03  0.13912837447E+03  0.56707795994E+02  0.18809217924E+03  0.47000000000E+01 0.  1.
         13    1    6    6    0    0 -0.53980638264E+01  0.74385538272E+02 -0.11370921854E+02  0.75442993451E+02  0.00000000000E+00 0. -1.
        -14    1    6    6    0    0 -0.96863073579E+01 -0.48921418679E+01  0.29437265328E+02  0.31373718178E+02  0.00000000000E+00 0.  1.
</event>
<event>
12    1  0.8462562E-002  0.3975160E+03  0.7818608E-02  0.1044699E+00
         21   -1    0    0  501  502  0.00000000000E+00  0.00000000000E+00  0.19510283406E+03  0.19510283406E+03  0.00000000000E+00 0.  1.
         21   -1    0    0  502  503 -0.00000000000E+00 -0.00000000000E+00 -0.11851982855E+04  0.11851982855E+04  0.00000000000E+00 0. -1.
         -6    2    1    2    0  503 -0.35314409313E+03  0.57728495525E+02 -0.88379898039E+03  0.96881854053E+03  0.17165487771E+03 0.  0.
        -24    2    3    3    0    0 -0.32375916351E+03  0.87385748898E+02 -0.84082220934E+03  0.90871762859E+03  0.79558002309E+02 0.  0.
          6    2    1    2  501    0  0.35314409313E+03 -0.57728495525E+02 -0.10629647102E+03  0.41148257900E+03  0.17313475493E+03 0.  0.
         24    2    5    5    0    0  0.13599425398E+03  0.25395381867E+02 -0.90198898279E+01  0.15939439030E+03  0.78650179342E+02 0.  0.
          5    1    5    5  501    0  0.21714983914E+03 -0.83123877392E+02 -0.97276581192E+02  0.25208818870E+03  0.47000000000E+01 0. -1.
        -11    1    6    6    0    0  0.11057060762E+03 -0.10877889292E+02  0.92285349087E+01  0.11148701091E+03  0.00000000000E+00 0.  1.
         12    1    6    6    0    0  0.25423646364E+02  0.36273271159E+02 -0.18248424737E+02  0.47907379394E+02  0.00000000000E+00 0. -1.
         -5    1    3    3    0  503 -0.29384929619E+02 -0.29657253373E+02 -0.42976771050E+02  0.60100911942E+02  0.47000000000E+01 0.  1.
         11    1    4    4    0    0 -0.14939792059E+03 -0.40476040377E+00 -0.37132972291E+03  0.40025699947E+03  0.00000000000E+00 0. -1.
        -12    1    4    4    0    0 -0.17436124292E+03  0.87790509302E+02 -0.46949248642E+03  0.50846062912E+03  0.00000000000E+00 0.  1.
</event>
<event>
12    1  0.8462562E-002  0.1716821E+03  0.7818608E-02  0.1176167E+00
         21   -1    0    0  501  502  0.00000000000E+00  0.00000000000E+00  0.18178409768E+03  0.18178409768E+03  0.00000000000E+00 0.  1.
         21   -1    0    0  502  503 -0.00000000000E+00 -0.00000000000E+00 -0.16445860941E+03  0.16445860941E+03  0.00000000000E+00 0.  1.
         -6    2    1    2    0  503 -0.22688653926E+01  0.32092509321E+01  0.30198034525E+02  0.17407871345E+03  0.17139437023E+03 0.  0.
        -24    2    3    3    0    0 -0.65858066510E+02  0.17718549507E+02  0.21959710853E+02  0.10816918287E+03  0.81037715304E+02 0.  0.
          6    2    1    2  501    0  0.22688653926E+01 -0.32092509321E+01 -0.12872546258E+02  0.17216399364E+03  0.17163709161E+03 0.  0.
         24    2    5    5    0    0 -0.46468012962E+02 -0.36617788319E+02  0.23842083489E+02  0.10243976743E+03  0.80158108490E+02 0.  0.
          5    1    5    5  501    0  0.48736878355E+02  0.33408537387E+02 -0.36714629747E+02  0.69724226203E+02  0.47000000000E+01 0. -1.
        -13    1    6    6    0    0 -0.42562592230E+02 -0.57164885834E+02  0.73606102853E+00  0.71273699325E+02  0.00000000000E+00 0.  1.
         14    1    6    6    0    0 -0.39054207327E+01  0.20547097515E+02  0.23106022461E+02  0.31166068108E+02  0.00000000000E+00 0. -1.
         -5    1    3    3    0  503  0.63589201117E+02 -0.14509298575E+02  0.82383236714E+01  0.65909530576E+02  0.47000000000E+01 0.  1.
         11    1    4    4    0    0 -0.16876871541E+01 -0.26804201419E+02 -0.63032903222E+00  0.26864675995E+02  0.00000000000E+00 0. -1.
        -12    1    4    4    0    0 -0.64170379356E+02  0.44522750926E+02  0.22590039886E+02  0.81304506878E+02  0.00000000000E+00 0.  1.
</event>
<event>
12    1  0.8462562E-002  0.2799416E+03  0.7818608E-02  0.1095739E+00
         21   -1    0    0  501  502  0.00000000000E+00  0.00000000000E+00  0.15570549649E+03  0.15570549649E+03  0.00000000000E+00 0.  1.
         21   -1    0    0  502  503 -0.00000000000E+00 -0.00000000000E+00 -0.54612194626E+03  0.54612194626E+03  0.00000000000E+00 0. -1.
         -6    2    1    2    0  503  0.21391271911E+03 -0.56885935581E+02 -0.96722319544E+02  0.29617982667E+03  0.17138442626E+03 0.  0.
        -24    2    3    3    0    0  0.19600845813E+03 -0.76790742166E+02 -0.12307913317E+03  0.25831776768E+03  0.85225948725E+02 0.  0.
          6    2    1    2  501    0 -0.21391271911E+03  0.56885935581E+02 -0.29369413023E+03  0.40564761609E+03  0.17116975564E+03 0.  0.
         24    2    5    5    0    0 -0.12692434614E+03 -0.23733820614E+02 -0.21385070819E+03  0.26259663160E+03  0.80943076601E+02 0.  0.
          5    1    5    5  501    0 -0.86988372967E+02  0.80619756195E+02 -0.79843422036E+02  0.14305098449E+03  0.47000000000E+01 0. -1.
        -13    1    6    6    0    0 -0.53409486717E+02 -0.18731833037E+02 -0.28989368812E+02  0.63591181341E+02  0.00000000000E+00 0.  1.
         14    1    6    6    0    0 -0.73514859428E+02 -0.50019875771E+01 -0.18486133938E+03  0.19900545026E+03  0.00000000000E+00 0. -1.
         -5    1    3    3    0  503  0.17904260978E+02  0.19904806585E+02  0.26356813626E+02  0.37862058989E+02  0.47000000000E+01 0.  1.
         11    1    4    4    0    0  0.52736876372E+00  0.58350872531E+01 -0.22896210528E+02  0.23633933604E+02  0.00000000000E+00 0. -1.
        -12    1    4    4    0    0  0.19548108937E+03 -0.82625829419E+02 -0.10018292264E+03  0.23468383408E+03  0.00000000000E+00 0.  1.
</event>
<event>
12    1  0.8462562E-002  0.1927204E+03  0.7818608E-02  0.1157092E+00
         21   -1    0    0  503  502  0.00000000000E+00  0.00000000000E+00  0.14595017850E+03  0.14595017850E+03  0.00000000000E+00 0.  1.
         21   -1    0    0  501  503 -0.00000000000E+00 -0.00000000000E+00 -0.25130243831E+03  0.25130243831E+03  0.00000000000E+00 0.  1.
          6    2    1    2  501    0 -0.39410036547E+02 -0.74360828245E+02 -0.31491775103E+02  0.19527647629E+03  0.17337383463E+03 0.  0.
         24    2    3    3    0    0 -0.37876997713E+00 -0.79901249328E+02 -0.75256570554E+02  0.13618685490E+03  0.80616095936E+02 0.  0.
         -6    2    1    2    0  502  0.39410036547E+02  0.74360828245E+02 -0.73860484704E+02  0.20197614051E+03  0.16809612244E+03 0.  0.
        -24    2    5    5    0    0 -0.23525294438E+02  0.34271819551E+01 -0.14756507245E+01  0.82585637321E+02  0.79076070288E+02 0.  0.
          5    1    3    3  501    0 -0.39031266570E+02  0.55404210830E+01  0.43764795451E+02  0.59089621396E+02  0.47000000000E+01 0. -1.
        -11    1    4    4    0    0 -0.10146847640E+02 -0.75561437037E+02 -0.18526217856E+02  0.78458333096E+02  0.00000000000E+00 0.  1.
         12    1    4    4    0    0  0.97680776629E+01 -0.43398122910E+01 -0.56730352698E+02  0.57728521800E+02  0.00000000000E+00 0. -1.
         -5    1    5    5    0  502  0.62935330985E+02  0.70933646290E+02 -0.72384833979E+02  0.11939050319E+03  0.47000000000E+01 0.  1.
         11    1    6    6    0    0 -0.47541800284E+02  0.10651549380E+02 -0.18672983254E+02  0.52176226215E+02  0.00000000000E+00 0. -1.
        -12    1    6    6    0    0  0.24016505846E+02 -0.72243674246E+01  0.17197332530E+02  0.30409411107E+02  0.00000000000E+00 0.  1.
</event>
<event>
12    1  0.8462562E-002  0.1813286E+03  0.7818608E-02  0.1166753E+00
         21   -1    0    0  501  502  0.00000000000E+00  0.00000000000E+00  0.18150375833E+03  0.18150375833E+03  0.00000000000E+00 0.  1.
         21   -1    0    0  502  503 -0.00000000000E+00 -0.00000000000E+00 -0.22008098260E+03  0.22008098260E+03  0.00000000000E+00 0.  1.
         -6    2    1    2    0  503 -0.56472178513E+02 -0.59966756559E+01 -0.10480586123E+03  0.20943812829E+03  0.17220625416E+03 0.  0.
        -24    2    3    3    0    0 -0.41549338755E+02 -0.29964818358E+02  0.52332391338E+01  0.95737395581E+02  0.80709505206E+02 0.  0.
          6    2    1    2  501    0  0.56472178513E+02  0.59966756559E+01  0.66228636957E+02  0.19214661263E+03  0.17119877724E+03 0.  0.
         24    2    5    5    0    0 -0.34596246606E+02 -0.42259423738E+01  0.17823152381E+02  0.88401054126E+02  0.79261104847E+02 0.  0.
          5    1    5    5  501    0  0.91068425119E+02  0.10222618030E+02  0.48405484576E+02  0.10374555851E+03  0.47000000000E+01 0. -1.
        -11    1    6    6    0    0 -0.35595618034E+02  0.39877840800E+01  0.46419278305E+02  0.58631901243E+02  0.00000000000E+00 0.  1.
         12    1    6    6    0    0  0.99937142802E+00 -0.82137264538E+01 -0.28596125924E+02  0.29769152883E+02  0.00000000000E+00 0. -1.
         -5    1    3    3    0  503 -0.14922839757E+02  0.23968142702E+02 -0.11003910036E+03  0.11370073271E+03  0.47000000000E+01 0.  1.
         11    1    4    4    0    0 -0.65814476683E+02 -0.23832218698E+02 -0.76422577223E+00  0.70000743069E+02  0.00000000000E+00 0. -1.
        -12    1    4    4    0    0  0.24265137928E+02 -0.61325996599E+01  0.59974649060E+01  0.25736652513E+02  0.00000000000E+00 0.  1.
</event>
<event>
12    1  0.8462562E-002  0.1813617E+03  0.7818608E-02  0.1166675E+00
         21   -1    0    0  501  502  0.00000000000E+00  0.00000000000E+00  0.29973811550E+03  0.29973811550E+03  0.00000000000E+00 0.  1.
         21   -1    0    0  502  503 -0.00000000000E+00 -0.00000000000E+00 -0.14951250702E+03  0.14951250702E+03  0.00000000000E+00 0.  1.
         -6    2    1    2    0  503 -0.55292075818E+02 -0.68313989660E+01 -0.41302725362E+02  0.18600529894E+03  0.17259250983E+03 0.  0.
        -24    2    3    3    0    0 -0.46420158076E+02 -0.68022851082E+02 -0.47725538133E+02  0.12366392215E+03  0.78949979769E+02 0.  0.
          6    2    1    2  501    0  0.55292075818E+02  0.68313989660E+01  0.19152833384E+03  0.26324532358E+03  0.17178799743E+03 0.  0.
         24    2    5    5    0    0  0.95978501279E+02 -0.10872506010E+02  0.17598447310E+03  0.21599582543E+03  0.79709332812E+02 0.  0.
          5    1    5    5  501    0 -0.40686425461E+02  0.17703904976E+02  0.15543860743E+02  0.47249498146E+02  0.47000000000E+01 0. -1.
        -11    1    6    6    0    0  0.14392432388E+02 -0.59665304607E+01  0.10959426666E+03  0.11069618277E+03  0.00000000000E+00 0.  1.
         12    1    6    6    0    0  0.81586068891E+02 -0.49059755491E+01  0.66390206441E+02  0.10529964266E+03  0.00000000000E+00 0. -1.
         -5    1    3    3    0  503 -0.88719177415E+01  0.61191452116E+02  0.64228127715E+01  0.62341376792E+02  0.47000000000E+01 0.  1.
         13    1    4    4    0    0  0.10621078930E+02  0.10711751548E+02  0.58720121559E+00  0.15096149977E+02  0.00000000000E+00 0. -1.
        -14    1    4    4    0    0 -0.57041237007E+02 -0.78734602629E+02 -0.48312739349E+02  0.10856777217E+03  0.00000000000E+00 0.  1.
</event>
<event>
12    1  0.8462562E-002  0.1799451E+03  0.7818608E-02  0.1168013E+00
         21   -1    0    0  501  502  0.00000000000E+00  0.00000000000E+00  0.16196029244E+03  0.16196029244E+03  0.00000000000E+00 0.  1.
         21   -1    0    0  502  503 -0.00000000000E+00 -0.00000000000E+00 -0.35709223503E+03  0.35709223503E+03  0.00000000000E+00 0.  1.
         -6    2    1    2    0  503 -0.46178951823E+02 -0.24120909929E+02 -0.27023104029E+03  0.32466142859E+03  0.17223795804E+03 0.  0.
        -24    2    3    3    0    0 -0.52874762005E+02 -0.74226142912E+02 -0.22882222486E+03  0.25914693980E+03  0.80574593191E+02 0.  0.
          6    2    1    2  501    0  0.46178951823E+02  0.24120909929E+02  0.75099097704E+02  0.19439109888E+03  0.17156255699E+03 0.  0.
         24    2    5    5    0    0  0.43703988374E+02  0.59202313285E+02 -0.36529355472E+01  0.10801515867E+03  0.78987201913E+02 0.  0.
          5    1    5    5  501    0  0.24749634496E+01 -0.35081403356E+02  0.78752033252E+02  0.86375940208E+02  0.47000000000E+01 0. -1.
        -13    1    6    6    0    0  0.31681200497E+02  0.53263647780E+02  0.32126355092E+02  0.69805568054E+02  0.00000000000E+00 0.  1.
         14    1    6    6    0    0  0.12022787876E+02  0.59386655047E+01 -0.35779290640E+02  0.38209590615E+02  0.00000000000E+00 0. -1.
         -5    1    3    3    0  503  0.66958101817E+01  0.50105232983E+02 -0.41408815430E+02  0.65514488792E+02  0.47000000000E+01 0.  1.
         13    1    4    4    0    0 -0.50553284807E+02 -0.59446253422E+01 -0.72888864888E+02  0.88903092184E+02  0.00000000000E+00 0. -1.
        -14    1    4    4    0    0 -0.23214771980E+01 -0.68281517570E+02 -0.15593335997E+03  0.17024384762E+03  0.00000000000E+00 0.  1.
</event>
<event>
12    1  0.8462562E-002  0.3713193E+03  0.7818608E-02  0.1054306E+00
         21   -1    0    0  501  502  0.00000000000E+00  0.00000000000E+00  0.29216607068E+03  0.29216607068E+03  0.00000000000E+00 0.  1.
         21   -1    0    0  502  503 -0.00000000000E+00 -0.00000000000E+00 -0.71572673733E+03  0.71572673733E+03  0.00000000000E+00 0. -1.
         -6    2    1    2    0  503  0.31516204421E+03  0.92531666477E+02 -0.50707031873E+03  0.62848893410E+03  0.17317277138E+03 0.  0.
        -24    2    3    3    0    0  0.21250659208E+03  0.55632030462E+02 -0.21995934630E+03  0.32131711658E+03  0.81293301665E+02 0.  0.
          6    2    1    2  501    0 -0.31516204421E+03 -0.92531666477E+02  0.83509652082E+02  0.37940387391E+03  0.17054094562E+03 0.  0.
         24    2    5    5    0    0 -0.15548429543E+03 -0.21584244007E+02  0.98174977875E+02  0.20399668480E+03  0.85645054808E+02 0.  0.
          5    1    5    5  501    0 -0.15967774878E+03 -0.70947422470E+02 -0.14665325793E+02  0.17540718911E+03  0.47000000000E+01 0. -1.
        -13    1    6    6    0    0 -0.49040689663E+02 -0.46782366188E+02  0.51247476226E+02  0.84969893775E+02  0.00000000000E+00 0.  1.
         14    1    6    6    0    0 -0.10644360576E+03  0.25198122181E+02  0.46927501650E+02  0.11902679102E+03  0.00000000000E+00 0. -1.
         -5    1    3    3    0  503  0.10265545213E+03  0.36899636015E+02 -0.28711097243E+03  0.30717181752E+03  0.47000000000E+01 0.  1.
         11    1    4    4    0    0  0.27862371647E+02  0.40137856014E+02 -0.49217852529E+02  0.69352406208E+02  0.00000000000E+00 0. -1.
        -12    1    4    4    0    0  0.18464422043E+03  0.15494174448E+02 -0.17074149377E+03  0.25196471038E+03  0.00000000000E+00 0.  1.
</event>
<event>
12    1  0.8462562E-002  0.1778664E+03  0.7818608E-02  0.1170309E+00
         21   -1    0    0  503  502  0.00000000000E+00  0.00000000000E+00  0.35861427258E+03  0.35861427258E+03  0.00000000000E+00 0. -1.
         21   -1    0    0  501  503 -0.00000000000E+00 -0.00000000000E+00 -0.16923622862E+03  0.16923622862E+03  0.00000000000E+00 0. -1.
          6    2    1    2  501    0 -0.10899563109E+02  0.34130192520E+02 -0.88638421887E+02  0.19872901189E+03  0.17422049195E+03 0.  0.
         24    2    3    3    0    0  0.69477985469E+02  0.26358301429E+01 -0.33015823020E+02  0.95926245967E+02  0.57250869252E+02 0.  0.
         -6    2    1    2    0  502  0.10899563109E+02 -0.34130192520E+02  0.27801646584E+03  0.32912148932E+03  0.17246486289E+03 0.  0.
        -24    2    5    5    0    0 -0.49553907584E+02 -0.50149496953E+02  0.21847005354E+03  0.24263966780E+03  0.78576601469E+02 0.  0.
          5    1    3    3  501    0 -0.80377548577E+02  0.31494362377E+02 -0.55622598867E+02  0.10280276592E+03  0.47000000000E+01 0. -1.
        -11    1    4    4    0    0  0.36305028457E+02 -0.36836847716E+01 -0.46891194853E+02  0.59417243116E+02  0.00000000000E+00 0.  1.
         12    1    4    4    0    0  0.33172957012E+02  0.63195149144E+01  0.13875371832E+02  0.36509002851E+02  0.00000000000E+00 0. -1.
         -5    1    5    5    0  502  0.60453470693E+02  0.16019304433E+02  0.59546412309E+02  0.86481821513E+02  0.47000000000E+01 0.  1.
         13    1    6    6    0    0 -0.20649054521E+02 -0.64359730959E+02  0.18111335151E+03  0.19331478091E+03  0.00000000000E+00 0. -1.
        -14    1    6    6    0    0 -0.28904853063E+02  0.14210234007E+02  0.37356702025E+02  0.49324886896E+02  0.00000000000E+00 0.  1.
</event>
<event>
12    1  0.8462562E-002  0.1828172E+03  0.7818608E-02  0.1165164E+00
         21   -1    0    0  503  502  0.00000000000E+00  0.00000000000E+00  0.21420814819E+04  0.21420814819E+04  0.00000000000E+00 0. -1.
         21   -1    0    0  501  503 -0.00000000000E+00 -0.00000000000E+00 -0.15289170269E+03  0.15289170269E+03  0.00000000000E+00 0. -1.
          6    2    1    2  501    0 -0.22762744761E+02  0.56965662373E+02 -0.92781027457E+02  0.20501332463E+03  0.17221763841E+03 0.  0.
         24    2    3    3    0    0  0.54864961061E+01 -0.21385946616E+02 -0.88957554560E+02  0.12150462337E+03  0.79765071520E+02 0.  0.
         -6    2    1    2    0  502  0.22762744761E+02 -0.56965662373E+02  0.20819708067E+04  0.20899598599E+04  0.17194925760E+03 0.  0.
        -24    2    5    5    0    0 -0.17254622847E+02 -0.29144725661E+01  0.17063835159E+04  0.17083699966E+04  0.80480592706E+02 0.  0.
          5    1    3    3  501    0 -0.28249240867E+02  0.78351608989E+02 -0.38234728966E+01  0.83508701258E+02  0.47000000000E+01 0. -1.
        -11    1    4    4    0    0  0.29189135474E+01  0.56541120465E+01  0.13811481903E+02  0.15206777163E+02  0.00000000000E+00 0.  1.
         12    1    4    4    0    0  0.25675825587E+01 -0.27040058662E+02 -0.10276903646E+03  0.10629784621E+03  0.00000000000E+00 0. -1.
         -5    1    5    5    0  502  0.40017367609E+02 -0.54051189807E+02  0.37558729076E+03  0.38158986335E+03  0.47000000000E+01 0.  1.
         11    1    6    6    0    0  0.29390773479E+02  0.12613422458E+02  0.53484059396E+03  0.53579602176E+03  0.00000000000E+00 0. -1.
        -12    1    6    6    0    0 -0.46645396326E+02 -0.15527895024E+02  0.11715429219E+04  0.11725739748E+04  0.00000000000E+00 0.  1.
</event>
<event>
12    1  0.8462562E-002  0.2699510E+03  0.7818608E-02  0.1101332E+00
         21   -1    0    0  503  502  0.00000000000E+00  0.00000000000E+00  0.57551714571E+03  0.57551714571E+03  0.00000000000E+00 0. -1.
         21   -1    0    0  501  503 -0.00000000000E+00 -0.00000000000E+00 -0.21345112497E+03  0.21345112497E+03  0.00000000000E+00 0.  1.
          6    2    1    2  501    0 -0.18336978403E+03  0.98010483250E+02 -0.70648049705E+02  0.27904240604E+03  0.17217138241E+03 0.  0.
         24    2    3    3    0    0 -0.92494313272E+02  0.66589238604E+02  0.25605610254E+02  0.14290827051E+03  0.82327406244E+02 0.  0.
         -6    2    1    2    0  502  0.18336978403E+03 -0.98010483250E+02  0.43271407045E+03  0.50992586463E+03  0.17190808048E+03 0.  0.
        -24    2    5    5    0    0  0.38948638520E+02 -0.81650073796E+02  0.13325392488E+03  0.17702407874E+03  0.73465535887E+02 0.  0.
          5    1    3    3  501    0 -0.90875470761E+02  0.31421244646E+02 -0.96253659960E+02  0.13613413553E+03  0.47000000000E+01 0. -1.
        -11    1    4    4    0    0 -0.39154373335E+02 -0.14596604535E+02 -0.22667211889E+01  0.41848104380E+02  0.00000000000E+00 0.  1.
         12    1    4    4    0    0 -0.53339939937E+02  0.81185843139E+02  0.27872331443E+02  0.10106016613E+03  0.00000000000E+00 0. -1.
         -5    1    5    5    0  502  0.14442114551E+03 -0.16360409454E+02  0.29946014556E+03  0.33290178589E+03  0.47000000000E+01 0.  1.
         11    1    6    6    0    0  0.56758146052E+02 -0.80495904144E+02  0.10895043011E+03  0.14687162404E+03  0.00000000000E+00 0. -1.
        -12    1    6    6    0    0 -0.17809507532E+02 -0.11541696513E+01  0.24303494776E+02  0.30152454700E+02  0.00000000000E+00 0.  1.
</event>
<event>
12    1  0.8462562E-002  0.1840801E+03  0.7818608E-02  0.1164027E+00
         21   -1    0    0  503  502  0.00000000000E+00  0.00000000000E+00  0.20378708824E+03  0.20378708824E+03  0.00000000000E+00 0.  1.
         21   -1    0    0  501  503 -0.00000000000E+00 -0.00000000000E+00 -0.17143086745E+03  0.17143086745E+03  0.00000000000E+00 0.  1.
          6    2    1    2  501    0  0.46656574143E+02 -0.45909973283E+02  0.50049470324E+02  0.19028954157E+03  0.17152433819E+03 0.  0.
         24    2    3    3    0    0  0.55174290402E+02 -0.75281975278E+02  0.80068246685E+02  0.14717941601E+03  0.80865803938E+02 0.  0.
         -6    2    1    2    0  502 -0.46656574143E+02  0.45909973283E+02 -0.17693249524E+02  0.18492841412E+03  0.17204913750E+03 0.  0.
        -24    2    5    5    0    0 -0.79076535138E+02  0.78574017223E+02 -0.47725564756E+01  0.13689688337E+03  0.79315854588E+02 0.  0.
          5    1    3    3  501    0 -0.85177162597E+01  0.29372001995E+02 -0.30018776361E+02  0.43110125559E+02  0.47000000000E+01 0. -1.
        -11    1    4    4    0    0  0.16414789555E+02 -0.22631269811E+02  0.76787081170E+02  0.81718269218E+02  0.00000000000E+00 0.  1.
         12    1    4    4    0    0  0.38759500847E+02 -0.52650705467E+02  0.32811655147E+01  0.65461146791E+02  0.00000000000E+00 0. -1.
         -5    1    5    5    0  502  0.32419960996E+02 -0.32664043940E+02 -0.12920693049E+02  0.48031530752E+02  0.47000000000E+01 0.  1.
         11    1    6    6    0    0  0.24524201231E+00  0.53617734341E+02 -0.24851634887E+00  0.53618871118E+02  0.00000000000E+00 0. -1.
        -12    1    6    6    0    0 -0.79321777151E+02  0.24956282881E+02 -0.45240401267E+01  0.83278012252E+02  0.00000000000E+00 0.  1.
</event>
<event>
12    1  0.8462562E-002  0.1804951E+03  0.7818608E-02  0.1167546E+00
         21   -1    0    0  501  502  0.00000000000E+00  0.00000000000E+00  0.26875845670E+03  0.26875845670E+03  0.00000000000E+00 0. -1.
         21   -1    0    0  502  503 -0.00000000000E+00 -0.00000000000E+00 -0.12195105232E+03  0.12195105232E+03  0.00000000000E+00 0. -1.
         -6    2    1    2    0  503 -0.42125075569E+02  0.30938994780E+02  0.52683824772E+02  0.18714689989E+03  0.17180405512E+03 0.  0.
        -24    2    3    3    0    0 -0.33138403303E+02  0.12702663820E+02  0.10184488021E+03  0.13374068848E+03  0.79086539233E+02 0.  0.
          6    2    1    2  501    0  0.42125075569E+02 -0.30938994780E+02  0.94123579608E+02  0.20356260913E+03  0.17276210292E+03 0.  0.
         24    2    5    5    0    0 -0.11115645443E+02 -0.31304393830E+02 -0.99431112606E+01  0.86572549554E+02  0.79324764280E+02 0.  0.
          5    1    5    5  501    0  0.53240721012E+02  0.36539904956E+00  0.10406669087E+03  0.11699005957E+03  0.47000000000E+01 0. -1.
        -13    1    6    6    0    0  0.16049868804E+02  0.21303132164E+02 -0.97948084913E+00  0.26690468548E+02  0.00000000000E+00 0.  1.
         14    1    6    6    0    0 -0.27165514246E+02 -0.52607525993E+02 -0.89636304114E+01  0.59882081006E+02  0.00000000000E+00 0. -1.
         -5    1    3    3    0  503 -0.89866722658E+01  0.18236330960E+02 -0.49161055438E+02  0.53406211409E+02  0.47000000000E+01 0.  1.
         11    1    4    4    0    0  0.11135919964E+02 -0.16940790016E+01 -0.84113779389E+01  0.14058090053E+02  0.00000000000E+00 0. -1.
        -12    1    4    4    0    0 -0.44274323267E+02  0.14396742822E+02  0.11025625815E+03  0.11968259842E+03  0.00000000000E+00 0.  1.
</event>
<event>
12    1  0.8462562E-002  0.2265670E+03  0.7818608E-02  0.1129855E+00
         21   -1    0    0  501  502  0.00000000000E+00  0.00000000000E+00  0.22487924763E+03  0.22487924763E+03  0.00000000000E+00 0.  1.
         21   -1    0    0  502  503 -0.00000000000E+00 -0.00000000000E+00 -0.27309605915E+03  0.27309605915E+03  0.00000000000E+00 0.  1.
         -6    2    1    2    0  503 -0.14741287488E+03  0.11251808788E+01  0.81670563265E+02  0.23681759762E+03  0.16637509407E+03 0.  0.
        -24    2    3    3    0    0 -0.71522175334E+02 -0.20970263409E+01 -0.20460186591E+02  0.10944978001E+03  0.80254694718E+02 0.  0.
          6    2    1    2  501    0  0.14741287488E+03 -0.11251808788E+01 -0.12988737479E+03  0.26115770916E+03  0.17204882218E+03 0.  0.
         24    2    5    5    0    0  0.15858461406E+03 -0.20290680997E+02 -0.61096308520E+02  0.18872549982E+03  0.79522096414E+02 0.  0.
          5    1    5    5  501    0 -0.11171739181E+02  0.19165500118E+02 -0.68791066265E+02  0.72432209334E+02  0.47000000000E+01 0. -1.
        -11    1    6    6    0    0  0.55990232892E+02 -0.26285796377E+02 -0.59673355939E+02  0.85946254599E+02  0.00000000000E+00 0.  1.
         12    1    6    6    0    0  0.10259438116E+03  0.59951153806E+01 -0.14229525807E+01  0.10277924522E+03  0.00000000000E+00 0. -1.
         -5    1    3    3    0  503 -0.75890699541E+02  0.32222072198E+01  0.10213074986E+03  0.12736781761E+03  0.47000000000E+01 0.  1.
         13    1    4    4    0    0 -0.83889419848E+02 -0.18111110028E+02 -0.92526105766E+01  0.86319510375E+02  0.00000000000E+00 0. -1.
        -14    1    4    4    0    0  0.12367244513E+02  0.16014083687E+02 -0.11207576014E+02  0.23130269633E+02  0.00000000000E+00 0.  1.
</event>
<event>
12    1  0.8462562E-002  0.1758349E+03  0.7818608E-02  0.1171927E+00
         21   -1    0    0  501  502  0.00000000000E+00  0.00000000000E+00  0.84500238602E+03  0.84500238602E+03  0.00000000000E+00 0.  1.
         21   -1    0    0  502  503 -0.00000000000E+00 -0.00000000000E+00 -0.10114887768E+03  0.10114887768E+03  0.00000000000E+00 0.  1.
         -6    2    1    2    0  503  0.14262993344E+01 -0.35005723178E+02 -0.61435918049E+01  0.17581786397E+03  0.17218229463E+03 0.  0.
        -24    2    3    3    0    0  0.91321347304E+01  0.28226457396E+02 -0.51021776510E+02  0.97754876439E+02  0.77927308483E+02 0.  0.
          6    2    1    2  501    0 -0.14262993344E+01  0.35005723178E+02  0.74999710015E+03  0.77033339974E+03  0.17230920330E+03 0.  0.
         24    2    5    5    0    0 -0.36715958716E+02  0.59645597417E+02  0.68017839639E+03  0.68817973363E+03  0.77736966370E+02 0.  0.
          5    1    5    5  501    0  0.35289659382E+02 -0.24639874239E+02  0.69818703752E+02  0.82153666111E+02  0.47000000000E+01 0. -1.
        -11    1    6    6    0    0 -0.41511781659E+02  0.63299724072E+01  0.44544362311E+03  0.44741850424E+03  0.00000000000E+00 0.  1.
         12    1    6    6    0    0  0.47958229434E+01  0.53315625010E+02  0.23473477328E+03  0.24076122939E+03  0.00000000000E+00 0. -1.
         -5    1    3    3    0  503 -0.77058353959E+01 -0.63232180574E+02  0.44878184705E+02  0.78062987527E+02  0.47000000000E+01 0.  1.
         11    1    4    4    0    0 -0.15980532626E+02  0.45725293014E+02 -0.15482038635E+02  0.50851483406E+02  0.00000000000E+00 0. -1.
        -12    1    4    4    0    0  0.25112667357E+02 -0.17498835618E+02 -0.35539737875E+02  0.46903393033E+02  0.00000000000E+00 0.  1.
</event>
<event>
12    1  0.8462562E-002  0.2436597E+03  0.7818608E-02  0.1117463E+00
         21   -1    0    0  503  502  0.00000000000E+00  0.00000000000E+00  0.37379800476E+02  0.37379800476E+02  0.00000000000E+00 0. -1.
         21   -1    0    0  501  503 -0.00000000000E+00 -0.00000000000E+00 -0.15849192246E+04  0.15849192246E+04  0.00000000000E+00 0.  1.
          6    2    1    2  501    0  0.89137008072E+00 -0.17175973533E+03 -0.77294120643E+03  0.81043702082E+03  0.17282318968E+03 0.  0.
         24    2    3    3    0    0 -0.39485683603E+02 -0.17391071493E+03 -0.55290460463E+03  0.58666676071E+03  0.81672090227E+02 0.  0.
         -6    2    1    2    0  502 -0.89137008072E+00  0.17175973533E+03 -0.77459821771E+03  0.81186200427E+03  0.17209100467E+03 0.  0.
        -24    2    5    5    0    0  0.27894947473E+02  0.94859581627E+02 -0.24657451017E+03  0.27747131251E+03  0.80092895325E+02 0.  0.
          5    1    3    3  501    0  0.40377053684E+02  0.21509795993E+01 -0.22003660180E+03  0.22377026011E+03  0.47000000000E+01 0. -1.
        -11    1    4    4    0    0 -0.16536006552E+02 -0.15979452043E+03 -0.51937707773E+03  0.54365455681E+03  0.00000000000E+00 0.  1.
         12    1    4    4    0    0 -0.22949677051E+02 -0.14116194495E+02 -0.33527526899E+02  0.43012203893E+02  0.00000000000E+00 0. -1.
         -5    1    5    5    0  502 -0.28786317554E+02  0.76900153701E+02 -0.52802370754E+03  0.53439069176E+03  0.47000000000E+01 0.  1.
         11    1    6    6    0    0 -0.23337124995E+02  0.38140097322E+02 -0.52928110843E+02  0.69286891575E+02  0.00000000000E+00 0. -1.
        -12    1    6    6    0    0  0.51232072468E+02  0.56719484305E+02 -0.19364639932E+03  0.20818442094E+03  0.00000000000E+00 0.  1.
</event>
<event>
12    1  0.8462562E-002  0.2079086E+03  0.7818608E-02  0.1143284E+00
         21   -1    0    0  503  502  0.00000000000E+00  0.00000000000E+00  0.20018029708E+03  0.20018029708E+03  0.00000000000E+00 0.  1.
         21   -1    0    0  501  503 -0.00000000000E+00 -0.00000000000E+00 -0.32963674176E+03  0.32963674176E+03  0.00000000000E+00 0.  1.
          6    2    1    2  501    0 -0.97542356419E+02  0.60502327981E+02 -0.22046509355E+03  0.30286204432E+03  0.17304773166E+03 0.  0.
         24    2    3    3    0    0 -0.11072634297E+03  0.96541751014E+02 -0.15384955941E+03  0.22584011951E+03  0.75851433280E+02 0.  0.
         -6    2    1    2    0  502  0.97542356419E+02 -0.60502327981E+02  0.91008648871E+02  0.22695499451E+03  0.17335210520E+03 0.  0.
        -24    2    5    5    0    0  0.16733734287E+02 -0.84098026177E+02  0.32936133317E+02  0.12457678664E+03  0.84155160396E+02 0.  0.
          5    1    3    3  501    0  0.13183986554E+02 -0.36039423034E+02 -0.66615534136E+02  0.77021924815E+02  0.47000000000E+01 0. -1.
        -11    1    4    4    0    0 -0.10912738214E+02 -0.12486561625E+02 -0.89340125873E+01  0.18836630735E+02  0.00000000000E+00 0.  1.
         12    1    4    4    0    0 -0.99813604759E+02  0.10902831264E+03 -0.14491554683E+03  0.20700348877E+03  0.00000000000E+00 0. -1.
         -5    1    5    5    0  502  0.80808622132E+02  0.23595698196E+02  0.58072515553E+02  0.10237820787E+03  0.47000000000E+01 0.  1.
         13    1    6    6    0    0  0.22993328317E+02 -0.56313829914E+02 -0.20363334351E+02  0.64145194461E+02  0.00000000000E+00 0. -1.
        -14    1    6    6    0    0 -0.62595940292E+01 -0.27784196263E+02  0.53299467668E+02  0.60431592177E+02  0.00000000000E+00 0.  1.
</event>
<event>
12    1  0.8462562E-002  0.2863504E+03  0.7818608E-02  0.1092833E+00
         21   -1    0    0  503  502  0.00000000000E+00  0.00000000000E+00  0.17377721957E+03  0.17377721957E+03  0.00000000000E+00 0.  1.
         21   -1    0    0  501  503 -0.00000000000E+00 -0.00000000000E+00 -0.47450043396E+03  0.47450043396E+03  0.00000000000E+00 0.  1.
          6    2    1    2  501    0  0.76481540863E+02 -0.21524379786E+03 -0.19529620296E+03  0.34313602497E+03  0.16559711993E+03 0.  0.
         24    2    3    3    0    0  0.49460741815E+02 -0.50718027705E+02 -0.44599043192E+02  0.11834595270E+03  0.83654088678E+02 0.  0.
         -6    2    1    2    0  502 -0.76481540863E+02  0.21524379786E+03 -0.10542701144E+03  0.30514162856E+03  0.17267669249E+03 0.  0.
        -24    2    5    5    0    0 -0.61178089495E+02  0.61651305457E+02  0.75472664332E+00  0.11773431587E+03  0.79480547447E+02 0.  0.
          5    1    3    3  501    0  0.27020799048E+02 -0.16452577016E+03 -0.15069715977E+03  0.22479007227E+03  0.47000000000E+01 0. -1.
        -11    1    4    4    0    0  0.52582352305E+02 -0.36828363864E+02 -0.66367518853E+02  0.92335690377E+02  0.00000000000E+00 0.  1.
         12    1    4    4    0    0 -0.31216104896E+01 -0.13889663841E+02  0.21768475661E+02  0.26010262326E+02  0.00000000000E+00 0. -1.
         -5    1    5    5    0  502 -0.15303451368E+02  0.15359249240E+03 -0.10618173808E+03  0.18740731269E+03  0.47000000000E+01 0.  1.
         11    1    6    6    0    0 -0.36936815783E+02 -0.10517817747E+02 -0.12643378857E+02  0.40432757503E+02  0.00000000000E+00 0. -1.
        -12    1    6    6    0    0 -0.24241273712E+02  0.72169123204E+02  0.13398105500E+02  0.77301558368E+02  0.00000000000E+00 0.  1.
</event>
<event>
12    1  0.8462562E-002  0.2051321E+03  0.7818608E-02  0.1145703E+00
         21   -1    0    0  503  502  0.00000000000E+00  0.00000000000E+00  0.26939084954E+03  0.26939084954E+03  0.00000000000E+00 0. -1.
         21   -1    0    0  501  503 -0.00000000000E+00 -0.00000000000E+00 -0.16383897700E+03  0.16383897700E+03  0.00000000000E+00 0. -1.
          6    2    1    2  501    0 -0.74608325728E+02 -0.83350715391E+02  0.36634244672E+01  0.20516481817E+03  0.17194603198E+03 0.  0.
         24    2    3    3    0    0 -0.55679067175E+02 -0.10842256854E+03 -0.39305316822E+02  0.15172964832E+03  0.81371778635E+02 0.  0.
         -6    2    1    2    0  502  0.74608325728E+02  0.83350715391E+02  0.10188844807E+03  0.22806500837E+03  0.17064187109E+03 0.  0.
        -24    2    5    5    0    0  0.38931550025E+02  0.47575800720E+02 -0.94979817369E+01  0.10566523880E+03  0.85415505809E+02 0.  0.
          5    1    3    3  501    0 -0.18929258553E+02  0.25071853144E+02  0.42968741289E+02  0.53435169855E+02  0.47000000000E+01 0. -1.
        -11    1    4    4    0    0 -0.37396240517E+02 -0.10483252736E+03 -0.34897934864E+01  0.11135760529E+03  0.00000000000E+00 0.  1.
         12    1    4    4    0    0 -0.18282826658E+02 -0.35900411760E+01 -0.35815523336E+02  0.40372043026E+02  0.00000000000E+00 0. -1.
         -5    1    5    5    0  502  0.35676775703E+02  0.35774914671E+02  0.11138642981E+03  0.12239976957E+03  0.47000000000E+01 0.  1.
         13    1    6    6    0    0  0.25415670904E+02 -0.18885562164E+02 -0.19384706742E+02  0.37126643280E+02  0.00000000000E+00 0. -1.
        -14    1    6    6    0    0  0.13515879121E+02  0.66461362884E+02  0.98867250056E+01  0.68538595522E+02  0.00000000000E+00 0.  1.
</event>
<event>
12    1  0.8462562E-002  0.2340447E+03  0.7818608E-02  0.1123891E+00
         21   -1    0    0  503  502  0.00000000000E+00  0.00000000000E+00  0.33542337290E+03  0.33542337290E+03  0.00000000000E+00 0.  1.
         21   -1    0    0  501  503 -0.00000000000E+00 -0.00000000000E+00 -0.19905995550E+03  0.19905995550E+03  0.00000000000E+00 0.  1.
          6    2    1    2  501    0 -0.14800605924E+02  0.15719496836E+03 -0.45455309207E+02  0.23841793471E+03  0.17276460993E+03 0.  0.
         24    2    3    3    0    0  0.33132316587E+01  0.92151310325E+02 -0.96818749419E+02  0.15345275624E+03  0.75306285657E+02 0.  0.
         -6    2    1    2    0  502  0.14800605924E+02 -0.15719496836E+03  0.18181872661E+03  0.29606539368E+03  0.17224213184E+03 0.  0.
        -24    2    5    5    0    0  0.76033298129E+02 -0.83815747855E+02  0.10808630799E+03  0.17526592286E+03  0.78926242327E+02 0.  0.
          5    1    3    3  501    0 -0.18113837582E+02  0.65043658035E+02  0.51363440211E+02  0.84965178472E+02  0.47000000000E+01 0. -1.
        -13    1    4    4    0    0  0.14006568578E+02  0.32715499622E+02 -0.84680810535E+02  0.91854926660E+02  0.00000000000E+00 0.  1.
         14    1    4    4    0    0 -0.10693336919E+02  0.59435810703E+02 -0.12137938883E+02  0.61597829578E+02  0.00000000000E+00 0. -1.
         -5    1    5    5    0  502 -0.61232692205E+02 -0.73379220505E+02  0.73732418616E+02  0.12079947083E+03  0.47000000000E+01 0.  1.
         13    1    6    6    0    0 -0.27667520266E+01  0.12908212275E+02  0.10907335354E+02  0.17124451099E+02  0.00000000000E+00 0. -1.
        -14    1    6    6    0    0  0.78800050156E+02 -0.96723960130E+02  0.97178972635E+02  0.15814147176E+03  0.00000000000E+00 0.  1.
</event>
<event>
12    1  0.8462562E-002  0.2736187E+03  0.7818608E-02  0.1099268E+00
         21   -1    0    0  501  502  0.00000000000E+00  0.00000000000E+00  0.29380111316E+03  0.29380111316E+03  0.00000000000E+00 0. -1.
         21   -1    0    0  502  503 -0.00000000000E+00 -0.00000000000E+00 -0.25705387720E+03  0.25705387720E+03  0.00000000000E+00 0.  1.
         -6    2    1    2    0  503 -0.21140178569E+03  0.20187053970E+02  0.45585566154E+02  0.27739008655E+03  0.17253690658E+03 0.  0.
        -24    2    3    3    0    0 -0.15108569554E+03 -0.23968479861E+02 -0.25227820701E+02  0.17431551327E+03  0.79674837969E+02 0.  0.
          6    2    1    2  501    0  0.21140178569E+03 -0.20187053970E+02 -0.88383301961E+01  0.27346490380E+03  0.17206599138E+03 0.  0.
         24    2    5    5    0    0  0.23030859883E+03 -0.92428603592E+00 -0.16966292513E+02  0.24488736747E+03  0.81480443458E+02 0.  0.
          5    1    5    5  501    0 -0.18906813136E+02 -0.19262767934E+02  0.81279623170E+01  0.28577536333E+02  0.47000000000E+01 0. -1.
        -13    1    6    6    0    0  0.10844217601E+02  0.20795207154E+02  0.19929625748E+01  0.23537408434E+02  0.00000000000E+00 0.  1.
         14    1    6    6    0    0  0.21946438123E+03 -0.21719493190E+02 -0.18959255088E+02  0.22134995904E+03  0.00000000000E+00 0. -1.
         -5    1    3    3    0  503 -0.60316090155E+02  0.44155533830E+02  0.70813386854E+02  0.10307457328E+03  0.47000000000E+01 0.  1.
         11    1    4    4    0    0 -0.71030780763E+02 -0.45915568679E+01  0.27733688240E+02  0.76391175365E+02  0.00000000000E+00 0. -1.
        -12    1    4    4    0    0 -0.80054914776E+02 -0.19376922993E+02 -0.52961508941E+02  0.97924337903E+02  0.00000000000E+00 0.  1.
</event>
<event>
12    1  0.8462562E-002  0.1832415E+03  0.7818608E-02  0.1165274E+00
         21   -1    0    0  501  502  0.00000000000E+00  0.00000000000E+00  0.56418020265E+02  0.56418020265E+02  0.00000000000E+00 0.  1.
         21   -1    0    0  502  503 -0.00000000000E+00 -0.00000000000E+00 -0.59259149631E+03  0.59259149631E+03  0.00000000000E+00 0. -1.
         -6    2    1    2    0  503  0.41203374039E+02  0.47773504758E+02 -0.29678010429E+03  0.34753542612E+03  0.16947689021E+03 0.  0.
        -24    2    3    3    0    0 -0.24431534202E+02 -0.13007698216E+02 -0.18971768645E+03  0.20794048664E+03  0.80500592262E+02 0.  0.
          6    2    1    2  501    0 -0.41203374039E+02 -0.47773504758E+02 -0.23939337175E+03  0.30147409046E+03  0.17203899264E+03 0.  0.
         24    2    5    5    0    0  0.18637455022E+02  0.27419567889E+02 -0.97870585206E+02  0.13034340323E+03  0.79445351564E+02 0.  0.
          5    1    5    5  501    0 -0.59840829061E+02 -0.75193072647E+02 -0.14152278655E+03  0.17113068722E+03  0.47000000000E+01 0. -1.
        -11    1    6    6    0    0 -0.16231693023E+02 -0.11783329218E+01  0.58095772876E+01  0.17280263746E+02  0.00000000000E+00 0.  1.
         12    1    6    6    0    0  0.34869148045E+02  0.28597900811E+02 -0.10368016249E+03  0.11306313949E+03  0.00000000000E+00 0. -1.
         -5    1    3    3    0  503  0.65634908241E+02  0.60781202974E+02 -0.10706241784E+03  0.13959493948E+03  0.47000000000E+01 0.  1.
         11    1    4    4    0    0 -0.19547875939E+02 -0.46562426273E+02 -0.12641220729E+03  0.13612576959E+03  0.00000000000E+00 0. -1.
        -12    1    4    4    0    0 -0.48836582633E+01  0.33554728057E+02 -0.63305479158E+02  0.71814717046E+02  0.00000000000E+00 0.  1.
</event>
<event>
12    1  0.8462562E-002  0.2346488E+03  0.7818608E-02  0.1124110E+00
         21   -1    0    0  503  502  0.00000000000E+00  0.00000000000E+00  0.27011408821E+03  0.27011408821E+03  0.00000000000E+00 0.  1.
         21   -1    0    0  501  503 -0.00000000000E+00 -0.00000000000E+00 -0.26351334404E+03  0.26351334404E+03  0.00000000000E+00 0. -1.
          6    2    1    2  501    0  0.97332472235E+02  0.12269785949E+03  0.13395737192E+03  0.27019366153E+03  0.17473311754E+03 0.  0.
         24    2    3    3    0    0 -0.20479117951E+02  0.59009863992E+02  0.63172457167E+02  0.11864061567E+03  0.78633822378E+02 0.  0.
         -6    2    1    2    0  502 -0.97332472235E+02 -0.12269785949E+03 -0.12735662776E+03  0.26343377072E+03  0.16926094069E+03 0.  0.
        -24    2    5    5    0    0 -0.10295563433E+03 -0.96237488034E+02 -0.32683002983E+02  0.16485914702E+03  0.79049623193E+02 0.  0.
          5    1    3    3  501    0  0.11781159019E+03  0.63687995501E+02  0.70784914756E+02  0.15155304586E+03  0.47000000000E+01 0. -1.
        -11    1    4    4    0    0 -0.26948215745E+02  0.75642342365E+02  0.60621861433E+02  0.10061302288E+03  0.00000000000E+00 0.  1.
         12    1    4    4    0    0  0.64690977944E+01 -0.16632478373E+02  0.25505957341E+01  0.18027592787E+02  0.00000000000E+00 0. -1.
         -5    1    5    5    0  502  0.56231620967E+01 -0.26460371458E+02 -0.94673624776E+02  0.98574623702E+02  0.47000000000E+01 0.  1.
         11    1    6    6    0    0 -0.58812538802E+02 -0.97919487103E+02 -0.86039018534E+01  0.11454766607E+03  0.00000000000E+00 0. -1.
        -12    1    6    6    0    0 -0.44143095530E+02  0.16819990684E+01 -0.24079101129E+02  0.50311480946E+02  0.00000000000E+00 0.  1.
</event>
<event>
12    1  0.8462562E-002  0.2383040E+03  0.7818608E-02  0.1120950E+00
         21   -1    0    0  503  502  0.00000000000E+00  0.00000000000E+00  0.98641151105E+02  0.98641151105E+02  0.00000000000E+00 0.  1.
         21   -1    0    0  501  503 -0.00000000000E+00 -0.00000000000E+00 -0.63296452924E+03  0.63296452924E+03  0.00000000000E+00 0. -1.
          6    2    1    2  501    0  0.10035039747E+03  0.13136790480E+03 -0.37741962448E+03  0.44628550264E+03  0.17145684076E+03 0.  0.
         24    2    3    3    0    0  0.17823758820E+02  0.12999969803E+03 -0.27286740025E+03  0.31299718482E+03  0.79328505087E+02 0.  0.
         -6    2    1    2    0  502 -0.10035039747E+03 -0.13136790480E+03 -0.15690375366E+03  0.28532017771E+03  0.17164232349E+03 0.  0.
        -24    2    5    5    0    0 -0.55643020163E+02 -0.16785611605E+02 -0.12231898305E+03  0.15746851422E+03  0.80352329817E+02 0.  0.
          5    1    3    3  501    0  0.82526638649E+02  0.13682067694E+01 -0.10455222423E+03  0.13328831782E+03  0.47000000000E+01 0. -1.
        -13    1    4    4    0    0 -0.19804352426E+02  0.63478534386E+02 -0.18475853465E+03  0.19636051749E+03  0.00000000000E+00 0.  1.
         14    1    4    4    0    0  0.37628111246E+02  0.66521163642E+02 -0.88108865600E+02  0.11663666733E+03  0.00000000000E+00 0. -1.
         -5    1    5    5    0  502 -0.44707377306E+02 -0.11458229319E+03 -0.34584770615E+02  0.12785166349E+03  0.47000000000E+01 0.  1.
         11    1    6    6    0    0  0.34472974739E+01 -0.34671530786E+02 -0.62205895514E+02  0.71299174916E+02  0.00000000000E+00 0. -1.
        -12    1    6    6    0    0 -0.59090317637E+02  0.17885919182E+02 -0.60113087534E+02  0.86169339305E+02  0.00000000000E+00 0.  1.
</event>
<event>
12    1  0.8462562E-002  0.1750023E+03  0.7818608E-02  0.1173031E+00
         21   -1    0    0  503  502  0.00000000000E+00  0.00000000000E+00  0.12068137131E+03  0.12068137131E+03  0.00000000000E+00 0. -1.
         21   -1    0    0  501  503 -0.00000000000E+00 -0.00000000000E+00 -0.38737653769E+03  0.38737653769E+03  0.00000000000E+00 0. -1.
          6    2    1    2  501    0 -0.27122667340E+02  0.12792914069E+02 -0.28319855190E+03  0.33227915622E+03  0.17119789754E+03 0.  0.
         24    2    3    3    0    0 -0.50824117973E+02  0.40393048758E+02 -0.27572168901E+03  0.29484228034E+03  0.81821947710E+02 0.  0.
         -6    2    1    2    0  502  0.27122667340E+02 -0.12792914069E+02  0.16503385515E+02  0.17577875278E+03  0.17241377689E+03 0.  0.
        -24    2    5    5    0    0  0.62394389980E+02  0.46264665896E+01  0.59008293962E+02  0.11767293137E+03  0.80314854953E+02 0.  0.
          5    1    3    3  501    0  0.23701450633E+02 -0.27600134690E+02 -0.74768628887E+01  0.37436875880E+02  0.47000000000E+01 0. -1.
        -11    1    4    4    0    0 -0.27292632086E+02  0.46123069892E+02 -0.26111768863E+03  0.26656082356E+03  0.00000000000E+00 0.  1.
         12    1    4    4    0    0 -0.23531485887E+02 -0.57300211337E+01 -0.14604000384E+02  0.28281456777E+02  0.00000000000E+00 0. -1.
         -5    1    5    5    0  502 -0.35271722640E+02 -0.17419380658E+02 -0.42504908446E+02  0.58105821417E+02  0.47000000000E+01 0.  1.
         13    1    6    6    0    0  0.22253276444E+02  0.18405814350E+02 -0.14862307303E+02  0.32478769878E+02  0.00000000000E+00 0. -1.
        -14    1    6    6    0    0  0.40141113535E+02 -0.13779347761E+02  0.73870601265E+02  0.85194161489E+02  0.00000000000E+00 0.  1.
</event>
<event>
12    1  0.8462562E-002  0.1745516E+03  0.7818608E-02  0.1173784E+00
         21   -1    0    0  503  502  0.00000000000E+00  0.00000000000E+00  0.33866075843E+03  0.33866075843E+03  0.00000000000E+00 0.  1.
         21   -1    0    0  501  503 -0.00000000000E+00 -0.00000000000E+00 -0.14182702204E+03  0.14182702204E+03  0.00000000000E+00 0.  1.
          6    2    1    2  501    0  0.61706289234E+01 -0.21492998379E+02 -0.48971958911E+02  0.17901026073E+03  0.17072315322E+03 0.  0.
         24    2    3    3    0    0  0.66750373223E+01  0.21437872982E+02 -0.86582340322E+02  0.12173945723E+03  0.82582415011E+02 0.  0.
         -6    2    1    2    0  502 -0.61706289234E+01  0.21492998379E+02  0.24580569531E+03  0.30147751974E+03  0.17311334271E+03 0.  0.
        -24    2    5    5    0    0 -0.62614334795E+01  0.75523446436E+02  0.99201518463E+02  0.14516318185E+03  0.74083814620E+02 0.  0.
          5    1    3    3  501    0 -0.50440839884E+00 -0.42930871361E+02  0.37610381411E+02  0.57270803500E+02  0.47000000000E+01 0. -1.
        -11    1    4    4    0    0  0.27709022032E+02 -0.22547961450E+02 -0.27168682408E+02  0.44881374437E+02  0.00000000000E+00 0.  1.
         12    1    4    4    0    0 -0.21033984710E+02  0.43985834432E+02 -0.59413657914E+02  0.76858082790E+02  0.00000000000E+00 0. -1.
         -5    1    5    5    0  502  0.90804556094E-01 -0.54030448057E+02  0.14660417684E+03  0.15631433789E+03  0.47000000000E+01 0.  1.
         13    1    6    6    0    0 -0.34223246462E+02  0.66638245297E+02  0.82361764644E+02  0.11133439096E+03  0.00000000000E+00 0. -1.
        -14    1    6    6    0    0  0.27961812982E+02  0.88852011395E+01  0.16839753819E+02  0.33828790892E+02  0.00000000000E+00 0.  1.
</event>
<event>
12    1  0.8462562E-002  0.2667897E+03  0.7818608E-02  0.1104581E+00
         21   -1    0    0  501  502  0.00000000000E+00  0.00000000000E+00  0.24607179226E+03  0.24607179226E+03  0.00000000000E+00 0.  1.
         21   -1    0    0  502  503 -0.00000000000E+00 -0.00000000000E+00 -0.31383917349E+03  0.31383917349E+03  0.00000000000E+00 0.  1.
         -6    2    1    2    0  503  0.18109637594E+03  0.69243192271E+02 -0.12804868047E+03  0.29592771241E+03  0.18326546141E+03 0.  0.
        -24    2    3    3    0    0  0.14596464000E+03  0.83278534366E+02 -0.27384097577E+02  0.18828628011E+03  0.80379375855E+02 0.  0.
          6    2    1    2  501    0 -0.18109637594E+03 -0.69243192271E+02  0.60281299234E+02  0.26398325334E+03  0.16870923493E+03 0.  0.
         24    2    5    5    0    0 -0.18125535505E+03 -0.34208970305E+02  0.81746797107E+01  0.20101809011E+03  0.79483896348E+02 0.  0.
          5    1    5    5  501    0  0.15897910606E+00 -0.35034221966E+02  0.52106619523E+02  0.62965163235E+02  0.47000000000E+01 0. -1.
        -13    1    6    6    0    0 -0.11521791857E+03 -0.57244224505E+02 -0.91009468630E+01  0.12897634370E+03  0.00000000000E+00 0.  1.
         14    1    6    6    0    0 -0.66037436473E+02  0.23035254200E+02  0.17275626574E+02  0.72041746408E+02  0.00000000000E+00 0. -1.
         -5    1    3    3    0  503  0.35131735943E+02 -0.14035342094E+02 -0.10066458289E+03  0.10764143229E+03  0.47000000000E+01 0.  1.
         11    1    4    4    0    0  0.22717282719E+02  0.44179057725E+02  0.15532611110E+02  0.52049265927E+02  0.00000000000E+00 0. -1.
        -12    1    4    4    0    0  0.12324735728E+03  0.39099476641E+02 -0.42916708687E+02  0.13623701419E+03  0.00000000000E+00 0.  1.
</event>
<event>
12    1  0.8462562E-002  0.2002179E+03  0.7818608E-02  0.1149928E+00
         21   -1    0    0  501  502  0.00000000000E+00  0.00000000000E+00  0.91691267867E+02  0.91691267867E+02  0.00000000000E+00 0. -1.
         21   -1    0    0  502  503 -0.00000000000E+00 -0.00000000000E+00 -0.61703187231E+03  0.61703187231E+03  0.00000000000E+00 0. -1.
         -6    2    1    2    0  503  0.42928712331E+01  0.10308888722E+03 -0.45518954132E+03  0.49657137391E+03  0.16952835587E+03 0.  0.
        -24    2    3    3    0    0 -0.41375880255E+02  0.92028831769E+01 -0.18624289209E+03  0.20803262997E+03  0.82428779885E+02 0.  0.
          6    2    1    2  501    0 -0.42928712331E+01 -0.10308888722E+03 -0.70151063116E+02  0.21215176626E+03  0.17158511841E+03 0.  0.
         24    2    5    5    0    0 -0.11961380537E+02 -0.11303165191E+03 -0.10550859834E+03  0.17433761677E+03  0.79638629701E+02 0.  0.
          5    1    5    5  501    0  0.76685093034E+01  0.99427646838E+01  0.35357535226E+02  0.37814149492E+02  0.47000000000E+01 0. -1.
        -11    1    6    6    0    0  0.19726290717E+02 -0.23496664475E+02 -0.63423856392E+02  0.70454278412E+02  0.00000000000E+00 0.  1.
         12    1    6    6    0    0 -0.31687671254E+02 -0.89534987432E+02 -0.42084741950E+02  0.10388333836E+03  0.00000000000E+00 0. -1.
         -5    1    3    3    0  503  0.45668751488E+02  0.93886004047E+02 -0.26894664924E+03  0.28853874394E+03  0.47000000000E+01 0.  1.
         11    1    4    4    0    0 -0.42727500254E+02  0.28407451460E+02 -0.18092473814E+03  0.18805952102E+03  0.00000000000E+00 0. -1.
        -12    1    4    4    0    0  0.13516199989E+01 -0.19204568283E+02 -0.53181539461E+01  0.19973108945E+02  0.00000000000E+00 0.  1.
</event>
<event>
12    1  0.8462562E-002  0.1933854E+03  0.7818608E-02  0.1156187E+00
         21   -1    0    0  501  502  0.00000000000E+00  0.00000000000E+00  0.95298126828E+03  0.95298126828E+03  0.00000000000E+00 0. -1.
         21   -1    0    0  502  503 -0.00000000000E+00 -0.00000000000E+00 -0.67557028180E+02  0.67557028180E+02  0.00000000000E+00 0.  1.
         -6    2    1    2    0  503  0.77272160548E+02 -0.22398426225E+02  0.11066258577E+03  0.22280959199E+03  0.17585570818E+03 0.  0.
        -24    2    3    3    0    0 -0.68089221138E+01  0.30317272458E+02  0.17986233006E+02  0.86943592889E+02  0.79184501874E+02 0.  0.
          6    2    1    2  501    0 -0.77272160548E+02  0.22398426225E+02  0.77476165433E+03  0.79772870447E+03  0.17217081236E+03 0.  0.
         24    2    5    5    0    0  0.21011502788E+02  0.34953917654E+02  0.43803992128E+03  0.44670030911E+03  0.77452785064E+02 0.  0.
          5    1    5    5  501    0 -0.98283663336E+02 -0.12555491429E+02  0.33672173304E+03  0.35102839536E+03  0.47000000000E+01 0. -1.
        -13    1    6    6    0    0  0.36541014808E+02 -0.10409448841E+02  0.15244970343E+03  0.15711306268E+03  0.00000000000E+00 0.  1.
         14    1    6    6    0    0 -0.15529512020E+02  0.45363366496E+02  0.28559021785E+03  0.28958724643E+03  0.00000000000E+00 0. -1.
         -5    1    3    3    0  503  0.84081082661E+02 -0.52715698684E+02  0.92676352763E+02  0.13586599910E+03  0.47000000000E+01 0.  1.
         13    1    4    4    0    0  0.18854252239E+02  0.47784637095E+01  0.40065335149E+02  0.44537036537E+02  0.00000000000E+00 0. -1.
        -14    1    4    4    0    0 -0.25663174353E+02  0.25538808749E+02 -0.22079102143E+02  0.42406556352E+02  0.00000000000E+00 0.  1.
</event>
<event>
12    1  0.8462562E-002  0.1726207E+03  0.7818608E-02  0.1175165E+00
         21   -1    0    0  501  502  0.00000000000E+00  0.00000000000E+00  0.24441353580E+04  0.24441353580E+04  0.00000000000E+00 0. -1.
         21   -1    0    0  502  503 -0.00000000000E+00 -0.00000000000E+00 -0.30764161138E+02  0.30764161138E+02  0.00000000000E+00 0. -1.
         -6    2    1    2    0  503  0.46320677926E+01 -0.14214914932E+02  0.24491954944E+03  0.29958794083E+03  0.17188318341E+03 0.  0.
        -24    2    3    3    0    0 -0.54157135366E+02  0.21842723270E+02  0.13265900796E+03  0.16775151623E+03  0.84451518235E+02 0.  0.
          6    2    1    2  501    0 -0.46320677926E+01  0.14214914932E+02  0.21684516474E+04  0.21753115783E+04  0.17197207804E+03 0.  0.
         24    2    5    5    0    0  0.73105158725E+01 -0.37297308487E+02  0.66481841861E+03  0.67074150308E+03  0.80412072269E+02 0.  0.
          5    1    5    5  501    0 -0.11942583665E+02  0.51512223419E+02  0.15036332288E+04  0.15045700752E+04  0.47000000000E+01 0. -1.
        -11    1    6    6    0    0 -0.28593660152E+02 -0.28900955300E+02  0.18052055709E+03  0.18504197943E+03  0.00000000000E+00 0.  1.
         12    1    6    6    0    0  0.35904176024E+02 -0.83963531867E+01  0.48429786152E+03  0.48569952365E+03  0.00000000000E+00 0. -1.
         -5    1    3    3    0  503  0.58789203158E+02 -0.36057638202E+02  0.11226054148E+03  0.13183642461E+03  0.47000000000E+01 0.  1.
         13    1    4    4    0    0  0.24061346474E+01  0.31151478554E+02  0.92835041174E+02  0.97951768590E+02  0.00000000000E+00 0. -1.
        -14    1    4    4    0    0 -0.56563270013E+02 -0.93087552843E+01  0.39823966787E+02  0.69799747637E+02  0.00000000000E+00 0.  1.
</event>
<event>
12    1  0.8462562E-002  0.2205291E+03  0.7818608E-02  0.1136348E+00
         21   -1    0    0  503  502  0.00000000000E+00  0.00000000000E+00  0.53632769909E+03  0.53632769909E+03  0.00000000000E+00 0.  1.
         21   -1    0    0  501  503 -0.00000000000E+00 -0.00000000000E+00 -0.20482004684E+03  0.20482004684E+03  0.00000000000E+00 0.  1.
          6    2    1    2  501    0  0.10724856997E+03  0.68852659060E+02  0.44710709316E+03  0.49215712005E+03  0.16146496100E+03 0.  0.
         24    2    3    3    0    0  0.43304162239E+01  0.62098555727E+02  0.24794089035E+03  0.26782025142E+03  0.79862499538E+02 0.  0.
         -6    2    1    2    0  502 -0.10724856997E+03 -0.68852659060E+02 -0.11559944091E+03  0.24899062589E+03  0.17997265520E+03 0.  0.
        -24    2    5    5    0    0 -0.44824606146E+02 -0.10149280667E+03 -0.25153581858E+02  0.13425321300E+03  0.71282448041E+02 0.  0.
          5    1    3    3  501    0  0.10291815375E+03  0.67541033334E+01  0.19916620281E+03  0.22433686863E+03  0.47000000000E+01 0. -1.
        -13    1    4    4    0    0 -0.32488086301E+02  0.31619879136E+02  0.68657011280E+02  0.82274404926E+02  0.00000000000E+00 0.  1.
         14    1    4    4    0    0  0.36818502525E+02  0.30478676591E+02  0.17928387907E+03  0.18554584649E+03  0.00000000000E+00 0. -1.
         -5    1    5    5    0  502 -0.62423963829E+02  0.32640147611E+02 -0.90445859050E+02  0.11473741288E+03  0.47000000000E+01 0.  1.
         11    1    6    6    0    0  0.71236123514E+01  0.36992664586E+01  0.90034222129E+01  0.12062007992E+02  0.00000000000E+00 0. -1.
        -12    1    6    6    0    0 -0.51948218497E+02 -0.10519207313E+03 -0.34157004071E+02  0.12219120501E+03  0.00000000000E+00 0.  1.
</event>
<event>
12    1  0.8462562E-002  0.1879265E+03  0.7818608E-02  0.1160602E+00
         21   -1    0    0  501  502  0.00000000000E+00  0.00000000000E+00  0.34244080116E+03  0.34244080116E+03  0.00000000000E+00 0.  1.
         21   -1    0    0  502  503 -0.00000000000E+00 -0.00000000000E+00 -0.37670463323E+03  0.37670463323E+03  0.00000000000E+00 0.  1.
         -6    2    1    2    0  503  0.64484074553E+02  0.37581932444E+02 -0.32388580973E+03  0.37389585629E+03  0.17124688636E+03 0.  0.
        -24    2    3    3    0    0  0.71915102334E+02 -0.28759997821E+02 -0.24735706747E+03  0.27223362005E+03  0.83226832454E+02 0.  0.
          6    2    1    2  501    0 -0.64484074553E+02 -0.37581932444E+02  0.28962197767E+03  0.34524957809E+03  0.17246966025E+03 0.  0.
         24    2    5    5    0    0 -0.82205707240E+02 -0.47273442921E+02  0.11386135965E+03  0.16826973041E+03  0.79735413981E+02 0.  0.
          5    1    5    5  501    0  0.17721632687E+02  0.96915104772E+01  0.17576061801E+03  0.17697984768E+03  0.47000000000E+01 0. -1.
        -13    1    6    6    0    0 -0.72188009142E+01 -0.47043283908E+02  0.32553451431E+02  0.57662022576E+02  0.00000000000E+00 0.  1.
         14    1    6    6    0    0 -0.74986906325E+02 -0.23015901309E+00  0.81307908223E+02  0.11060770784E+03  0.00000000000E+00 0. -1.
         -5    1    3    3    0  503 -0.74310277812E+01  0.66341930265E+02 -0.76528742267E+02  0.10166223624E+03  0.47000000000E+01 0.  1.
         11    1    4    4    0    0  0.20671292476E+02 -0.48802133600E+02 -0.79152233779E+02  0.95257685720E+02  0.00000000000E+00 0. -1.
        -12    1    4    4    0    0  0.51243809858E+02  0.20042135779E+02 -0.16820483369E+03  0.17697593433E+03  0.00000000000E+00 0.  1.
</event>
<event>
12    1  0.8462562E-002  0.1762231E+03  0.7818608E-02  0.1171851E+00
         21   -1    0    0  503  502  0.00000000000E+00  0.00000000000E+00  0.19277741206E+03  0.19277741206E+03  0.00000000000E+00 0. -1.
         21   -1    0    0  501  503 -0.00000000000E+00 -0.00000000000E+00 -0.23864288061E+03  0.23864288061E+03  0.00000000000E+00 0. -1.
          6    2    1    2  501    0  0.31941398583E+02 -0.10482764875E+02 -0.14694711355E+03  0.22945156717E+03  0.17298678040E+03 0.  0.
         24    2    3    3    0    0 -0.38683607935E+02 -0.35264322693E+01 -0.12589714914E+03  0.15527965125E+03  0.82175547965E+02 0.  0.
         -6    2    1    2    0  502 -0.31941398583E+02  0.10482764875E+02  0.10108164500E+03  0.20196872550E+03  0.17159174170E+03 0.  0.
        -24    2    5    5    0    0 -0.79986623965E+02  0.24817215625E+02  0.93219396283E+02  0.15100084232E+03  0.84247518266E+02 0.  0.
          5    1    3    3  501    0  0.70625006518E+02 -0.69563326061E+01 -0.21049964406E+02  0.74171915915E+02  0.47000000000E+01 0. -1.
        -13    1    4    4    0    0 -0.16766785356E+02 -0.40040348065E+02 -0.38345760607E+02  0.57920220311E+02  0.00000000000E+00 0.  1.
         14    1    4    4    0    0 -0.21916822579E+02  0.36513915796E+02 -0.87551388534E+02  0.97359430940E+02  0.00000000000E+00 0. -1.
         -5    1    5    5    0  502  0.48045225382E+02 -0.14334450749E+02  0.78622487139E+01  0.50967883173E+02  0.47000000000E+01 0.  1.
         13    1    6    6    0    0 -0.30291804911E+02 -0.30553514593E+02  0.23428958533E+02  0.48990068347E+02  0.00000000000E+00 0. -1.
        -14    1    6    6    0    0 -0.49694819054E+02  0.55370730217E+02  0.69790437750E+02  0.10201077398E+03  0.00000000000E+00 0.  1.
</event>
<event>
12    1  0.8462562E-002  0.2371271E+03  0.7818608E-02  0.1122143E+00
         21   -1    0    0  501  502  0.00000000000E+00  0.00000000000E+00  0.13438770329E+03  0.13438770329E+03  0.00000000000E+00 0. -1.
         21   -1    0    0  502  503 -0.00000000000E+00 -0.00000000000E+00 -0.51837735719E+03  0.51837735719E+03  0.00000000000E+00 0. -1.
         -6    2    1    2    0  503 -0.14892776932E+03 -0.66024128905E+02 -0.33921995989E+03  0.41388336473E+03  0.17230958284E+03 0.  0.
        -24    2    3    3    0    0 -0.13470448990E+03 -0.92580868021E+02 -0.19268272544E+03  0.26420767148E+03  0.77217512658E+02 0.  0.
          6    2    1    2  501    0  0.14892776932E+03  0.66024128905E+02 -0.44769694001E+02  0.23888169575E+03  0.16888301570E+03 0.  0.
         24    2    5    5    0    0  0.48808315089E+02  0.81952430263E+01  0.32512844858E+02  0.99731539550E+02  0.80248870835E+02 0.  0.
          5    1    5    5  501    0  0.10011945423E+03  0.57828885879E+02 -0.77282538859E+02  0.13915015620E+03  0.47000000000E+01 0. -1.
        -13    1    6    6    0    0  0.64396106383E+02 -0.62648009546E+01  0.49057746859E+01  0.64885844940E+02  0.00000000000E+00 0.  1.
         14    1    6    6    0    0 -0.15587791295E+02  0.14460043981E+02  0.27607070172E+02  0.34845694610E+02  0.00000000000E+00 0. -1.
         -5    1    3    3    0  503 -0.14223279418E+02  0.26556739117E+02 -0.14653723445E+03  0.14967569325E+03  0.47000000000E+01 0.  1.
         13    1    4    4    0    0 -0.88449393069E+02 -0.58662196761E+02 -0.17412496434E+03  0.20392168023E+03  0.00000000000E+00 0. -1.
        -14    1    4    4    0    0 -0.46255096834E+02 -0.33918671260E+02 -0.18557761100E+02  0.60285991243E+02  0.00000000000E+00 0.  1.
</event>
<event>
12    1  0.8462562E-002  0.1833428E+03  0.7818608E-02  0.1164807E+00
         21   -1    0    0  501  502  0.00000000000E+00  0.00000000000E+00  0.20131970426E+04  0.20131970426E+04  0.00000000000E+00 0. -1.
         21   -1    0    0  502  503 -0.00000000000E+00 -0.00000000000E+00 -0.18013953107E+02  0.18013953107E+02  0.00000000000E+00 0.  1.
         -6    2    1    2    0  503 -0.31199894913E+02 -0.53308844859E+02  0.71294345584E+03  0.73592991486E+03  0.17172420325E+03 0.  0.
        -24    2    3    3    0    0 -0.38726909248E+02  0.28671199366E+02  0.28119289786E+03  0.29637557475E+03  0.80294609583E+02 0.  0.
          6    2    1    2  501    0  0.31199894913E+02  0.53308844859E+02  0.12822396336E+04  0.12952810808E+04  0.17262483570E+03 0.  0.
         24    2    5    5    0    0  0.82341501507E+01 -0.14135892424E+02  0.32819427368E+03  0.33856750986E+03  0.81540497747E+02 0.  0.
          5    1    5    5  501    0  0.22965744762E+02  0.67444737283E+02  0.95404535997E+03  0.95671357098E+03  0.47000000000E+01 0. -1.
        -13    1    6    6    0    0  0.31364503910E+00  0.31759576132E+02  0.80623728567E+02  0.86654224695E+02  0.00000000000E+00 0.  1.
         14    1    6    6    0    0  0.79205051116E+01 -0.45895468557E+02  0.24757054511E+03  0.25191328516E+03  0.00000000000E+00 0. -1.
         -5    1    3    3    0  503  0.75270143347E+01 -0.81980044225E+02  0.43175055798E+03  0.43955434011E+03  0.47000000000E+01 0.  1.
         13    1    4    4    0    0 -0.41932585620E+02 -0.14386200883E+02  0.89466953191E+02  0.99848085740E+02  0.00000000000E+00 0. -1.
        -14    1    4    4    0    0  0.32056763726E+01  0.43057400249E+02  0.19172594467E+03  0.19652748901E+03  0.00000000000E+00 0.  1.
</event>
<event>
12    1  0.8462562E-002  0.2061404E+03  0.7818608E-02  0.1144733E+00
         21   -1    0    0  503  502  0.00000000000E+00  0.00000000000E+00  0.93439177515E+03  0.93439177515E+03  0.00000000000E+00 0.  1.
         21   -1    0    0  501  503 -0.00000000000E+00 -0.00000000000E+00 -0.46003088548E+02  0.46003088548E+02  0.00000000000E+00 0.  1.
          6    2    1    2  501    0 -0.76222169999E+02  0.85381251567E+02  0.50082468215E+03  0.54158953989E+03  0.17144704766E+03 0.  0.
         24    2    3    3    0    0  0.14574866917E+02  0.72595399627E+01  0.25712012043E+03  0.26999957848E+03  0.80770591075E+02 0.  0.
         -6    2    1    2    0  502  0.76222169999E+02 -0.85381251567E+02  0.38756400445E+03  0.43880532381E+03  0.17101016734E+03 0.  0.
        -24    2    5    5    0    0  0.56500693561E+02  0.16854562037E+02  0.16250636036E+03  0.19078489848E+03  0.80710319632E+02 0.  0.
          5    1    3    3  501    0 -0.90797036917E+02  0.78121711604E+02  0.24370456171E+03  0.27158996141E+03  0.47000000000E+01 0. -1.
        -13    1    4    4    0    0  0.44917242899E+02  0.19798836838E+02  0.16799715488E+03  0.17502170350E+03  0.00000000000E+00 0.  1.
         14    1    4    4    0    0 -0.30342375981E+02 -0.12539296875E+02  0.89122965558E+02  0.94977874982E+02  0.00000000000E+00 0. -1.
         -5    1    5    5    0  502  0.19721476438E+02 -0.10223581360E+03  0.22505764409E+03  0.24802042533E+03  0.47000000000E+01 0.  1.
         11    1    6    6    0    0  0.19709776876E+02  0.24068407046E+02  0.14692877385E+03  0.15018597839E+03  0.00000000000E+00 0. -1.
        -12    1    6    6    0    0  0.36790916685E+02 -0.72138450088E+01  0.15577586515E+02  0.40598920084E+02  0.00000000000E+00 0.  1.
</event>
<event>
12    1  0.8462562E-002  0.2379466E+03  0.7818608E-02  0.1121183E+00
         21   -1    0    0  501  502  0.00000000000E+00  0.00000000000E+00  0.32975427435E+03  0.32975427435E+03  0.00000000000E+00 0. -1.
         21   -1    0    0  502  503 -0.00000000000E+00 -0.00000000000E+00 -0.20765719362E+03  0.20765719362E+03  0.00000000000E+00 0.  1.
         -6    2    1    2    0  503  0.15160076433E+03 -0.64379210290E+02 -0.50873700043E+02  0.24323893157E+03  0.17160877021E+03 0.  0.
        -24    2    3    3    0    0  0.39247039395E+02 -0.16486638955E+02  0.30921429877E+02  0.96168910238E+02  0.80499596928E+02 0.  0.
          6    2    1    2  501    0 -0.15160076433E+03  0.64379210290E+02  0.17297078078E+03  0.29417253640E+03  0.17172977524E+03 0.  0.
         24    2    5    5    0    0 -0.36003706435E+02  0.38921264244E+02  0.15750041535E+02  0.97319195918E+02  0.80073905851E+02 0.  0.
          5    1    5    5  501    0 -0.11559705789E+03  0.25457946046E+02  0.15722073924E+03  0.19685334048E+03  0.47000000000E+01 0. -1.
        -13    1    6    6    0    0 -0.23830321616E+02 -0.52843103397E+01 -0.25746749177E+02  0.35478208202E+02  0.00000000000E+00 0.  1.
         14    1    6    6    0    0 -0.12173384819E+02  0.44205574584E+02  0.41496790712E+02  0.61840987716E+02  0.00000000000E+00 0. -1.
         -5    1    3    3    0  503  0.11235372493E+03 -0.47892571335E+02 -0.81795129919E+02  0.14707002133E+03  0.47000000000E+01 0.  1.
         11    1    4    4    0    0  0.45457401903E+02 -0.96506631056E+00  0.52124120983E+02  0.69168133768E+02  0.00000000000E+00 0. -1.
        -12    1    4    4    0    0 -0.62103625084E+01 -0.15521572644E+02 -0.21202691106E+02  0.27000776470E+02  0.00000000000E+00 0.  1.
</event>
<event>
12    1  0.8462562E-002  0.2013686E+03  0.7818608E-02  0.1149266E+00
         21   -1    0    0  503  502  0.00000000000E+00  0.00000000000E+00  0.12986217145E+03  0.12986217145E+03  0.00000000000E+00 0. -1.
         21   -1    0    0  501  503 -0.00000000000E+00 -0.00000000000E+00 -0.30753359750E+03  0.30753359750E+03  0.00000000000E+00 0. -1.
          6    2    1    2  501    0  0.10290678992E+03 -0.98648104099E+01 -0.83433443450E+02  0.21796893067E+03  0.17280680934E+03 0.  0.
         24    2    3    3    0    0  0.65395421251E+02 -0.71362182602E+02 -0.34491809659E+02  0.13075423532E+03  0.80857052227E+02 0.  0.
         -6    2    1    2    0  502 -0.10290678992E+03  0.98648104099E+01 -0.94237982602E+02  0.21942683829E+03  0.16905684873E+03 0.  0.
        -24    2    5    5    0    0 -0.25618773796E+02 -0.45396981677E+02 -0.77640952338E+02  0.12286155201E+03  0.79684603073E+02 0.  0.
          5    1    3    3  501    0  0.37511368667E+02  0.61497372192E+02 -0.48941633790E+02  0.87214695343E+02  0.47000000000E+01 0. -1.
        -13    1    4    4    0    0  0.57941963178E+02 -0.18449238475E+02  0.94925298809E+01  0.61544728619E+02  0.00000000000E+00 0.  1.
         14    1    4    4    0    0  0.74534580732E+01 -0.52912944126E+02 -0.43984339540E+02  0.69209506704E+02  0.00000000000E+00 0. -1.
         -5    1    5    5    0  502 -0.77288016122E+02  0.55261792087E+02 -0.16597030264E+02  0.96565286279E+02  0.47000000000E+01 0.  1.
         13    1    6    6    0    0 -0.12112074011E+02  0.20618443100E+02 -0.62995433418E+01  0.24728663107E+02  0.00000000000E+00 0. -1.
        -14    1    6    6    0    0 -0.13506699785E+02 -0.66015424777E+02 -0.71341408996E+02  0.98132888906E+02  0.00000000000E+00 0.  1.
</event>
<event>
12    1  0.8462562E-002  0.2255210E+03  0.7818608E-02  0.1130505E+00
         21   -1    0    0  501  502  0.00000000000E+00  0.00000000000E+00  0.54542228147E+03  0.54542228147E+03  0.00000000000E+00 0. -1.
         21   -1    0    0  502  503 -0.00000000000E+00 -0.00000000000E+00 -0.92165130172E+02  0.92165130172E+02  0.00000000000E+00 0. -1.
         -6    2    1    2    0  503  0.12407426616E+03 -0.66562117051E+02  0.20652224645E+03  0.30579595040E+03  0.17616692668E+03 0.  0.
        -24    2    3    3    0    0  0.65916927517E+02  0.29742848334E+02  0.11969825068E+03  0.16360798102E+03  0.84913025371E+02 0.  0.
          6    2    1    2  501    0 -0.12407426616E+03  0.66562117051E+02  0.24673490485E+03  0.33179146124E+03  0.17141330617E+03 0.  0.
         24    2    5    5    0    0 -0.23011630857E+02  0.73363768471E+02  0.17765893433E+03  0.20909876211E+03  0.79043138177E+02 0.  0.
          5    1    5    5  501    0 -0.10106263530E+03 -0.68016514202E+01  0.69075970525E+02  0.12269269913E+03  0.47000000000E+01 0. -1.
        -13    1    6    6    0    0 -0.42735154501E+02  0.68519629661E+02  0.16843445241E+03  0.18679239234E+03  0.00000000000E+00 0.  1.
         14    1    6    6    0    0  0.19723523644E+02  0.48441388106E+01  0.92244819180E+01  0.22306369772E+02  0.00000000000E+00 0. -1.
         -5    1    3    3    0  503  0.58157338639E+02 -0.96304965385E+02  0.86823995771E+02  0.14218796938E+03  0.47000000000E+01 0.  1.
         11    1    4    4    0    0  0.62291989499E+02  0.42111739635E+01  0.28131503011E+02  0.68479247977E+02  0.00000000000E+00 0. -1.
        -12    1    4    4    0    0  0.36249380175E+01  0.25531674370E+02  0.91566747669E+02  0.95128733044E+02  0.00000000000E+00 0.  1.
</event>
<event>
12    1  0.8462562E-002  0.2082475E+03  0.7818608E-02  0.1143058E+00
         21   -1    0    0  501  502  0.00000000000E+00  0.00000000000E+00  0.11982847649E+03  0.11982847649E+03  0.00000000000E+00 0. -1.
         21   -1    0    0  502  503 -0.00000000000E+00 -0.00000000000E+00 -0.41956402380E+03  0.41956402380E+03  0.00000000000E+00 0.  1.
         -6    2    1    2    0  503  0.64194261845E+02  0.98789029983E+02 -0.49018540095E+02  0.21346911489E+03  0.17113173300E+03 0.  0.
        -24    2    3    3    0    0 -0.27733180301E+02  0.67552830906E+02 -0.39398812774E+02  0.11579115470E+03  0.80763920203E+02 0.  0.
          6    2    1    2  501    0 -0.64194261845E+02 -0.98789029983E+02 -0.25071700722E+03  0.32592338540E+03  0.17171738334E+03 0.  0.
         24    2    5    5    0    0 -0.80453468817E+02 -0.39052219209E+02 -0.23239124322E+03  0.26118721314E+03  0.78836754819E+02 0.  0.
          5    1    5    5  501    0  0.16259206972E+02 -0.59736810775E+02 -0.18325764003E+02  0.64736172263E+02  0.47000000000E+01 0. -1.
        -13    1    6    6    0    0 -0.31649269212E+02 -0.56978107065E+02 -0.10487013637E+03  0.12347439584E+03  0.00000000000E+00 0.  1.
         14    1    6    6    0    0 -0.48804199605E+02  0.17925887857E+02 -0.12752110685E+03  0.13771281729E+03  0.00000000000E+00 0. -1.
         -5    1    3    3    0  503  0.91927442146E+02  0.31236199077E+02 -0.96197273206E+01  0.97677960185E+02  0.47000000000E+01 0.  1.
         11    1    4    4    0    0 -0.54923123196E+01  0.36056026158E+02 -0.61387103135E+02  0.71404334240E+02  0.00000000000E+00 0. -1.
        -12    1    4    4    0    0 -0.22240867981E+02  0.31496804748E+02  0.21988290361E+02  0.44386820464E+02  0.00000000000E+00 0.  1.
</event>
<event>
12    1  0.8462562E-002  0.2533625E+03  0.7818608E-02  0.1111354E+00
         21   -1    0    0  503  502  0.00000000000E+00  0.00000000000E+00  0.19065513277E+03  0.19065513277E+03  0.00000000000E+00 0. -1.
         21   -1    0    0  501  503 -0.00000000000E+00 -0.00000000000E+00 -0.34419191033E+03  0.34419191033E+03  0.00000000000E+00 0.  1.
          6    2    1    2  501    0 -0.11877377391E+01 -0.18505421982E+03 -0.11973405106E+03  0.28022994801E+03  0.17304943162E+03 0.  0.
         24    2    3    3    0    0 -0.41348576181E+02 -0.37267243658E+02 -0.23861617701E+02  0.99488428854E+02  0.78930466072E+02 0.  0.
         -6    2    1    2    0  502  0.11877377391E+01  0.18505421982E+03 -0.33802726500E+02  0.25461709509E+03  0.17158311630E+03 0.  0.
        -24    2    5    5    0    0 -0.60951917706E+02  0.14862822702E+03 -0.29735203147E+02  0.18232031455E+03  0.80938425065E+02 0.  0.
          5    1    3    3  501    0  0.40160838442E+02 -0.14778697616E+03 -0.95872433357E+02  0.18074151915E+03  0.47000000000E+01 0. -1.
        -13    1    4    4    0    0 -0.88229122141E+01 -0.30453819153E+02 -0.48622239602E+02  0.58046542230E+02  0.00000000000E+00 0.  1.
         14    1    4    4    0    0 -0.32525663967E+02 -0.68134245046E+01  0.24760621901E+02  0.41441886623E+02  0.00000000000E+00 0. -1.
         -5    1    5    5    0  502  0.62139655445E+02  0.36425992800E+02 -0.40675233530E+01  0.72296780541E+02  0.47000000000E+01 0.  1.
         11    1    6    6    0    0  0.79810056775E+01  0.44510862461E+02  0.17954612778E+02  0.48654716612E+02  0.00000000000E+00 0. -1.
        -12    1    6    6    0    0 -0.68932923384E+02  0.10411736456E+03 -0.47689815924E+02  0.13366559794E+03  0.00000000000E+00 0.  1.
</event>
<event>
12    1  0.8462562E-002  0.2100881E+03  0.7818608E-02  0.1141520E+00
         21   -1    0    0  503  502  0.00000000000E+00  0.00000000000E+00  0.44060133003E+03  0.44060133003E+03  0.00000000000E+00 0. -1.
         21   -1    0    0  501  503 -0.00000000000E+00 -0.00000000000E+00 -0.13800205063E+03  0.13800205063E+03  0.00000000000E+00 0. -1.
          6    2    1    2  501    0 -0.54660536663E+02  0.10619343332E+03 -0.31324610341E+00  0.20996669860E+03  0.17268785959E+03 0.  0.
         24    2    3    3    0    0 -0.86828230254E+02  0.39947339279E+02  0.33139290568E+02  0.12894529590E+03  0.79960898382E+02 0.  0.
         -6    2    1    2    0  502  0.54660536663E+02 -0.10619343332E+03  0.30291252550E+03  0.36863668206E+03  0.17283571883E+03 0.  0.
        -24    2    5    5    0    0 -0.14954112485E+01 -0.44590809288E+02  0.24916551902E+03  0.26934315518E+03  0.92041853792E+02 0.  0.
          5    1    3    3  501    0  0.32167693591E+02  0.66246094041E+02 -0.33452536671E+02  0.81021402705E+02  0.47000000000E+01 0. -1.
        -13    1    4    4    0    0 -0.20931280644E+02  0.85217432460E+01  0.49245092606E+02  0.54183187089E+02  0.00000000000E+00 0.  1.
         14    1    4    4    0    0 -0.65896949611E+02  0.31425596033E+02 -0.16105802039E+02  0.74762108807E+02  0.00000000000E+00 0. -1.
         -5    1    5    5    0  502  0.56155947912E+02 -0.61602624032E+02  0.53747006488E+02  0.99293526878E+02  0.47000000000E+01 0.  1.
         13    1    6    6    0    0  0.93694366670E+01 -0.65367265648E+02  0.11064590713E+03  0.12885333727E+03  0.00000000000E+00 0. -1.
        -14    1    6    6    0    0 -0.10864847916E+02  0.20776456361E+02  0.13851961189E+03  0.14048981791E+03  0.00000000000E+00 0.  1.
</event>
<event>
12    1  0.8462562E-002  0.1997017E+03  0.7818608E-02  0.1150179E+00
         21   -1    0    0  503  502  0.00000000000E+00  0.00000000000E+00  0.85409178730E+03  0.85409178730E+03  0.00000000000E+00 0. -1.
         21   -1    0    0  501  503 -0.00000000000E+00 -0.00000000000E+00 -0.12030408244E+03  0.12030408244E+03  0.00000000000E+00 0. -1.
          6    2    1    2  501    0 -0.99893432538E+02  0.70974217437E+01 -0.14422603073E+02  0.20022183272E+03  0.17277644387E+03 0.  0.
         24    2    3    3    0    0 -0.12019361511E+02  0.51786491957E+02  0.15821712213E+02  0.96995024366E+02  0.79570109803E+02 0.  0.
         -6    2    1    2    0  502  0.99893432538E+02 -0.70974217437E+01  0.74821030794E+03  0.77417403703E+03  0.17174895471E+03 0.  0.
        -24    2    5    5    0    0  0.59058561540E+01  0.23260269626E+02  0.19075403285E+03  0.20801607093E+03  0.79420812368E+02 0.  0.
          5    1    3    3  501    0 -0.87874071027E+02 -0.44689070214E+02 -0.30244315286E+02  0.10322680835E+03  0.47000000000E+01 0. -1.
        -13    1    4    4    0    0 -0.23746954088E+02 -0.13954312010E+02 -0.27543668389E+01  0.27680809035E+02  0.00000000000E+00 0.  1.
         14    1    4    4    0    0  0.11727592577E+02  0.65740803968E+02  0.18576079052E+02  0.69314215331E+02  0.00000000000E+00 0. -1.
         -5    1    5    5    0  502  0.93987576384E+02 -0.30357691369E+02  0.55745627508E+03  0.56615796609E+03  0.47000000000E+01 0.  1.
         13    1    6    6    0    0 -0.35925357596E+01  0.20952972852E+02  0.19584480141E+03  0.19699522741E+03  0.00000000000E+00 0. -1.
        -14    1    6    6    0    0  0.94983919137E+01  0.23072967742E+01 -0.50907685585E+01  0.11020843519E+02  0.00000000000E+00 0.  1.
</event>
<event>
12    1  0.8462562E-002  0.2675795E+03  0.7818608E-02  0.1102952E+00
         21   -1    0    0  503  502  0.00000000000E+00  0.00000000000E+00  0.36161278593E+03  0.36161278593E+03  0.00000000000E+00 0. -1.
         21   -1    0    0  501  503 -0.00000000000E+00 -0.00000000000E+00 -0.34339182279E+03  0.34339182279E+03  0.00000000000E+00 0. -1.
          6    2    1    2  501    0  0.16839324876E+03 -0.11481322324E+03 -0.22139519714E+03  0.34581848309E+03  0.17040019798E+03 0.  0.
         24    2    3    3    0    0  0.17097845541E+03 -0.13463264249E+03 -0.16254369154E+03  0.28348805405E+03  0.81150751650E+02 0.  0.
         -6    2    1    2    0  502 -0.16839324876E+03  0.11481322324E+03  0.23961616029E+03  0.35918612563E+03  0.17337937050E+03 0.  0.
        -24    2    5    5    0    0 -0.52571218741E+02 -0.40347831209E+01  0.77946031416E+02  0.12745586903E+03  0.85961632269E+02 0.  0.
          5    1    3    3  501    0 -0.25852066464E+01  0.19819419250E+02 -0.58851505597E+02  0.62330429036E+02  0.47000000000E+01 0. -1.
        -11    1    4    4    0    0  0.38239083472E+02 -0.74499519162E+02 -0.80974612357E+02  0.11648731135E+03  0.00000000000E+00 0.  1.
         12    1    4    4    0    0  0.13273937194E+03 -0.60133123329E+02 -0.81569079187E+02  0.16700074270E+03  0.00000000000E+00 0. -1.
         -5    1    5    5    0  502 -0.11582203002E+03  0.11884800636E+03  0.16167012887E+03  0.23173025660E+03  0.47000000000E+01 0.  1.
         11    1    6    6    0    0  0.21250462782E+01  0.23932407383E+02  0.58142273398E+02  0.62911047525E+02  0.00000000000E+00 0. -1.
        -12    1    6    6    0    0 -0.54696265019E+02 -0.27967190504E+02  0.19803758019E+02  0.64544821507E+02  0.00000000000E+00 0.  1.
</event>
<event>
12    1  0.8462562E-002  0.1773522E+03  0.7818608E-02  0.1170770E+00
         21   -1    0    0  501  502  0.00000000000E+00  0.00000000000E+00  0.72613856342E+03  0.72613856342E+03  0.00000000000E+00 0.  1.
         21   -1    0    0  502  503 -0.00000000000E+00 -0.00000000000E+00 -0.14652287216E+03  0.14652287216E+03  0.00000000000E+00 0.  1.
         -6    2    1    2    0  503  0.10029708859E+02  0.36313866463E+02 -0.77419278213E+02  0.19211109289E+03  0.17173711135E+03 0.  0.
        -24    2    3    3    0    0 -0.91537547493E+01  0.49789308228E+02  0.15376256895E+02  0.96284717908E+02  0.80445951959E+02 0.  0.
          6    2    1    2  501    0 -0.10029708859E+02 -0.36313866463E+02  0.65703496948E+03  0.68055034269E+03  0.17330471967E+03 0.  0.
         24    2    5    5    0    0  0.62739822000E+02 -0.23872123172E+02  0.34571347312E+03  0.36056070896E+03  0.77330820641E+02 0.  0.
          5    1    5    5  501    0 -0.72769530859E+02 -0.12441743291E+02  0.31132149636E+03  0.31998963373E+03  0.47000000000E+01 0. -1.
        -13    1    6    6    0    0  0.14145583678E+02 -0.36291064732E+02  0.68094870227E+02  0.78447755024E+02  0.00000000000E+00 0.  1.
         14    1    6    6    0    0  0.48594238322E+02  0.12418941560E+02  0.27761860289E+03  0.28211295394E+03  0.00000000000E+00 0. -1.
         -5    1    3    3    0  503  0.19183463608E+02 -0.13475441765E+02 -0.92795535108E+02  0.95826374985E+02  0.47000000000E+01 0.  1.
         13    1    4    4    0    0 -0.27914784439E+02  0.64545856366E+01  0.34927712772E+02  0.45175679137E+02  0.00000000000E+00 0. -1.
        -14    1    4    4    0    0  0.18761029690E+02  0.43334722591E+02 -0.19551455877E+02  0.51109038770E+02  0.00000000000E+00 0.  1.
</event>
<event>
12    1  0.8462562E-002  0.1837805E+03  0.7818608E-02  0.1164699E+00
         21   -1    0    0  501  502  0.00000000000E+00  0.00000000000E+00  0.83041562500E+03  0.83041562500E+03  0.00000000000E+00 0.  1.
         21   -1    0    0  502  503 -0.00000000000E+00 -0.00000000000E+00 -0.50767542837E+02  0.50767542837E+02  0.00000000000E+00 0.  1.
         -6    2    1    2    0  503 -0.37912367060E+02 -0.49743029103E+02  0.58901395710E+03  0.61638770967E+03  0.17054222486E+03 0.  0.
        -24    2    3    3    0    0  0.28520695562E+02 -0.14767604378E+02  0.17253416080E+03  0.19316892126E+03  0.80713587967E+02 0.  0.
          6    2    1    2  501    0  0.37912367060E+02  0.49743029103E+02  0.19063412507E+03  0.26479545817E+03  0.17281073029E+03 0.  0.
         24    2    5    5    0    0  0.67203775405E+02 -0.12621473423E+02  0.15429926324E+03  0.18675937701E+03  0.79969702045E+02 0.  0.
          5    1    5    5  501    0 -0.29291408345E+02  0.62364502527E+02  0.36334861831E+02  0.78036081158E+02  0.47000000000E+01 0. -1.
        -11    1    6    6    0    0  0.45009020745E+02  0.74940896599E+01  0.21167515631E+02  0.50299473618E+02  0.00000000000E+00 0.  1.
         12    1    6    6    0    0  0.22194754659E+02 -0.20115563083E+02  0.13313174761E+03  0.13645990339E+03  0.00000000000E+00 0. -1.
         -5    1    3    3    0  503 -0.66433062622E+02 -0.34975424725E+02  0.41647979630E+03  0.42321878841E+03  0.47000000000E+01 0.  1.
         13    1    4    4    0    0  0.16996526545E+02 -0.42936420868E+02  0.14482773482E+03  0.15201148287E+03  0.00000000000E+00 0. -1.
        -14    1    4    4    0    0  0.11524169017E+02  0.28168816490E+02  0.27706425981E+02  0.41157438388E+02  0.00000000000E+00 0.  1.
</event>
<event>
12    1  0.8462562E-002  0.2138230E+03  0.7818608E-02  0.1139082E+00
         21   -1    0    0  501  502  0.00000000000E+00  0.00000000000E+00  0.93852925449E+03  0.93852925449E+03  0.00000000000E+00 0. -1.
         21   -1    0    0  502  503 -0.00000000000E+00 -0.00000000000E+00 -0.48182619697E+02  0.48182619697E+02  0.00000000000E+00 0.  1.
         -6    2    1    2    0  503  0.80859738717E+02  0.94190017997E+02  0.45998602155E+03  0.50615954456E+03  0.17088091672E+03 0.  0.
        -24    2    3    3    0    0  0.50766395048E+02  0.52774808472E+02  0.11858352410E+03  0.16090806495E+03  0.80417323395E+02 0.  0.
          6    2    1    2  501    0 -0.80859738717E+02 -0.94190017997E+02  0.43036061325E+03  0.48055232962E+03  0.17409832635E+03 0.  0.
         24    2    5    5    0    0 -0.51073989974E+02 -0.95869995510E+02  0.42947376079E+03  0.45033826568E+03  0.80976748770E+02 0.  0.
          5    1    5    5  501    0 -0.29785748742E+02  0.16799775138E+01  0.88685245927E+00  0.30214063942E+02  0.47000000000E+01 0. -1.
        -13    1    6    6    0    0 -0.16555181421E+00 -0.11306277388E+01 -0.37726741419E+01  0.39419280394E+01  0.00000000000E+00 0.  1.
         14    1    6    6    0    0 -0.50908438160E+02 -0.94739367772E+02  0.43324643493E+03  0.44639633764E+03  0.00000000000E+00 0. -1.
         -5    1    3    3    0  503  0.30093343668E+02  0.41415209525E+02  0.34140249745E+03  0.34525147962E+03  0.47000000000E+01 0.  1.
         11    1    4    4    0    0  0.22480048054E+02 -0.13121076793E+02  0.68941554813E+02  0.73691608727E+02  0.00000000000E+00 0. -1.
        -12    1    4    4    0    0  0.28286346995E+02  0.65895885264E+02  0.49641969284E+02  0.87216456219E+02  0.00000000000E+00 0.  1.
</event>
<event>
12    1  0.8462562E-002  0.1977433E+03  0.7818608E-02  0.1151761E+00
         21   -1    0    0  503  502  0.00000000000E+00  0.00000000000E+00  0.78231358494E+02  0.78231358494E+02  0.00000000000E+00 0.  1.
         21   -1    0    0  501  503 -0.00000000000E+00 -0.00000000000E+00 -0.54815798043E+03  0.54815798043E+03  0.00000000000E+00 0. -1.
          6    2    1    2  501    0  0.25957440858E+02 -0.92673533281E+02 -0.32938558436E+03  0.38418392766E+03  0.17274331992E+03 0.  0.
         24    2    3    3    0    0  0.14065019310E+01 -0.12791151759E+03 -0.22375509507E+03  0.27005963397E+03  0.80638258620E+02 0.  0.
         -6    2    1    2    0  502 -0.25957440858E+02  0.92673533281E+02 -0.14054103757E+03  0.24220541127E+03  0.17219031767E+03 0.  0.
        -24    2    5    5    0    0 -0.63038816114E+02  0.56198241647E+02 -0.14895691961E+03  0.18930557799E+03  0.80723622654E+02 0.  0.
          5    1    3    3  501    0  0.24550938927E+02  0.35237984307E+02 -0.10563048929E+03  0.11412429368E+03  0.47000000000E+01 0. -1.
        -13    1    4    4    0    0  0.20617547398E+02 -0.10167615135E+03 -0.21100872242E+03  0.23513358746E+03  0.00000000000E+00 0.  1.
         14    1    4    4    0    0 -0.19211045467E+02 -0.26235366235E+02 -0.12746372651E+02  0.34926046515E+02  0.00000000000E+00 0. -1.
         -5    1    5    5    0  502  0.37081375256E+02  0.36475291635E+02  0.84158820388E+01  0.52899833282E+02  0.47000000000E+01 0.  1.
         13    1    6    6    0    0  0.15658682367E+02 -0.81440813999E+00 -0.41810480880E+02  0.44653934939E+02  0.00000000000E+00 0. -1.
        -14    1    6    6    0    0 -0.78697498481E+02  0.57012649787E+02 -0.10714643873E+03  0.14465164305E+03  0.00000000000E+00 0.  1.
</event>
<event>
12    1  0.8462562E-002  0.2628952E+03  0.7818608E-02  0.1105526E+00
         21   -1    0    0  503  502  0.00000000000E+00  0.00000000000E+00  0.36978702782E+03  0.36978702782E+03  0.00000000000E+00 0. -1.
         21   -1    0    0  501  503 -0.00000000000E+00 -0.00000000000E+00 -0.30423782936E+03  0.30423782936E+03  0.00000000000E+00 0.  1.
          6    2    1    2  501    0 -0.19109779160E+03  0.54230775241E+02 -0.17701702648E+03  0.31632071479E+03  0.17106847752E+03 0.  0.
         24    2    3    3    0    0 -0.13457865947E+03  0.16738351953E+02 -0.37961650471E+02  0.16153511566E+03  0.79125967125E+02 0.  0.
         -6    2    1    2    0  502  0.19109779160E+03 -0.54230775241E+02  0.24256622494E+03  0.35770414238E+03  0.17220492750E+03 0.  0.
        -24    2    5    5    0    0  0.20742269888E+03 -0.20787294730E+02  0.22236215341E+03  0.31509823325E+03  0.79910460512E+02 0.  0.
          5    1    3    3  501    0 -0.56519132132E+02  0.37492423287E+02 -0.13905537601E+03  0.15478559913E+03  0.47000000000E+01 0. -1.
        -13    1    4    4    0    0 -0.99427530772E+02  0.71622322583E+01 -0.62455833390E+02  0.11763444466E+03  0.00000000000E+00 0.  1.
         14    1    4    4    0    0 -0.35151128699E+02  0.95761196952E+01  0.24494182919E+02  0.43900670998E+02  0.00000000000E+00 0. -1.
         -5    1    5    5    0  502 -0.16324907275E+02 -0.33443480511E+02  0.20204071535E+02  0.42605909130E+02  0.47000000000E+01 0.  1.
         11    1    6    6    0    0  0.69357707782E+02 -0.35762453844E+02  0.11762185371E+03  0.14115362271E+03  0.00000000000E+00 0. -1.
        -12    1    6    6    0    0  0.13806499110E+03  0.14975159114E+02  0.10474029970E+03  0.17394461055E+03  0.00000000000E+00 0.  1.
</event>
<event>
12    1  0.8462562E-002  0.4540163E+03  0.7818608E-02  0.1026545E+00
         21   -1    0    0  501  502  0.00000000000E+00  0.00000000000E+00  0.21514243507E+04  0.21514243507E+04  0.00000000000E+00 0.  1.
         21   -1    0    0  502  503 -0.00000000000E+00 -0.00000000000E+00 -0.10383295701E+04  0.10383295701E+04  0.00000000000E+00 0. -1.
         -6    2    1    2    0  503 -0.26742990982E+03 -0.32338046395E+03 -0.96300902608E+03  0.10645862076E+04  0.17281124926E+03 0.  0.
        -24    2    3    3    0    0 -0.12233313293E+03 -0.22130370785E+03 -0.45765626291E+03  0.52897791408E+03  0.80172639200E+02 0.  0.
          6    2    1    2  501    0  0.26742990982E+03  0.32338046395E+03  0.20761038067E+04  0.21251677132E+04  0.17331218045E+03 0.  0.
         24    2    5    5    0    0  0.94577669304E+02  0.17707996736E+03  0.75147467146E+03  0.78131274771E+03  0.73710090957E+02 0.  0.
          5    1    5    5  501    0  0.17285224052E+03  0.14630049659E+03  0.13246291352E+04  0.13438549655E+04  0.47000000000E+01 0. -1.
        -11    1    6    6    0    0  0.97716096737E+02  0.18064021769E+03  0.69690089695E+03  0.72653298892E+03  0.00000000000E+00 0.  1.
         12    1    6    6    0    0 -0.31384274330E+01 -0.35602503268E+01  0.54573774511E+02  0.54779758794E+02  0.00000000000E+00 0. -1.
         -5    1    3    3    0  503 -0.14509677689E+03 -0.10207675609E+03 -0.50535276316E+03  0.53560829347E+03  0.47000000000E+01 0.  1.
         11    1    4    4    0    0 -0.12929626666E+03 -0.17328542949E+03 -0.38628944805E+03  0.44267923186E+03  0.00000000000E+00 0. -1.
        -12    1    4    4    0    0  0.69631337364E+01 -0.48018278366E+02 -0.71366814868E+02  0.86298682221E+02  0.00000000000E+00 0.  1.
</event>
<event>
12    1  0.8462562E-002  0.2107531E+03  0.7818608E-02  0.1141164E+00
         21   -1    0    0  501  502  0.00000000000E+00  0.00000000000E+00  0.57856915925E+02  0.57856915925E+02  0.00000000000E+00 0. -1.
         21   -1    0    0  502  503 -0.00000000000E+00 -0.00000000000E+00 -0.11281991859E+04  0.11281991859E+04  0.00000000000E+00 0. -1.
         -6    2    1    2    0  503  0.24074895063E+02 -0.11723969291E+03 -0.87120081145E+03  0.89610063962E+03  0.17228103868E+03 0.  0.
        -24    2    3    3    0    0  0.59779645281E+02 -0.94881601321E+02 -0.40315141661E+03  0.42613570533E+03  0.80526085132E+02 0.  0.
          6    2    1    2  501    0 -0.24074895063E+02  0.11723969291E+03 -0.19914145851E+03  0.28995546219E+03  0.17347075659E+03 0.  0.
         24    2    5    5    0    0 -0.60504560181E+02  0.13311105896E+03 -0.17897256230E+03  0.24514591928E+03  0.81767890177E+02 0.  0.
          5    1    5    5  501    0  0.36429665118E+02 -0.15871366058E+02 -0.20168896208E+02  0.44809542905E+02  0.47000000000E+01 0. -1.
        -13    1    6    6    0    0  0.13933997345E+02  0.54442801299E+01 -0.38287177282E+02  0.41106014308E+02  0.00000000000E+00 0.  1.
         14    1    6    6    0    0 -0.74438557526E+02  0.12766677883E+03 -0.14068538502E+03  0.20403990498E+03  0.00000000000E+00 0. -1.
         -5    1    3    3    0  503 -0.35704750218E+02 -0.22358091585E+02 -0.46804939485E+03  0.46996493429E+03  0.47000000000E+01 0.  1.
         11    1    4    4    0    0  0.90278897788E+01 -0.38161037751E+02 -0.26944747998E+03  0.27228608496E+03  0.00000000000E+00 0. -1.
        -12    1    4    4    0    0  0.50751755502E+02 -0.56720563570E+02 -0.13370393662E+03  0.15384962037E+03  0.00000000000E+00 0.  1.
</event>
<event>
12    1  0.8462562E-002  0.2089701E+03  0.7818608E-02  0.1142724E+00
         21   -1    0    0  503  502  0.00000000000E+00  0.00000000000E+00  0.13290445808E+03  0.13290445808E+03  0.00000000000E+00 0. -1.
         21   -1    0    0  501  503 -0.00000000000E+00 -0.00000000000E+00 -0.33250380852E+03  0.33250380852E+03  0.00000000000E+00 0. -1.
          6    2    1    2  501    0  0.23021914293E+02  0.11369231928E+03 -0.13298346056E+03  0.24769558583E+03  0.17381757809E+03 0.  0.
         24    2    3    3    0    0  0.60212465926E+02  0.14788231255E+02 -0.63036050453E+02  0.12088909569E+03  0.82440262998E+02 0.  0.
         -6    2    1    2    0  502 -0.23021914293E+02 -0.11369231928E+03 -0.66615889873E+02  0.21771268077E+03  0.17177072679E+03 0.  0.
        -24    2    5    5    0    0 -0.39840484169E+02 -0.14364119622E+03 -0.44687220848E+02  0.17669127114E+03  0.83682735143E+02 0.  0.
          5    1    3    3  501    0 -0.37190551633E+02  0.98904088029E+02 -0.69947410112E+02  0.12680649014E+03  0.47000000000E+01 0. -1.
        -11    1    4    4    0    0 -0.77923684908E+01 -0.12044041393E+02  0.10049856298E+02  0.17515123505E+02  0.00000000000E+00 0.  1.
         12    1    4    4    0    0  0.68004834417E+02  0.26832272648E+02 -0.73085906750E+02  0.10337397218E+03  0.00000000000E+00 0. -1.
         -5    1    5    5    0  502  0.16818569875E+02  0.29948876936E+02 -0.21928669025E+02  0.41021409624E+02  0.47000000000E+01 0.  1.
         13    1    6    6    0    0 -0.40962562333E+02 -0.53683179421E+02  0.14417002992E+02  0.69048281955E+02  0.00000000000E+00 0. -1.
        -14    1    6    6    0    0  0.11220781647E+01 -0.89958016799E+02 -0.59104223840E+02  0.10764298919E+03  0.00000000000E+00 0.  1.
</event>
<event>
12    1  0.8462562E-002  0.2931277E+03  0.7818608E-02  0.1088772E+00
         21   -1    0    0  501  502  0.00000000000E+00  0.00000000000E+00  0.81942614579E+03  0.81942614579E+03  0.00000000000E+00 0. -1.
         21   -1    0    0  502  503 -0.00000000000E+00 -0.00000000000E+00 -0.10476189182E+03  0.10476189182E+03  0.00000000000E+00 0.  1.
         -6    2    1    2    0  503  0.20973575113E+03 -0.10920575113E+03  0.34970010366E+03  0.45608262725E+03  0.17264477691E+03 0.  0.
        -24    2    3    3    0    0  0.17298387710E+03 -0.14976195990E+02  0.23858945697E+03  0.30575772873E+03  0.80094641011E+02 0.  0.
          6    2    1    2  501    0 -0.20973575113E+03  0.10920575113E+03  0.36496415031E+03  0.46810541037E+03  0.17323066362E+03 0.  0.
         24    2    5    5    0    0 -0.18140940202E+03  0.87899610308E+02  0.18554990009E+03  0.28516307827E+03  0.79079094275E+02 0.  0.
          5    1    5    5  501    0 -0.28326349110E+02  0.21306140824E+02  0.17941425022E+03  0.18294233209E+03  0.47000000000E+01 0. -1.
        -11    1    6    6    0    0 -0.10328414945E+02  0.29853047863E+02  0.96890015928E+01  0.33041751979E+02  0.00000000000E+00 0.  1.
         12    1    6    6    0    0 -0.17108098708E+03  0.58046562445E+02  0.17586089850E+03  0.25212132629E+03  0.00000000000E+00 0. -1.
         -5    1    3    3    0  503  0.36751874035E+02 -0.94229555141E+02  0.11111064669E+03  0.15032489852E+03  0.47000000000E+01 0.  1.
         11    1    4    4    0    0  0.51032990680E+02  0.17029044458E+02  0.12487727785E+03  0.13597311872E+03  0.00000000000E+00 0. -1.
        -12    1    4    4    0    0  0.12195088642E+03 -0.32005240448E+02  0.11371217912E+03  0.16978461001E+03  0.00000000000E+00 0.  1.
</event>
<event>
12    1  0.8462562E-002  0.1860004E+03  0.7818608E-02  0.1162190E+00
         21   -1    0    0  503  502  0.00000000000E+00  0.00000000000E+00  0.90979514881E+03  0.90979514881E+03  0.00000000000E+00 0. -1.
         21   -1    0    0  501  503 -0.00000000000E+00 -0.00000000000E+00 -0.42349022562E+02  0.42349022562E+02  0.00000000000E+00 0. -1.
          6    2    1    2  501    0 -0.60449410953E+02 -0.36012895594E+02  0.28021231072E+03  0.33615738832E+03  0.17184816179E+03 0.  0.
         24    2    3    3    0    0 -0.83084254999E+02 -0.27441646562E+02  0.28744577611E+03  0.31046272941E+03  0.78140864825E+02 0.  0.
         -6    2    1    2    0  502  0.60449410953E+02  0.36012895594E+02  0.58723381553E+03  0.61598678305E+03  0.17217753298E+03 0.  0.
        -24    2    5    5    0    0  0.47568870079E+02 -0.46898625616E+02  0.32277117845E+03  0.33849299016E+03  0.77032410488E+02 0.  0.
          5    1    3    3  501    0  0.22634844046E+02 -0.85712490317E+01 -0.72334653889E+01  0.25694658909E+02  0.47000000000E+01 0. -1.
        -13    1    4    4    0    0  0.96646503546E+01 -0.11511465409E+02  0.95646274104E+02  0.96820085996E+02  0.00000000000E+00 0.  1.
         14    1    4    4    0    0 -0.92748905354E+02 -0.15930181154E+02  0.19179950201E+03  0.21364264342E+03  0.00000000000E+00 0. -1.
         -5    1    5    5    0  502  0.12880540874E+02  0.82911521210E+02  0.26446263708E+03  0.27749379289E+03  0.47000000000E+01 0.  1.
         13    1    6    6    0    0  0.21018403560E+02 -0.25559051127E+02  0.28772004685E+03  0.28961675322E+03  0.00000000000E+00 0. -1.
        -14    1    6    6    0    0  0.26550466519E+02 -0.21339574489E+02  0.35051131599E+02  0.48876236947E+02  0.00000000000E+00 0.  1.
</event>
<event>
12    1  0.8462562E-002  0.1772985E+03  0.7818608E-02  0.1171200E+00
         21   -1    0    0  501  502  0.00000000000E+00  0.00000000000E+00  0.41170897888E+03  0.41170897888E+03  0.00000000000E+00 0. -1.
         21   -1    0    0  502  503 -0.00000000000E+00 -0.00000000000E+00 -0.19918845206E+03  0.19918845206E+03  0.00000000000E+00 0. -1.
         -6    2    1    2    0  503  0.15852664053E+02 -0.99061997458E+01 -0.13452499782E+03  0.22255722923E+03  0.17631025351E+03 0.  0.
        -24    2    3    3    0    0  0.24383610777E+02  0.48214940980E+02 -0.26783232424E+02  0.99751602067E+02  0.79459420886E+02 0.  0.
          6    2    1    2  501    0 -0.15852664053E+02  0.99061997458E+01  0.34704552464E+03  0.38834020171E+03  0.17325725480E+03 0.  0.
         24    2    5    5    0    0 -0.44708152291E+02 -0.10068664486E+02  0.78215779676E+02  0.11718866441E+03  0.74264917630E+02 0.  0.
          5    1    5    5  501    0  0.28855488238E+02  0.19974864232E+02  0.26882974496E+03  0.27115153730E+03  0.47000000000E+01 0. -1.
        -11    1    6    6    0    0 -0.13609655977E+02  0.25588057592E+02  0.59734640344E+02  0.66394266952E+02  0.00000000000E+00 0.  1.
         12    1    6    6    0    0 -0.31098496315E+02 -0.35656722077E+02  0.18481139333E+02  0.50794397460E+02  0.00000000000E+00 0. -1.
         -5    1    3    3    0  503 -0.85309467240E+01 -0.58121140726E+02 -0.10774176540E+03  0.12280562716E+03  0.47000000000E+01 0.  1.
         13    1    4    4    0    0  0.49767133443E+02  0.43584122316E+02 -0.31904992479E+02  0.73445706711E+02  0.00000000000E+00 0. -1.
        -14    1    4    4    0    0 -0.25383522666E+02  0.46308186645E+01  0.51217600554E+01  0.26305895356E+02  0.00000000000E+00 0.  1.
</event>
<event>
12    1  0.8462562E-002  0.1813697E+03  0.7818608E-02  0.1167173E+00
         21   -1    0    0  501  502  0.00000000000E+00  0.00000000000E+00  0.15863530939E+03  0.15863530939E+03  0.00000000000E+00 0. -1.
         21   -1    0    0  502  503 -0.00000000000E+00 -0.00000000000E+00 -0.40309718992E+03  0.40309718992E+03  0.00000000000E+00 0. -1.
         -6    2    1    2    0  503 -0.46723636689E+02  0.28811801881E+02 -0.31907171950E+03  0.36561625339E+03  0.16986837378E+03 0.  0.
        -24    2    3    3    0    0  0.46080113734E+01  0.70761062194E+02 -0.22871159974E+03  0.25344798793E+03  0.83057359946E+02 0.  0.
          6    2    1    2  501    0  0.46723636689E+02 -0.28811801881E+02  0.74609838969E+02  0.19611624591E+03  0.17286334396E+03 0.  0.
         24    2    5    5    0    0 -0.21028566128E+02  0.25432304318E+02  0.11343446317E+02  0.88610383359E+02  0.81450129333E+02 0.  0.
          5    1    5    5  501    0  0.67752202818E+02 -0.54244106200E+02  0.63266392653E+02  0.10750586255E+03  0.47000000000E+01 0. -1.
        -13    1    6    6    0    0 -0.14005888417E+02 -0.89718612224E+01 -0.30039980495E+02  0.34337437765E+02  0.00000000000E+00 0.  1.
         14    1    6    6    0    0 -0.70226777116E+01  0.34404165541E+02  0.41383426811E+02  0.54272945594E+02  0.00000000000E+00 0. -1.
         -5    1    3    3    0  503 -0.51331648063E+02 -0.41949260313E+02 -0.90360119762E+02  0.11216826546E+03  0.47000000000E+01 0.  1.
         11    1    4    4    0    0  0.40430222317E+02  0.15658857112E+02 -0.84894688461E+02  0.95325289465E+02  0.00000000000E+00 0. -1.
        -12    1    4    4    0    0 -0.35822210944E+02  0.55102205083E+02 -0.14381691127E+03  0.15812269847E+03  0.00000000000E+00 0.  1.
</event>
<event>
12    1  0.8462562E-002  0.2543899E+03  0.7818608E-02  0.1110593E+00
         21   -1    0    0  503  502  0.00000000000E+00  0.00000000000E+00  0.13046396477E+03  0.13046396477E+03  0.00000000000E+00 0.  1.
         21   -1    0    0  501  503 -0.00000000000E+00 -0.00000000000E+00 -0.50900472453E+03  0.50900472453E+03  0.00000000000E+00 0.  1.
          6    2    1    2  501    0  0.17480080407E+03 -0.63808634588E+02 -0.24101915386E+03  0.35028634128E+03  0.17315722742E+03 0.  0.
         24    2    3    3    0    0  0.11056877972E+03 -0.43087753591E+02 -0.24394240391E+03  0.28256822514E+03  0.79087899694E+02 0.  0.
         -6    2    1    2    0  502 -0.17480080407E+03  0.63808634588E+02 -0.13752160590E+03  0.28918234802E+03  0.17345712832E+03 0.  0.
        -24    2    5    5    0    0 -0.83630643154E+02  0.57054392536E+02 -0.48008099968E+01  0.12795419386E+03  0.78102111164E+02 0.  0.
          5    1    3    3  501    0  0.64232024355E+02 -0.20720880997E+02  0.29232500515E+01  0.67718116135E+02  0.47000000000E+01 0. -1.
        -13    1    4    4    0    0  0.59721964582E+02 -0.30381395816E+02 -0.20924873860E+03  0.21971521766E+03  0.00000000000E+00 0.  1.
         14    1    4    4    0    0  0.50846815137E+02 -0.12706357776E+02 -0.34693665311E+02  0.62853007487E+02  0.00000000000E+00 0. -1.
         -5    1    5    5    0  502 -0.91170160919E+02  0.67542420529E+01 -0.13272079591E+03  0.16122815416E+03  0.47000000000E+01 0.  1.
         11    1    6    6    0    0 -0.36624029423E+02 -0.31105581113E+00 -0.32321725821E+02  0.48847827454E+02  0.00000000000E+00 0. -1.
        -12    1    6    6    0    0 -0.47006613731E+02  0.57365448347E+02  0.27520915824E+02  0.79106366408E+02  0.00000000000E+00 0.  1.
</event>
<event>
12    1  0.8462562E-002  0.1761389E+03  0.7818608E-02  0.1172385E+00
         21   -1    0    0  503  502  0.00000000000E+00  0.00000000000E+00  0.29155500404E+02  0.29155500404E+02  0.00000000000E+00 0. -1.
         21   -1    0    0  501  503 -0.00000000000E+00 -0.00000000000E+00 -0.12057479526E+04  0.12057479526E+04  0.00000000000E+00 0. -1.
          6    2    1    2  501    0  0.40919496213E+02 -0.24368860714E+02 -0.35837210421E+03  0.39793902209E+03  0.16630289740E+03 0.  0.
         24    2    3    3    0    0  0.43142785568E+02 -0.61831291614E+02 -0.15202255235E+03  0.18815197698E+03  0.81276696831E+02 0.  0.
         -6    2    1    2    0  502 -0.40919496213E+02  0.24368860714E+02 -0.81822034796E+03  0.83696443089E+03  0.16957792963E+03 0.  0.
        -24    2    5    5    0    0  0.13149094562E+01  0.90894106779E+01 -0.75098947260E+03  0.75597500432E+03  0.86189748905E+02 0.  0.
          5    1    3    3  501    0 -0.22232893555E+01  0.37462430900E+02 -0.20634955185E+03  0.20978704511E+03  0.47000000000E+01 0. -1.
        -13    1    4    4    0    0  0.32800446959E+02  0.10065147191E+02 -0.27408620605E+02  0.43913653824E+02  0.00000000000E+00 0.  1.
         14    1    4    4    0    0  0.10342338609E+02 -0.71896438806E+02 -0.12461393175E+03  0.14423832316E+03  0.00000000000E+00 0. -1.
         -5    1    5    5    0  502 -0.42234405669E+02  0.15279450036E+02 -0.67230875360E+02  0.80989426577E+02  0.47000000000E+01 0.  1.
         13    1    6    6    0    0 -0.22115272600E+01  0.80503819096E+01 -0.45146536948E+01  0.94911326877E+01  0.00000000000E+00 0. -1.
        -14    1    6    6    0    0  0.35264367163E+01  0.10390287683E+01 -0.74647481891E+03  0.74648387163E+03  0.00000000000E+00 0.  1.
</event>
<event>
12    1  0.8462562E-002  0.1722535E+03  0.7818608E-02  0.1175560E+00
         21   -1    0    0  501  502  0.00000000000E+00  0.00000000000E+00  0.24582389053E+04  0.24582389053E+04  0.00000000000E+00 0.  1.
         21   -1    0    0  502  503 -0.00000000000E+00 -0.00000000000E+00 -0.25183629301E+02  0.25183629301E+02  0.00000000000E+00 0.  1.
         -6    2    1    2    0  503  0.11685607766E+02  0.20308819046E+01  0.32038582391E+03  0.36375590717E+03  0.17184471459E+03 0.  0.
        -24    2    3    3    0    0 -0.55419706597E+02 -0.19679990475E+02  0.15397393273E+03  0.18295354900E+03  0.79406443235E+02 0.  0.
          6    2    1    2  501    0 -0.11685607766E+02 -0.20308819046E+01  0.21126694521E+04  0.21196666275E+04  0.17167911850E+03 0.  0.
         24    2    5    5    0    0 -0.32750306565E+02  0.17851510720E+02  0.20310690135E+04  0.20329501200E+04  0.79079669043E+02 0.  0.
          5    1    5    5  501    0  0.21064698799E+02 -0.19882392625E+02  0.81600438664E+02  0.86716507437E+02  0.47000000000E+01 0. -1.
        -13    1    6    6    0    0 -0.36361865707E+02  0.18262459425E+01  0.36729768156E+03  0.36909769348E+03  0.00000000000E+00 0.  1.
         14    1    6    6    0    0  0.36115591426E+01  0.16025264777E+02  0.16637713319E+04  0.16638524265E+04  0.00000000000E+00 0. -1.
         -5    1    3    3    0  503  0.67105314363E+02  0.21710872379E+02  0.16641189117E+03  0.18080235817E+03  0.47000000000E+01 0.  1.
         11    1    4    4    0    0 -0.19034081187E+02  0.29755693338E+02  0.38987989216E+02  0.52609512788E+02  0.00000000000E+00 0. -1.
        -12    1    4    4    0    0 -0.36385625410E+02 -0.49435683812E+02  0.11498594352E+03  0.13034403622E+03  0.00000000000E+00 0.  1.
</event>
<event>
12    1  0.8462562E-002  0.1793366E+03  0.7818608E-02  0.1168948E+00
         21   -1    0    0  503  502  0.00000000000E+00  0.00000000000E+00  0.10065261961E+03  0.10065261961E+03  0.00000000000E+00 0.  1.
         21   -1    0    0  501  503 -0.00000000000E+00 -0.00000000000E+00 -0.42151906914E+03  0.42151906914E+03  0.00000000000E+00 0.  1.
          6    2    1    2  501    0  0.49873852529E+01 -0.48599217312E+02 -0.29182108236E+03  0.34252177949E+03  0.17255395498E+03 0.  0.
         24    2    3    3    0    0 -0.47127103963E+01  0.12216876650E+02 -0.51555399114E+02  0.94444417188E+02  0.78040547447E+02 0.  0.
         -6    2    1    2    0  502 -0.49873852529E+01  0.48599217312E+02 -0.29045367173E+02  0.17964990926E+03  0.17042211889E+03 0.  0.
        -24    2    5    5    0    0 -0.69751449844E+02  0.39717875726E+02 -0.15209465262E+02  0.11266644509E+03  0.77586246249E+02 0.  0.
          5    1    3    3  501    0  0.97000956492E+01 -0.60816093962E+02 -0.24026568325E+03  0.24807736230E+03  0.47000000000E+01 0. -1.
        -11    1    4    4    0    0 -0.89676240775E+01 -0.19134294261E+02 -0.58372531062E+02  0.62079721980E+02  0.00000000000E+00 0.  1.
         12    1    4    4    0    0  0.42549136812E+01  0.31351170911E+02  0.68171319486E+01  0.32364695208E+02  0.00000000000E+00 0. -1.
         -5    1    5    5    0  502  0.64764064592E+02  0.88813415866E+01 -0.13835901911E+02  0.66983464172E+02  0.47000000000E+01 0.  1.
         11    1    6    6    0    0 -0.47552609239E+02  0.37040435782E+02  0.26107279774E+02  0.65687400508E+02  0.00000000000E+00 0. -1.
        -12    1    6    6    0    0 -0.22198840606E+02  0.26774399437E+01 -0.41316745037E+02  0.46979044577E+02  0.00000000000E+00 0.  1.
</event>
<event>
12    1  0.8462562E-002  0.2012653E+03  0.7818608E-02  0.1148814E+00
         21   -1    0    0  503  502  0.00000000000E+00  0.00000000000E+00  0.12232381494E+03  0.12232381494E+03  0.00000000000E+00 0. -1.
         21   -1    0    0  501  503 -0.00000000000E+00 -0.00000000000E+00 -0.42127550960E+03  0.42127550960E+03  0.00000000000E+00 0. -1.
          6    2    1    2  501    0  0.41154831795E+02  0.95743283049E+02 -0.27575305266E+03  0.34100148932E+03  0.17141112344E+03 0.  0.
         24    2    3    3    0    0  0.19191260632E+02 -0.19683637490E+02 -0.12478262130E+03  0.14963813445E+03  0.77878871546E+02 0.  0.
         -6    2    1    2    0  502 -0.41154831795E+02 -0.95743283049E+02 -0.23198642004E+02  0.20259783521E+03  0.17218365025E+03 0.  0.
        -24    2    5    5    0    0 -0.90480156311E+02 -0.58668028141E+02 -0.35545195138E+02  0.13949403549E+03  0.81034121383E+02 0.  0.
          5    1    3    3  501    0  0.21963571163E+02  0.11542692054E+03 -0.15097043136E+03  0.19136335487E+03  0.47000000000E+01 0. -1.
        -13    1    4    4    0    0  0.34657757078E+02 -0.28574522515E+02 -0.12388364422E+03  0.13177564558E+03  0.00000000000E+00 0.  1.
         14    1    4    4    0    0 -0.15466496446E+02  0.88908850248E+01 -0.89897708065E+00  0.17862488870E+02  0.00000000000E+00 0. -1.
         -5    1    5    5    0  502  0.49325324516E+02 -0.37075254908E+02  0.12346553135E+02  0.63103799723E+02  0.47000000000E+01 0.  1.
         11    1    6    6    0    0 -0.74647757527E+02 -0.40910519991E+02 -0.60946007315E+02  0.10469180559E+03  0.00000000000E+00 0. -1.
        -12    1    6    6    0    0 -0.15832398784E+02 -0.17757508149E+02  0.25400812177E+02  0.34802229902E+02  0.00000000000E+00 0.  1.
</event>
<event>
12    1  0.8462562E-002  0.1772581E+03  0.7818608E-02  0.1170991E+00
         21   -1    0    0  501  502  0.00000000000E+00  0.00000000000E+00  0.14412575823E+04  0.14412575823E+04  0.00000000000E+00 0.  1.
         21   -1    0    0  502  503 -0.00000000000E+00 -0.00000000000E+00 -0.46839176167E+02  0.46839176167E+02  0.00000000000E+00 0.  1.
         -6    2    1    2    0  503  0.30611207760E+02  0.25205006173E+02  0.14863622134E+03  0.22976703531E+03  0.17066876061E+03 0.  0.
        -24    2    3    3    0    0  0.81889255596E+02 -0.82373494945E+01  0.92588818307E+02  0.14663322313E+03  0.78453226447E+02 0.  0.
          6    2    1    2  501    0 -0.30611207760E+02 -0.25205006173E+02  0.12457821848E+04  0.12583297232E+04  0.17276603206E+03 0.  0.
         24    2    5    5    0    0 -0.84181628736E+02 -0.71405218634E+01  0.98842833073E+03  0.99479753954E+03  0.74121832242E+02 0.  0.
          5    1    5    5  501    0  0.53570420977E+02 -0.18064484310E+02  0.25735385409E+03  0.26353218364E+03  0.47000000000E+01 0. -1.
        -11    1    6    6    0    0 -0.71812337867E+02 -0.30973507912E+02  0.86248798733E+03  0.86602649980E+03  0.00000000000E+00 0.  1.
         12    1    6    6    0    0 -0.12369290869E+02  0.23832986048E+02  0.12594034340E+03  0.12877103974E+03  0.00000000000E+00 0. -1.
         -5    1    3    3    0  503 -0.51278047837E+02  0.33442355668E+02  0.56047403029E+02  0.83133812188E+02  0.47000000000E+01 0.  1.
         13    1    4    4    0    0  0.35649059424E+02 -0.21131098559E+02  0.89382404949E+02  0.98522043618E+02  0.00000000000E+00 0. -1.
        -14    1    4    4    0    0  0.46240196172E+02  0.12893749065E+02  0.32064133576E+01  0.48111179508E+02  0.00000000000E+00 0.  1.
</event>
<event>
12    1  0.8462562E-002  0.2380879E+03  0.7818608E-02  0.1121632E+00
         21   -1    0    0  503  502  0.00000000000E+00  0.00000000000E+00  0.12841982859E+04  0.12841982859E+04  0.00000000000E+00 0.  1.
         21   -1    0    0  501  503 -0.00000000000E+00 -0.00000000000E+00 -0.68579698197E+02  0.68579698197E+02  0.00000000000E+00 0. -1.
          6    2    1    2  501    0  0.49291374141E+02 -0.14961096891E+03  0.19635001156E+03  0.30607158246E+03  0.17410745236E+03 0.  0.
         24    2    3    3    0    0  0.36589840504E+00 -0.11383861474E+03  0.20227545005E+03  0.24499323670E+03  0.78402578068E+02 0.  0.
         -6    2    1    2    0  502 -0.49291374141E+02  0.14961096891E+03  0.10192685762E+04  0.10467064017E+04  0.17852949147E+03 0.  0.
        -24    2    5    5    0    0  0.11878261335E+02  0.83220553667E+01  0.41992587986E+03  0.42788652560E+03  0.80862751070E+02 0.  0.
          5    1    3    3  501    0  0.48925475736E+02 -0.35772354178E+02 -0.59254384961E+01  0.61078345760E+02  0.47000000000E+01 0. -1.
        -11    1    4    4    0    0 -0.20718085107E+02 -0.19321805086E+02  0.10088130174E+03  0.10478362583E+03  0.00000000000E+00 0.  1.
         12    1    4    4    0    0  0.21083983512E+02 -0.94516809650E+02  0.10139414832E+03  0.14020961087E+03  0.00000000000E+00 0. -1.
         -5    1    5    5    0  502 -0.61169635477E+02  0.14128891355E+03  0.59934269632E+03  0.61881987608E+03  0.47000000000E+01 0.  1.
         13    1    6    6    0    0 -0.16861461691E+02  0.31166263478E+02  0.10478463686E+03  0.11061403614E+03  0.00000000000E+00 0. -1.
        -14    1    6    6    0    0  0.28739723026E+02 -0.22844208112E+02  0.31514124300E+03  0.31727248945E+03  0.00000000000E+00 0.  1.
</event>
<event>
12    1  0.8462562E-002  0.2085538E+03  0.7818608E-02  0.1142937E+00
         21   -1    0    0  503  502  0.00000000000E+00  0.00000000000E+00  0.67902764391E+03  0.67902764391E+03  0.00000000000E+00 0. -1.
         21   -1    0    0  501  503 -0.00000000000E+00 -0.00000000000E+00 -0.14956927997E+03  0.14956927997E+03  0.00000000000E+00 0. -1.
          6    2    1    2  501    0  0.94921961692E+01 -0.11641726248E+03 -0.49451125243E+02  0.21326703901E+03  0.17144776274E+03 0.  0.
         24    2    3    3    0    0  0.69151664244E+02 -0.93962952875E+02 -0.17383889559E+02  0.14175588075E+03  0.78622776161E+02 0.  0.
         -6    2    1    2    0  502 -0.94921961692E+01  0.11641726248E+03  0.57890948918E+03  0.61532988487E+03  0.17277612611E+03 0.  0.
        -24    2    5    5    0    0  0.50322608544E+02  0.71371872308E+02  0.46461578767E+03  0.47861105571E+03  0.74661927488E+02 0.  0.
          5    1    3    3  501    0 -0.59659468075E+02 -0.22454309606E+02 -0.32067235684E+02  0.71511158257E+02  0.47000000000E+01 0. -1.
        -11    1    4    4    0    0  0.29455498027E+02 -0.15141933273E+02  0.27221773469E+02  0.42871079507E+02  0.00000000000E+00 0.  1.
         12    1    4    4    0    0  0.39696166217E+02 -0.78821019601E+02 -0.44605663028E+02  0.98884801246E+02  0.00000000000E+00 0. -1.
         -5    1    5    5    0  502 -0.59814804713E+02  0.45045390173E+02  0.11429370152E+03  0.13671882915E+03  0.47000000000E+01 0.  1.
         13    1    6    6    0    0  0.13389036628E+02  0.72368715400E+02  0.36542595727E+03  0.37276350078E+03  0.00000000000E+00 0. -1.
        -14    1    6    6    0    0  0.36933571917E+02 -0.99684309203E+00  0.99189830396E+02  0.10584755493E+03  0.00000000000E+00 0.  1.
</event>
<event>
12    1  0.8462562E-002  0.1781969E+03  0.7818608E-02  0.1170653E+00
         21   -1    0    0  501  502  0.00000000000E+00  0.00000000000E+00  0.32262855307E+03  0.32262855307E+03  0.00000000000E+00 0.  1.
         21   -1    0    0  502  503 -0.00000000000E+00 -0.00000000000E+00 -0.21628945459E+03  0.21628945459E+03  0.00000000000E+00 0.  1.
         -6    2    1    2    0  503  0.40264897325E+00 -0.21592818811E+02 -0.14806345902E+03  0.22831409971E+03  0.17244746527E+03 0.  0.
        -24    2    3    3    0    0 -0.11031589099E+02  0.75917958868E+01 -0.37375545769E+01  0.80548947424E+02  0.79339979166E+02 0.  0.
          6    2    1    2  501    0 -0.40264897325E+00  0.21592818811E+02  0.25440255750E+03  0.31060390795E+03  0.17688333562E+03 0.  0.
         24    2    5    5    0    0 -0.34836907337E+02 -0.41430958652E+02  0.85603491496E+02  0.12710205685E+03  0.76790889112E+02 0.  0.
          5    1    5    5  501    0  0.34434258364E+02  0.63023777464E+02  0.16879906601E+03  0.18350185111E+03  0.47000000000E+01 0. -1.
        -11    1    6    6    0    0 -0.30139298298E+02  0.16252679356E+02  0.20148133360E+02  0.39730015933E+02  0.00000000000E+00 0.  1.
         12    1    6    6    0    0 -0.46976090384E+01 -0.57683638008E+02  0.65455358137E+02  0.87372040913E+02  0.00000000000E+00 0. -1.
         -5    1    3    3    0  503  0.11434238073E+02 -0.29184614698E+02 -0.14432590445E+03  0.14776515229E+03  0.47000000000E+01 0.  1.
         13    1    4    4    0    0 -0.28815860584E+02  0.35927397668E+02  0.39434247855E+01  0.46224261199E+02  0.00000000000E+00 0. -1.
        -14    1    4    4    0    0  0.17784271484E+02 -0.28335601781E+02 -0.76809793625E+01  0.34324686225E+02  0.00000000000E+00 0.  1.
</event>
<event>
12    1  0.8462562E-002  0.1901081E+03  0.7818608E-02  0.1158461E+00
         21   -1    0    0  503  502  0.00000000000E+00  0.00000000000E+00  0.65499551262E+03  0.65499551262E+03  0.00000000000E+00 0. -1.
         21   -1    0    0  501  503 -0.00000000000E+00 -0.00000000000E+00 -0.65272784658E+02  0.65272784658E+02  0.00000000000E+00 0.  1.
          6    2    1    2  501    0 -0.45791322019E+02  0.65821494554E+02  0.15263822766E+03  0.24380222589E+03  0.17237106047E+03 0.  0.
         24    2    3    3    0    0  0.23092623414E+02  0.49348298784E+02  0.14193802565E+03  0.17201818560E+03  0.80469430230E+02 0.  0.
         -6    2    1    2    0  502  0.45791322019E+02 -0.65821494554E+02  0.43708450030E+03  0.47646607139E+03  0.17189456788E+03 0.  0.
        -24    2    5    5    0    0  0.21436091607E+02 -0.74416060140E+02  0.14072904951E+03  0.17895021128E+03  0.78874943484E+02 0.  0.
          5    1    3    3  501    0 -0.68883945433E+02  0.16473195770E+02  0.10700202009E+02  0.71784040289E+02  0.47000000000E+01 0. -1.
        -11    1    4    4    0    0  0.88859920510E+01  0.34414844739E+02  0.79080699822E+01  0.36412634675E+02  0.00000000000E+00 0.  1.
         12    1    4    4    0    0  0.14206631363E+02  0.14933454045E+02  0.13402995567E+03  0.13560555092E+03  0.00000000000E+00 0. -1.
         -5    1    5    5    0  502  0.24355230411E+02  0.85945655862E+01  0.29635545079E+03  0.29751586011E+03  0.47000000000E+01 0.  1.
         11    1    6    6    0    0  0.13563363357E+02  0.11230951033E+02  0.54028202798E+02  0.56825573330E+02  0.00000000000E+00 0. -1.
        -12    1    6    6    0    0  0.78727282508E+01 -0.85647011173E+02  0.86700846712E+02  0.12212463795E+03  0.00000000000E+00 0.  1.
</event>
<event>
12    1  0.8462562E-002  0.1906852E+03  0.7818608E-02  0.1158101E+00
         21   -1    0    0  501  502  0.00000000000E+00  0.00000000000E+00  0.55223018551E+02  0.55223018551E+02  0.00000000000E+00 0.  1.
         21   -1    0    0  502  503 -0.00000000000E+00 -0.00000000000E+00 -0.90672061260E+03  0.90672061260E+03  0.00000000000E+00 0. -1.
         -6    2    1    2    0  503  0.44755771103E+02  0.66726381361E+02 -0.68033621311E+03  0.70655374514E+03  0.17293161333E+03 0.  0.
        -24    2    3    3    0    0 -0.32081128416E+02 -0.39054934285E+01 -0.33422915055E+03  0.34502233625E+03  0.79289568997E+02 0.  0.
          6    2    1    2  501    0 -0.44755771103E+02 -0.66726381361E+02 -0.17116138094E+03  0.25538988601E+03  0.17167494440E+03 0.  0.
         24    2    5    5    0    0 -0.91586545155E+02 -0.39022752448E+02 -0.15214685191E+03  0.19756035404E+03  0.77269389037E+02 0.  0.
          5    1    5    5  501    0  0.46830774052E+02 -0.27703628913E+02 -0.19014529033E+02  0.57829531968E+02  0.47000000000E+01 0. -1.
        -13    1    6    6    0    0 -0.56166677847E+02 -0.23098226411E+01 -0.26891924877E+02  0.62315380161E+02  0.00000000000E+00 0.  1.
         14    1    6    6    0    0 -0.35419867308E+02 -0.36712929807E+02 -0.12525492703E+03  0.13524497388E+03  0.00000000000E+00 0. -1.
         -5    1    3    3    0  503  0.76836899518E+02  0.70631874789E+02 -0.34610706256E+03  0.36153140890E+03  0.47000000000E+01 0.  1.
         13    1    4    4    0    0 -0.31315893111E+02  0.15200501161E+02 -0.31812252475E+03  0.32002137609E+03  0.00000000000E+00 0. -1.
        -14    1    4    4    0    0 -0.76523530492E+00 -0.19105994589E+02 -0.16106625796E+02  0.25000960158E+02  0.00000000000E+00 0.  1.
</event>
<event>
12    1  0.8462562E-002  0.1895729E+03  0.7818608E-02  0.1160040E+00
         21   -1    0    0  503  502  0.00000000000E+00  0.00000000000E+00  0.15822255080E+03  0.15822255080E+03  0.00000000000E+00 0.  1.
         21   -1    0    0  501  503 -0.00000000000E+00 -0.00000000000E+00 -0.29671603251E+03  0.29671603251E+03  0.00000000000E+00 0.  1.
          6    2    1    2  501    0 -0.66372397657E+02 -0.60231161524E+01  0.46406543994E+02  0.19012563360E+03  0.17190874361E+03 0.  0.
         24    2    3    3    0    0 -0.13182522013E+02 -0.16861523559E+02  0.88375843819E+02  0.12134957619E+03  0.80357575911E+02 0.  0.
         -6    2    1    2    0  502  0.66372397657E+02  0.60231161524E+01 -0.18490002571E+03  0.26481294970E+03  0.17747198575E+03 0.  0.
        -24    2    5    5    0    0  0.84669087914E+02 -0.78345298210E+01 -0.20367720496E+03  0.23478836499E+03  0.80068334639E+02 0.  0.
          5    1    3    3  501    0 -0.53189875644E+02  0.10838407407E+02 -0.41969299825E+02  0.68776057418E+02  0.47000000000E+01 0. -1.
        -13    1    4    4    0    0 -0.42317021441E+02 -0.21855691690E+02  0.75137870600E+02  0.88961234036E+02  0.00000000000E+00 0.  1.
         14    1    4    4    0    0  0.29134499428E+02  0.49941681309E+01  0.13237973219E+02  0.32388342149E+02  0.00000000000E+00 0. -1.
         -5    1    5    5    0  502 -0.18296690257E+02  0.13857645973E+02  0.18777179250E+02  0.30024584708E+02  0.47000000000E+01 0.  1.
         13    1    6    6    0    0 -0.32882722784E+01  0.10710371512E+02  0.99327587700E+00  0.11247728191E+02  0.00000000000E+00 0. -1.
        -14    1    6    6    0    0  0.87957360192E+02 -0.18544901333E+02 -0.20467048083E+03  0.22354063680E+03  0.00000000000E+00 0.  1.
</event>
<event>
12    1  0.8462562E-002  0.2029805E+03  0.7818608E-02  0.1147472E+00
         21   -1    0    0  501  502  0.00000000000E+00  0.00000000000E+00  0.93793819358E+03  0.93793819358E+03  0.00000000000E+00 0. -1.
         21   -1    0    0  502  503 -0.00000000000E+00 -0.00000000000E+00 -0.44484721255E+02  0.44484721255E+02  0.00000000000E+00 0. -1.
         -6    2    1    2    0  503  0.20929106351E+02 -0.10410777079E+03  0.38009016025E+03  0.43038762077E+03  0.17172221394E+03 0.  0.
        -24    2    3    3    0    0  0.13831041995E+02 -0.13665348009E+03  0.35284462386E+03  0.38709772628E+03  0.80497514005E+02 0.  0.
          6    2    1    2  501    0 -0.20929106351E+02  0.10410777079E+03  0.51336331207E+03  0.55203529406E+03  0.17298734138E+03 0.  0.
         24    2    5    5    0    0  0.16181414786E+01 -0.14861070605E+02  0.19365210088E+03  0.21012987999E+03  0.80187034428E+02 0.  0.
          5    1    5    5  501    0 -0.22547247829E+02  0.11896884139E+03  0.31971121119E+03  0.34190541407E+03  0.47000000000E+01 0. -1.
        -11    1    6    6    0    0 -0.30518671370E+02 -0.32599472568E+02  0.98814918184E+02  0.10843663112E+03  0.00000000000E+00 0.  1.
         12    1    6    6    0    0  0.32136812849E+02  0.17738401962E+02  0.94837182694E+02  0.10169324887E+03  0.00000000000E+00 0. -1.
         -5    1    3    3    0  503  0.70980643558E+01  0.32545709304E+02  0.27245536390E+02  0.43289894489E+02  0.47000000000E+01 0.  1.
         11    1    4    4    0    0 -0.24501679754E+01 -0.46287338724E+02  0.22482589640E+03  0.22955436119E+03  0.00000000000E+00 0. -1.
        -12    1    4    4    0    0  0.16281209970E+02 -0.90366141365E+02  0.12801872746E+03  0.15754336509E+03  0.00000000000E+00 0.  1.
</event>
<event>
12    1  0.8462562E-002  0.2261094E+03  0.7818608E-02  0.1129440E+00
         21   -1    0    0  503  502  0.00000000000E+00  0.00000000000E+00  0.29608239003E+03  0.29608239003E+03  0.00000000000E+00 0.  1.
         21   -1    0    0  501  503 -0.00000000000E+00 -0.00000000000E+00 -0.20346425122E+03  0.20346425122E+03  0.00000000000E+00 0.  1.
          6    2    1    2  501    0  0.12054784255E+03 -0.82678473601E+02 -0.51083809520E+02  0.23163675469E+03  0.17227454306E+03 0.  0.
         24    2    3    3    0    0  0.10737239243E+03 -0.11694573183E+03 -0.68882944631E+02  0.19056685472E+03  0.79785532563E+02 0.  0.
         -6    2    1    2    0  502 -0.12054784255E+03  0.82678473601E+02  0.14370194833E+03  0.26790988656E+03  0.17250491304E+03 0.  0.
        -24    2    5    5    0    0 -0.15132533841E+03  0.55665990774E+02  0.92008701750E+02  0.20179475803E+03  0.79104125024E+02 0.  0.
          5    1    3    3  501    0  0.13175450125E+02  0.34267258231E+02  0.17799135111E+02  0.41069899968E+02  0.47000000000E+01 0. -1.
        -11    1    4    4    0    0 -0.12649903201E+02 -0.71879106508E+01 -0.97280649395E+01  0.17502038681E+02  0.00000000000E+00 0.  1.
         12    1    4    4    0    0  0.12002229563E+03 -0.10975782118E+03 -0.59154879692E+02  0.17306481604E+03  0.00000000000E+00 0. -1.
         -5    1    5    5    0  502  0.30777495852E+02  0.27012482827E+02  0.51693246583E+02  0.66115128539E+02  0.47000000000E+01 0.  1.
         11    1    6    6    0    0 -0.66328288518E+02 -0.13177317958E+02  0.18844728633E+02  0.70201192038E+02  0.00000000000E+00 0. -1.
        -12    1    6    6    0    0 -0.84997049889E+02  0.68843308732E+02  0.73163973117E+02  0.13159356599E+03  0.00000000000E+00 0.  1.
</event>
<event>
12    1  0.8462562E-002  0.2376338E+03  0.7818608E-02  0.1121384E+00
         21   -1    0    0  501  502  0.00000000000E+00  0.00000000000E+00  0.13338491648E+04  0.13338491648E+04  0.00000000000E+00 0. -1.
         21   -1    0    0  502  503 -0.00000000000E+00 -0.00000000000E+00 -0.43367168836E+02  0.43367168836E+02  0.00000000000E+00 0. -1.
         -6    2    1    2    0  503 -0.15402999132E+03 -0.53823965754E+02  0.53883000711E+03  0.58890372726E+03  0.17276448102E+03 0.  0.
        -24    2    3    3    0    0 -0.90809303638E+02 -0.38237721860E+02  0.16051278399E+03  0.20499514744E+03  0.80933328425E+02 0.  0.
          6    2    1    2  501    0  0.15402999132E+03  0.53823965754E+02  0.75165198885E+03  0.78831260637E+03  0.17272462333E+03 0.  0.
         24    2    5    5    0    0  0.10132454196E+03  0.90205690427E+02  0.38176412244E+03  0.41289201823E+03  0.79575399131E+02 0.  0.
          5    1    5    5  501    0  0.52705449363E+02 -0.36381724674E+02  0.36988786641E+03  0.37542058814E+03  0.47000000000E+01 0. -1.
        -13    1    6    6    0    0  0.36624140208E+01  0.10832587966E+02  0.55695058209E+00  0.11448512237E+02  0.00000000000E+00 0.  1.
         14    1    6    6    0    0  0.97662127938E+02  0.79373102462E+02  0.38120717186E+03  0.40144350599E+03  0.00000000000E+00 0. -1.
         -5    1    3    3    0  503 -0.63220687684E+02 -0.15586243893E+02  0.37831722312E+03  0.38390857982E+03  0.47000000000E+01 0.  1.
         11    1    4    4    0    0 -0.31118941327E+02  0.22565607710E+02  0.28415580084E+02  0.47802095688E+02  0.00000000000E+00 0. -1.
        -12    1    4    4    0    0 -0.59690362311E+02 -0.60803329571E+02  0.13209720390E+03  0.15719305175E+03  0.00000000000E+00 0.  1.
</event>
<event>
12    1  0.8462562E-002  0.1845175E+03  0.7818608E-02  0.1163835E+00
         21   -1    0    0  501  502  0.00000000000E+00  0.00000000000E+00  0.27924978609E+03  0.27924978609E+03  0.00000000000E+00 0.  1.
         21   -1    0    0  502  503 -0.00000000000E+00 -0.00000000000E+00 -0.13125579222E+03  0.13125579222E+03  0.00000000000E+00 0.  1.
         -6    2    1    2    0  503  0.13306744624E+02 -0.63157108349E+02  0.16845558319E+02  0.18528489100E+03  0.17286071911E+03 0.  0.
        -24    2    3    3    0    0  0.19274780616E+02 -0.10580259141E+03  0.34377144407E+02  0.13855480230E+03  0.80311516409E+02 0.  0.
          6    2    1    2  501    0 -0.13306744624E+02  0.63157108349E+02  0.13114843555E+03  0.22522068731E+03  0.17134338639E+03 0.  0.
         24    2    5    5    0    0  0.41617600537E+02 -0.62674835387E+01  0.89902665142E+02  0.12744665586E+03  0.79930312562E+02 0.  0.
          5    1    5    5  501    0 -0.54924345161E+02  0.69424591887E+02  0.41245770407E+02  0.97774031453E+02  0.47000000000E+01 0. -1.
        -11    1    6    6    0    0  0.11970247682E+02  0.19442647764E+02  0.84864260706E+02  0.87882001154E+02  0.00000000000E+00 0.  1.
         12    1    6    6    0    0  0.29647352855E+02 -0.25710131302E+02  0.50384044360E+01  0.39564654708E+02  0.00000000000E+00 0. -1.
         -5    1    3    3    0  503 -0.59680359919E+01  0.42645483059E+02 -0.17531586088E+02  0.46730088697E+02  0.47000000000E+01 0.  1.
         13    1    4    4    0    0  0.37437635079E+02 -0.73433292923E+02  0.52009314061E+02  0.97462781506E+02  0.00000000000E+00 0. -1.
        -14    1    4    4    0    0 -0.18162854463E+02 -0.32369298484E+02 -0.17632169654E+02  0.41092020798E+02  0.00000000000E+00 0.  1.
</event>
<event>
12    1  0.8462562E-002  0.2110189E+03  0.7818608E-02  0.1141565E+00
         21   -1    0    0  503  502  0.00000000000E+00  0.00000000000E+00  0.40259035076E+03  0.40259035076E+03  0.00000000000E+00 0.  1.
         21   -1    0    0  501  503 -0.00000000000E+00 -0.00000000000E+00 -0.10981915266E+03  0.10981915266E+03  0.00000000000E+00 0. -1.
          6    2    1    2  501    0 -0.44409719532E+02  0.11252197590E+03  0.11969139960E+03  0.24260049231E+03  0.17290329517E+03 0.  0.
         24    2    3    3    0    0  0.56588017358E+01  0.10383905476E+03  0.18136119500E+02  0.12894392691E+03  0.74047593650E+02 0.  0.
         -6    2    1    2    0  502  0.44409719532E+02 -0.11252197590E+03  0.17307979850E+03  0.26980901112E+03  0.16794900292E+03 0.  0.
        -24    2    5    5    0    0  0.69865691693E+02 -0.89967244983E+02  0.18665448303E+03  0.23288903732E+03  0.80137928721E+02 0.  0.
          5    1    3    3  501    0 -0.50068521268E+02  0.86829211388E+01  0.10155528010E+03  0.11365656540E+03  0.47000000000E+01 0. -1.
        -13    1    4    4    0    0  0.14213707158E+02  0.10390688558E+03  0.34562682581E+02  0.11042304727E+03  0.00000000000E+00 0.  1.
         14    1    4    4    0    0 -0.85549054226E+01 -0.67830818680E-01 -0.16426563081E+02  0.18520879635E+02  0.00000000000E+00 0. -1.
         -5    1    5    5    0  502 -0.25455972161E+02 -0.22554730915E+02 -0.13574684533E+02  0.36919973801E+02  0.47000000000E+01 0.  1.
         13    1    6    6    0    0  0.36688461210E+02 -0.96023912111E+02  0.15870663269E+03  0.18908841885E+03  0.00000000000E+00 0. -1.
        -14    1    6    6    0    0  0.33177230483E+02  0.60566671278E+01  0.27947850342E+02  0.43800618466E+02  0.00000000000E+00 0.  1.
</event>
<event>
12    1  0.8462562E-002  0.2317592E+03  0.7818608E-02  0.1125428E+00
         21   -1    0    0  503  502  0.00000000000E+00  0.00000000000E+00  0.11624593772E+04  0.11624593772E+04  0.00000000000E+00 0.  1.
         21   -1    0    0  501  503 -0.00000000000E+00 -0.00000000000E+00 -0.69017724155E+02  0.69017724155E+02  0.00000000000E+00 0. -1.
          6    2    1    2  501    0  0.14308027851E+03  0.60026373177E+02  0.19245054948E+03  0.30115604258E+03  0.17199597790E+03 0.  0.
         24    2    3    3    0    0  0.13656265157E+03  0.21958950039E+02  0.20547894283E+03  0.26012633142E+03  0.79451614580E+02 0.  0.
         -6    2    1    2    0  502 -0.14308027851E+03 -0.60026373177E+02  0.90099110359E+03  0.93032105879E+03  0.17215450071E+03 0.  0.
        -24    2    5    5    0    0 -0.63084180211E+02  0.10839237531E+02  0.23599431308E+03  0.25677511982E+03  0.78377570063E+02 0.  0.
          5    1    3    3  501    0  0.65176269383E+01  0.38067423139E+02 -0.13028393347E+02  0.41029711168E+02  0.47000000000E+01 0. -1.
        -13    1    4    4    0    0  0.10062199824E+03  0.46881473053E+02  0.17339202018E+03  0.20588213061E+03  0.00000000000E+00 0.  1.
         14    1    4    4    0    0  0.35940653336E+02 -0.24922523014E+02  0.32086922651E+02  0.54244200803E+02  0.00000000000E+00 0. -1.
         -5    1    5    5    0  502 -0.79996098299E+02 -0.70865610708E+02  0.66499679050E+03  0.67354593897E+03  0.47000000000E+01 0.  1.
         13    1    6    6    0    0 -0.53490925535E+02 -0.27411741393E+02  0.16432542489E+03  0.17497293490E+03  0.00000000000E+00 0. -1.
        -14    1    6    6    0    0 -0.95932546761E+01  0.38250978923E+02  0.71668888188E+02  0.81802184922E+02  0.00000000000E+00 0.  1.
</event>
<event>
12    1  0.8462562E-002  0.1850410E+03  0.7818608E-02  0.1163392E+00
         21   -1    0    0  503  502  0.00000000000E+00  0.00000000000E+00  0.28430295746E+04  0.28430295746E+04  0.00000000000E+00 0. -1.
         21   -1    0    0  501  503 -0.00000000000E+00 -0.00000000000E+00 -0.70330421649E+02  0.70330421649E+02  0.00000000000E+00 0. -1.
          6    2    1    2  501    0 -0.11310839852E+02 -0.62479593360E+02  0.58013291163E+02  0.19237497319E+03  0.17207833587E+03 0.  0.
         24    2    3    3    0    0 -0.43692907732E+02 -0.74401199728E+02  0.87502143577E+02  0.14674159248E+03  0.80198884821E+02 0.  0.
         -6    2    1    2    0  502  0.11310839852E+02  0.62479593360E+02  0.27146858618E+04  0.27209850230E+04  0.17380602066E+03 0.  0.
        -24    2    5    5    0    0 -0.43842429503E+02 -0.27787846256E+01  0.17564008553E+04  0.17588869082E+04  0.82518549096E+02 0.  0.
          5    1    3    3  501    0  0.32382067880E+02  0.11921606369E+02 -0.29488852413E+02  0.45633380712E+02  0.47000000000E+01 0. -1.
        -13    1    4    4    0    0  0.20014425456E+02 -0.17952623348E+02  0.34306587491E+01  0.27104304656E+02  0.00000000000E+00 0.  1.
         14    1    4    4    0    0 -0.63707333188E+02 -0.56448576380E+02  0.84071484827E+02  0.11963728783E+03  0.00000000000E+00 0. -1.
         -5    1    5    5    0  502  0.55153269355E+02  0.65258377985E+02  0.95828500645E+03  0.96209811486E+03  0.47000000000E+01 0.  1.
         13    1    6    6    0    0 -0.38985475582E+02  0.31635895767E+02  0.13719151647E+04  0.13728335356E+04  0.00000000000E+00 0. -1.
        -14    1    6    6    0    0 -0.48569539205E+01 -0.34414680392E+02  0.38448569061E+03  0.38605337262E+03  0.00000000000E+00 0.  1.
</event>
<event>
12    1  0.8462562E-002  0.1728307E+03  0.7818608E-02  0.1175037E+00
         21   -1    0    0  503  502  0.00000000000E+00  0.00000000000E+00  0.15884902318E+03  0.15884902318E+03  0.00000000000E+00 0.  1.
         21   -1    0    0  501  503 -0.00000000000E+00 -0.00000000000E+00 -0.19497056342E+03  0.19497056342E+03  0.00000000000E+00 0.  1.
          6    2    1    2  501    0  0.55007113734E+01 -0.12706653312E+02 -0.52492565995E+02  0.18021528387E+03  0.17184400540E+03 0.  0.
         24    2    3    3    0    0  0.53397273354E+02 -0.24769008387E+01  0.13876591285E+02  0.97597588895E+02  0.80469408678E+02 0.  0.
         -6    2    1    2    0  502 -0.55007113734E+01  0.12706653312E+02  0.16371025756E+02  0.17360430273E+03  0.17227514788E+03 0.  0.
        -24    2    5    5    0    0  0.31476361558E+02  0.61014486021E+02  0.35398201134E+02  0.10968971890E+03  0.77879862267E+02 0.  0.
          5    1    3    3  501    0 -0.47896561980E+02 -0.10229752474E+02 -0.66369157280E+02  0.82617694977E+02  0.47000000000E+01 0. -1.
        -11    1    4    4    0    0  0.30598167010E+02 -0.34392823724E+02 -0.15521899730E+02  0.48580279120E+02  0.00000000000E+00 0.  1.
         12    1    4    4    0    0  0.22799106344E+02  0.31915922886E+02  0.29398491014E+02  0.49017309775E+02  0.00000000000E+00 0. -1.
         -5    1    5    5    0  502 -0.36977072932E+02 -0.48307832709E+02 -0.19027175378E+02  0.63914583833E+02  0.47000000000E+01 0.  1.
         11    1    6    6    0    0  0.30674541524E+02 -0.21663347324E+01  0.34882490589E+02  0.46501705921E+02  0.00000000000E+00 0. -1.
        -12    1    6    6    0    0  0.80182003475E+00  0.63180820754E+02  0.51571054582E+00  0.63188012976E+02  0.00000000000E+00 0.  1.
</event>
<event>
12    1  0.8462562E-002  0.2002919E+03  0.7818608E-02  0.1149583E+00
         21   -1    0    0  501  502  0.00000000000E+00  0.00000000000E+00  0.59698822247E+03  0.59698822247E+03  0.00000000000E+00 0.  1.
         21   -1    0    0  502  503 -0.00000000000E+00 -0.00000000000E+00 -0.70336034665E+02  0.70336034665E+02  0.00000000000E+00 0. -1.
         -6    2    1    2    0  503 -0.45276139807E+02  0.92982081206E+02  0.33512116142E+03  0.39019432605E+03  0.17102579626E+03 0.  0.
        -24    2    3    3    0    0 -0.61316241792E+02  0.11168045906E+03  0.18378662919E+03  0.23679567921E+03  0.77861814647E+02 0.  0.
          6    2    1    2  501    0  0.45276139807E+02 -0.92982081206E+02  0.19153102638E+03  0.27712993109E+03  0.17152629062E+03 0.  0.
         24    2    5    5    0    0  0.27647976026E+02 -0.18695403472E+02  0.17930535354E+03  0.19966497305E+03  0.81251233622E+02 0.  0.
          5    1    5    5  501    0  0.17628163781E+02 -0.74286677734E+02  0.12225672841E+02  0.77464958036E+02  0.47000000000E+01 0. -1.
        -13    1    6    6    0    0  0.32155356323E+02  0.38711827775E+01  0.18657373337E+02  0.37377139754E+02  0.00000000000E+00 0.  1.
         14    1    6    6    0    0 -0.45073802969E+01 -0.22566586250E+02  0.16064798020E+03  0.16228783330E+03  0.00000000000E+00 0. -1.
         -5    1    3    3    0  503  0.16040101985E+02 -0.18698377853E+02  0.15133453223E+03  0.15339864684E+03  0.47000000000E+01 0.  1.
         11    1    4    4    0    0 -0.76792920887E+02  0.86608263082E+02  0.16602539060E+03  0.20239212993E+03  0.00000000000E+00 0. -1.
        -12    1    4    4    0    0  0.15476679095E+02  0.25072195978E+02  0.17761238587E+02  0.34403549280E+02  0.00000000000E+00 0.  1.
</event>
<event>
12    1  0.8462562E-002  0.1783127E+03  0.7818608E-02  0.1170123E+00
         21   -1    0    0  503  502  0.00000000000E+00  0.00000000000E+00  0.16944064496E+03  0.16944064496E+03  0.00000000000E+00 0.  1.
         21   -1    0    0  501  503 -0.00000000000E+00 -0.00000000000E+00 -0.23565453209E+03  0.23565453209E+03  0.00000000000E+00 0.  1.
          6    2    1    2  501    0 -0.21277457045E+02 -0.32927493509E+02  0.61204587017E+02  0.18593571746E+03  0.17114070103E+03 0.  0.
         24    2    3    3    0    0 -0.38627995112E+02 -0.67951130044E+02  0.84396751517E+02  0.14024476889E+03  0.80226588196E+02 0.  0.
         -6    2    1    2    0  502  0.21277457045E+02  0.32927493509E+02 -0.12741847414E+03  0.21915945958E+03  0.17394956500E+03 0.  0.
        -24    2    5    5    0    0  0.82582308816E+01  0.90656654276E+02 -0.84938725849E+02  0.14616099886E+03  0.76561237562E+02 0.  0.
          5    1    3    3  501    0  0.17350538067E+02  0.35023636536E+02 -0.23192164501E+02  0.45690948575E+02  0.47000000000E+01 0. -1.
        -13    1    4    4    0    0  0.18636580416E+02 -0.31250824752E+01 -0.69488688365E+00  0.18909551498E+02  0.00000000000E+00 0.  1.
         14    1    4    4    0    0 -0.57264575528E+02 -0.64826047569E+02  0.85091638401E+02  0.12133521739E+03  0.00000000000E+00 0. -1.
         -5    1    5    5    0  502  0.13019226163E+02 -0.57729160768E+02 -0.42479748293E+02  0.72998460723E+02  0.47000000000E+01 0.  1.
         11    1    6    6    0    0  0.28488571624E+02  0.67926334659E+01 -0.74971321270E+01  0.30231532755E+02  0.00000000000E+00 0. -1.
        -12    1    6    6    0    0 -0.20230340743E+02  0.83864020810E+02 -0.77441593722E+02  0.11592946610E+03  0.00000000000E+00 0.  1.
</event>
<event>
12    1  0.8462562E-002  0.1891912E+03  0.7818608E-02  0.1159273E+00
         21   -1    0    0  503  502  0.00000000000E+00  0.00000000000E+00  0.60818159787E+03  0.60818159787E+03  0.00000000000E+00 0.  1.
         21   -1    0    0  501  503 -0.00000000000E+00 -0.00000000000E+00 -0.34655330990E+03  0.34655330990E+03  0.00000000000E+00 0. -1.
          6    2    1    2  501    0  0.69418375690E+02 -0.13101944470E+02 -0.30423750701E+03  0.35807972358E+03  0.17512868394E+03 0.  0.
         24    2    3    3    0    0  0.10233445176E+03  0.35527704287E+01 -0.18634615003E+03  0.23446212919E+03  0.98806073711E+02 0.  0.
         -6    2    1    2    0  502 -0.69418375690E+02  0.13101944470E+02  0.56586579498E+03  0.59665518418E+03  0.17550709117E+03 0.  0.
        -24    2    5    5    0    0 -0.83962620388E+02 -0.89374345902E+01  0.21227087249E+03  0.24204451247E+03  0.79981393767E+02 0.  0.
          5    1    3    3  501    0 -0.32916076065E+02 -0.16654714899E+02 -0.11789135698E+03  0.12361759439E+03  0.47000000000E+01 0. -1.
        -11    1    4    4    0    0  0.86737230905E+02  0.44785116544E+02 -0.13798945408E+03  0.16902704910E+03  0.00000000000E+00 0.  1.
         12    1    4    4    0    0  0.15597220851E+02 -0.41232346115E+02 -0.48356695945E+02  0.65435080095E+02  0.00000000000E+00 0. -1.
         -5    1    5    5    0  502  0.14544244697E+02  0.22039379061E+02  0.35359492249E+03  0.35461067171E+03  0.47000000000E+01 0.  1.
         13    1    6    6    0    0 -0.16663613446E+01 -0.28965801934E+02  0.34145647896E+02  0.44807585430E+02  0.00000000000E+00 0. -1.
        -14    1    6    6    0    0 -0.82296259043E+02  0.20028367344E+02  0.17812522459E+03  0.19723692704E+03  0.00000000000E+00 0.  1.
</event>
<event>
12    1  0.8462562E-002  0.1897776E+03  0.7818608E-02  0.1161832E+00
         21   -1    0    0  503  502  0.00000000000E+00  0.00000000000E+00  0.85368724863E+02  0.85368724863E+02  0.00000000000E+00 0. -1.
         21   -1    0    0  501  503 -0.00000000000E+00 -0.00000000000E+00 -0.42171093192E+03  0.42171093192E+03  0.00000000000E+00 0. -1.
          6    2    1    2  501    0 -0.34274474181E+02  0.21856344532E+02 -0.24072259132E+03  0.30653370603E+03  0.18537288795E+03 0.  0.
         24    2    3    3    0    0 -0.83058100968E+02  0.49161035583E+01 -0.87976504713E+02  0.14522570567E+03  0.80173711378E+02 0.  0.
         -6    2    1    2    0  502  0.34274474181E+02 -0.21856344532E+02 -0.95619615742E+02  0.20054595075E+03  0.17153171156E+03 0.  0.
        -24    2    5    5    0    0 -0.37852717804E+01 -0.39500333703E+02  0.70076570281E+01  0.89576127230E+02  0.80001066664E+02 0.  0.
          5    1    3    3  501    0  0.48783626788E+02  0.16940240974E+02 -0.15274608660E+03  0.16130800036E+03  0.47000000000E+01 0. -1.
        -11    1    4    4    0    0 -0.79161499611E+02 -0.23447596241E+02 -0.81208457422E+02  0.11580650391E+03  0.00000000000E+00 0.  1.
         12    1    4    4    0    0 -0.38966013572E+01  0.28363699800E+02 -0.67680472906E+01  0.29419201767E+02  0.00000000000E+00 0. -1.
         -5    1    5    5    0  502  0.38059745961E+02  0.17643989170E+02 -0.10262727277E+03  0.11096982352E+03  0.47000000000E+01 0.  1.
         13    1    6    6    0    0  0.76436577869E+01 -0.58417638161E+02  0.21978186628E+02  0.62881528609E+02  0.00000000000E+00 0. -1.
        -14    1    6    6    0    0 -0.11428929567E+02  0.18917304459E+02 -0.14970529600E+02  0.26694598621E+02  0.00000000000E+00 0.  1.
</event>
<event>
12    1  0.8462562E-002  0.1836720E+03  0.7818608E-02  0.1164326E+00
         21   -1    0    0  503  502  0.00000000000E+00  0.00000000000E+00  0.94660853457E+03  0.94660853457E+03  0.00000000000E+00 0. -1.
         21   -1    0    0  501  503 -0.00000000000E+00 -0.00000000000E+00 -0.77781260582E+02  0.77781260582E+02  0.00000000000E+00 0. -1.
          6    2    1    2  501    0  0.47720360973E+01  0.63277141734E+02  0.57354623534E+02  0.19241868653E+03  0.17236191311E+03 0.  0.
         24    2    3    3    0    0  0.65772122703E+02  0.13115300596E+02  0.25881094060E+02  0.10727237757E+03  0.79621283114E+02 0.  0.
         -6    2    1    2    0  502 -0.47720360973E+01 -0.63277141734E+02  0.81147265046E+03  0.83197110862E+03  0.17222454573E+03 0.  0.
        -24    2    5    5    0    0  0.29521150677E+02 -0.69662063231E+02  0.30376288771E+03  0.32304274129E+03  0.79752237365E+02 0.  0.
          5    1    3    3  501    0 -0.61000086605E+02  0.50161841138E+02  0.31473529475E+02  0.85146308962E+02  0.47000000000E+01 0. -1.
        -13    1    4    4    0    0  0.15771126321E+02  0.63368924653E+01 -0.28439969973E+02  0.33131805317E+02  0.00000000000E+00 0.  1.
         14    1    4    4    0    0  0.50000996382E+02  0.67784081311E+01  0.54321064033E+02  0.74140572251E+02  0.00000000000E+00 0. -1.
         -5    1    5    5    0  502 -0.34293186774E+02  0.63849214965E+01  0.50770976275E+03  0.50892836733E+03  0.47000000000E+01 0.  1.
         11    1    6    6    0    0  0.40499161551E+02 -0.72472871336E+01  0.73645266883E+02  0.84358346306E+02  0.00000000000E+00 0. -1.
        -12    1    6    6    0    0 -0.10978010874E+02 -0.62414776097E+02  0.23011762082E+03  0.23868439499E+03  0.00000000000E+00 0.  1.
</event>
<event>
12    1  0.8462562E-002  0.2257483E+03  0.7818608E-02  0.1130178E+00
         21   -1    0    0  503  502  0.00000000000E+00  0.00000000000E+00  0.85036806463E+03  0.85036806463E+03  0.00000000000E+00 0. -1.
         21   -1    0    0  501  503 -0.00000000000E+00 -0.00000000000E+00 -0.25476315384E+03  0.25476315384E+03  0.00000000000E+00 0. -1.
          6    2    1    2  501    0 -0.77603590910E+02 -0.11878057782E+03 -0.18677013375E+03  0.29083827686E+03  0.17196708242E+03 0.  0.
         24    2    3    3    0    0 -0.31693670910E+02 -0.53507450130E+02 -0.14089168515E+02  0.10055136793E+03  0.77746620048E+02 0.  0.
         -6    2    1    2    0  502  0.77603590910E+02  0.11878057782E+03  0.78237504455E+03  0.81429294161E+03  0.17558798772E+03 0.  0.
        -24    2    5    5    0    0  0.11377513733E+02  0.69207731383E+02  0.64202316472E+03  0.65130797121E+03  0.84197217494E+02 0.  0.
          5    1    3    3  501    0 -0.45909920000E+02 -0.65273127687E+02 -0.17268096524E+03  0.19028690893E+03  0.47000000000E+01 0. -1.
        -13    1    4    4    0    0 -0.26494680810E+02  0.11457536095E+02 -0.19990339171E+02  0.35112062098E+02  0.00000000000E+00 0.  1.
         14    1    4    4    0    0 -0.51989900997E+01 -0.64964986225E+02  0.59011706564E+01  0.65439305836E+02  0.00000000000E+00 0. -1.
         -5    1    5    5    0  502  0.66226077178E+02  0.49572846433E+02  0.14035187983E+03  0.16298497039E+03  0.47000000000E+01 0.  1.
         13    1    6    6    0    0  0.26537741324E+02  0.83177640472E+02  0.46863688352E+03  0.47670043023E+03  0.00000000000E+00 0. -1.
        -14    1    6    6    0    0 -0.15160227591E+02 -0.13969909089E+02  0.17338628120E+03  0.17460754098E+03  0.00000000000E+00 0.  1.
</event>
<event>
12    1  0.8462562E-002  0.2139568E+03  0.7818608E-02  0.1139150E+00
         21   -1    0    0  503  502  0.00000000000E+00  0.00000000000E+00  0.46514924141E+03  0.46514924141E+03  0.00000000000E+00 0. -1.
         21   -1    0    0  501  503 -0.00000000000E+00 -0.00000000000E+00 -0.10821651154E+03  0.10821651154E+03  0.00000000000E+00 0. -1.
          6    2    1    2  501    0  0.39354804348E+02  0.11445635461E+03  0.86737346220E+02  0.23086986107E+03  0.17643261542E+03 0.  0.
         24    2    3    3    0    0  0.34227598965E+02  0.68627864955E+02 -0.21640450724E+02  0.11299545516E+03  0.80114614141E+02 0.  0.
         -6    2    1    2    0  502 -0.39354804348E+02 -0.11445635461E+03  0.27019538365E+03  0.34249589188E+03  0.17218836452E+03 0.  0.
        -24    2    5    5    0    0 -0.30583013411E+02 -0.12560282728E+03  0.11024254158E+03  0.18184661595E+03  0.64833500834E+02 0.  0.
          5    1    3    3  501    0  0.51272053834E+01  0.45828489655E+02  0.10837779694E+03  0.11787440591E+03  0.47000000000E+01 0. -1.
        -13    1    4    4    0    0  0.80984156397E+01 -0.52226917556E+01  0.21503293768E+02  0.23563796127E+02  0.00000000000E+00 0.  1.
         14    1    4    4    0    0  0.26129183325E+02  0.73850556711E+02 -0.43143744492E+02  0.89431659028E+02  0.00000000000E+00 0. -1.
         -5    1    5    5    0  502 -0.87717909376E+01  0.11146472670E+02  0.15995284207E+03  0.16064927593E+03  0.47000000000E+01 0.  1.
         13    1    6    6    0    0 -0.33098494134E+02 -0.28511792850E+02  0.54556184670E+02  0.69891415290E+02  0.00000000000E+00 0. -1.
        -14    1    6    6    0    0  0.25154807234E+01 -0.97091034431E+02  0.55686356905E+02  0.11195520066E+03  0.00000000000E+00 0.  1.
</event>
<event>
12    1  0.8462562E-002  0.1753915E+03  0.7818608E-02  0.1172772E+00
         21   -1    0    0  503  502  0.00000000000E+00  0.00000000000E+00  0.69733478515E+02  0.69733478515E+02  0.00000000000E+00 0.  1.
         21   -1    0    0  501  503 -0.00000000000E+00 -0.00000000000E+00 -0.44305498455E+03  0.44305498455E+03  0.00000000000E+00 0.  1.
          6    2    1    2  501    0  0.20634610928E+02  0.24818409172E+02 -0.21797985717E+03  0.27978095640E+03  0.17239612766E+03 0.  0.
         24    2    3    3    0    0 -0.47872525542E+02  0.27229022866E+02 -0.17589029611E+03  0.19920391280E+03  0.75575156110E+02 0.  0.
         -6    2    1    2    0  502 -0.20634610928E+02 -0.24818409172E+02 -0.15534164886E+03  0.23300750666E+03  0.17064504003E+03 0.  0.
        -24    2    5    5    0    0  0.31264469445E+02  0.36169858314E+02 -0.87066379311E+02  0.12766669906E+03  0.80202904818E+02 0.  0.
          5    1    3    3  501    0  0.68507136470E+02 -0.24106136933E+01 -0.42089561064E+02  0.80577043606E+02  0.47000000000E+01 0. -1.
        -13    1    4    4    0    0 -0.14320737781E+02  0.22369633548E+02 -0.15922901447E+03  0.16142912713E+03  0.00000000000E+00 0.  1.
         14    1    4    4    0    0 -0.33551787761E+02  0.48593893177E+01 -0.16661281632E+02  0.37774785666E+02  0.00000000000E+00 0. -1.
         -5    1    5    5    0  502 -0.51899080373E+02 -0.60988267486E+02 -0.68275269551E+02  0.10534080760E+03  0.47000000000E+01 0.  1.
         11    1    6    6    0    0  0.13130229903E+02  0.56764772500E+02 -0.80635607304E+02  0.99482377834E+02  0.00000000000E+00 0. -1.
        -12    1    6    6    0    0  0.18134239542E+02 -0.20594914186E+02 -0.64307720074E+01  0.28184321222E+02  0.00000000000E+00 0.  1.
</event>
<event>
12    1  0.8462562E-002  0.1837912E+03  0.7818608E-02  0.1164237E+00
         21   -1    0    0  501  502  0.00000000000E+00  0.00000000000E+00  0.15884342157E+04  0.15884342157E+04  0.00000000000E+00 0. -1.
         21   -1    0    0  502  503 -0.00000000000E+00 -0.00000000000E+00 -0.43967862829E+02  0.43967862829E+02  0.00000000000E+00 0. -1.
         -6    2    1    2    0  503 -0.38729780776E+02  0.52305637132E+02  0.18563251637E+03  0.26122528674E+03  0.17188177246E+03 0.  0.
        -24    2    3    3    0    0 -0.83704946853E+01 -0.35290882805E+02  0.78620239500E+02  0.11956176300E+03  0.82452177185E+02 0.  0.
          6    2    1    2  501    0  0.38729780776E+02 -0.52305637132E+02  0.13588338365E+04  0.13711767918E+04  0.17164068144E+03 0.  0.
         24    2    5    5    0    0  0.54044161528E+02 -0.18400538258E+02  0.40532149649E+03  0.41692737023E+03  0.79268943026E+02 0.  0.
          5    1    5    5  501    0 -0.15314380752E+02 -0.33905098873E+02  0.95351234000E+03  0.95424942155E+03  0.47000000000E+01 0. -1.
        -13    1    6    6    0    0  0.38830578153E+02 -0.41247329165E+02  0.35602896332E+03  0.36050766800E+03  0.00000000000E+00 0.  1.
         14    1    6    6    0    0  0.15213583375E+02  0.22846790906E+02  0.49292533168E+02  0.56419702232E+02  0.00000000000E+00 0. -1.
         -5    1    3    3    0  503 -0.30359286090E+02  0.87596519937E+02  0.10701227687E+03  0.14166352374E+03  0.47000000000E+01 0.  1.
         11    1    4    4    0    0  0.31772244088E+02  0.45486948891E+01  0.18613057104E+02  0.37102722465E+02  0.00000000000E+00 0. -1.
        -12    1    4    4    0    0 -0.40142738773E+02 -0.39839577694E+02  0.60007182396E+02  0.82459040536E+02  0.00000000000E+00 0.  1.
</event>
<event>
12    1  0.8462562E-002  0.2619276E+03  0.7818608E-02  0.1106008E+00
         21   -1    0    0  503  502  0.00000000000E+00  0.00000000000E+00  0.20056846524E+02  0.20056846524E+02  0.00000000000E+00 0.  1.
         21   -1    0    0  501  503 -0.00000000000E+00 -0.00000000000E+00 -0.36304764859E+04  0.36304764859E+04  0.00000000000E+00 0.  1.
          6    2    1    2  501    0  0.71045558003E+02  0.18319002304E+03 -0.13651227588E+04  0.13900238237E+04  0.17320516173E+03 0.  0.
         24    2    3    3    0    0  0.53556322213E+02  0.44432213805E+02 -0.35840627864E+03  0.37362834733E+03  0.79376193455E+02 0.  0.
         -6    2    1    2    0  502 -0.71045558003E+02 -0.18319002304E+03 -0.22452968807E+04  0.22605095088E+04  0.17302919172E+03 0.  0.
        -24    2    5    5    0    0 -0.91205479941E+02 -0.12993693204E+03 -0.11397241931E+04  0.11534614649E+04  0.79372971731E+02 0.  0.
          5    1    3    3  501    0  0.17489235790E+02  0.13875780923E+03 -0.10067164801E+04  0.10163954763E+04  0.47000000000E+01 0. -1.
        -11    1    4    4    0    0  0.60209132467E+02  0.21238460052E+02 -0.33105431299E+03  0.33715451942E+03  0.00000000000E+00 0.  1.
         12    1    4    4    0    0 -0.66528102537E+01  0.23193753753E+02 -0.27351965658E+02  0.36473827915E+02  0.00000000000E+00 0. -1.
         -5    1    5    5    0  502  0.20159921938E+02 -0.53253091003E+02 -0.11055726875E+04  0.11070480439E+04  0.47000000000E+01 0.  1.
         13    1    6    6    0    0  0.97032898247E+01 -0.13106931821E+01 -0.25639896732E+02  0.27445874999E+02  0.00000000000E+00 0. -1.
        -14    1    6    6    0    0 -0.10090876977E+03 -0.12862623885E+03 -0.11140842964E+04  0.11260155899E+04  0.00000000000E+00 0.  1.
</event>
<event>
12    1  0.8462562E-002  0.1859106E+03  0.7818608E-02  0.1162624E+00
         21   -1    0    0  501  502  0.00000000000E+00  0.00000000000E+00  0.61230547116E+02  0.61230547116E+02  0.00000000000E+00 0. -1.
         21   -1    0    0  502  503 -0.00000000000E+00 -0.00000000000E+00 -0.79859797471E+03  0.79859797471E+03  0.00000000000E+00 0. -1.
         -6    2    1    2    0  503 -0.63418171751E+02  0.63092588882E+01 -0.60543483938E+03  0.63333569772E+03  0.17464561267E+03 0.  0.
        -24    2    3    3    0    0 -0.96162340464E+02  0.34905594156E+02 -0.34935387742E+03  0.37354832303E+03  0.83813016538E+02 0.  0.
          6    2    1    2  501    0  0.63418171751E+02 -0.63092588882E+01 -0.13193258821E+03  0.22649282410E+03  0.17271687896E+03 0.  0.
         24    2    5    5    0    0 -0.30300002376E+02  0.18023272582E+02 -0.78052369664E+02  0.11558594333E+03  0.77620933954E+02 0.  0.
          5    1    5    5  501    0  0.93718174127E+02 -0.24332531471E+02 -0.53880218549E+02  0.11090688076E+03  0.47000000000E+01 0. -1.
        -13    1    6    6    0    0 -0.51477289200E+02  0.18977302426E+02 -0.28796490924E+02  0.61961981894E+02  0.00000000000E+00 0.  1.
         14    1    6    6    0    0  0.21177286824E+02 -0.95402984330E+00 -0.49255878740E+02  0.53623961441E+02  0.00000000000E+00 0. -1.
         -5    1    3    3    0  503  0.32744168713E+02 -0.28596335268E+02 -0.25608096196E+03  0.25978737470E+03  0.47000000000E+01 0.  1.
         11    1    4    4    0    0 -0.10498856934E+03  0.35530844106E+02 -0.34717081422E+03  0.36443465096E+03  0.00000000000E+00 0. -1.
        -12    1    4    4    0    0  0.88262288720E+01 -0.62524994952E+00 -0.21830631987E+01  0.91136720662E+01  0.00000000000E+00 0.  1.
</event>
<event>
12    1  0.8462562E-002  0.2064908E+03  0.7818608E-02  0.1145704E+00
         21   -1    0    0  501  502  0.00000000000E+00  0.00000000000E+00  0.10095951824E+03  0.10095951824E+03  0.00000000000E+00 0. -1.
         21   -1    0    0  502  503 -0.00000000000E+00 -0.00000000000E+00 -0.48038043576E+03  0.48038043576E+03  0.00000000000E+00 0.  1.
         -6    2    1    2    0  503 -0.11059954374E+03  0.27560592483E+02 -0.30412879504E+03  0.36760410052E+03  0.17218189629E+03 0.  0.
        -24    2    3    3    0    0 -0.66854169924E+01 -0.31777359402E+02 -0.16339535730E+03  0.18281468315E+03  0.75290571909E+02 0.  0.
          6    2    1    2  501    0  0.11059954374E+03 -0.27560592483E+02 -0.75292122483E+02  0.21373585348E+03  0.16438450664E+03 0.  0.
         24    2    5    5    0    0  0.53947495925E+02  0.32749414651E+02 -0.79765704242E+02  0.13073673051E+03  0.82138107194E+02 0.  0.
          5    1    5    5  501    0  0.56652047811E+02 -0.60310007134E+02  0.44735817587E+01  0.82999122979E+02  0.47000000000E+01 0. -1.
        -13    1    6    6    0    0  0.54191493976E+02  0.46878026878E+02 -0.27756361581E+02  0.76841935371E+02  0.00000000000E+00 0.  1.
         14    1    6    6    0    0 -0.24399805158E+00 -0.14128612227E+02 -0.52009342661E+02  0.53894795134E+02  0.00000000000E+00 0. -1.
         -5    1    3    3    0  503 -0.10391412674E+03  0.59337951885E+02 -0.14073343774E+03  0.18478941736E+03  0.47000000000E+01 0.  1.
         13    1    4    4    0    0  0.13813582436E+02  0.15229153175E+02 -0.95725343668E+02  0.97908547055E+02  0.00000000000E+00 0. -1.
        -14    1    4    4    0    0 -0.20498999428E+02 -0.47006512577E+02 -0.67670013634E+02  0.84906136099E+02  0.00000000000E+00 0.  1.
</event>
<event>
12    1  0.8462562E-002  0.3278496E+03  0.7818608E-02  0.1072629E+00
         21   -1    0    0  503  502  0.00000000000E+00  0.00000000000E+00  0.20511528688E+03  0.20511528688E+03  0.00000000000E+00 0. -1.
         21   -1    0    0  501  503 -0.00000000000E+00 -0.00000000000E+00 -0.55364480354E+03  0.55364480354E+03  0.00000000000E+00 0.  1.
          6    2    1    2  501    0 -0.23959458620E+03 -0.14078571570E+03 -0.77086352856E+02  0.33679028442E+03  0.17395173585E+03 0.  0.
         24    2    3    3    0    0 -0.18139634096E+03 -0.26655288957E+02 -0.46651061537E+02  0.20502842722E+03  0.79026561870E+02 0.  0.
         -6    2    1    2    0  502  0.23959458620E+03  0.14078571570E+03 -0.27144316380E+03  0.42196980600E+03  0.16477543058E+03 0.  0.
        -24    2    5    5    0    0  0.22273814696E+03  0.69652636941E+02 -0.23315730475E+03  0.33931418647E+03  0.79423022079E+02 0.  0.
          5    1    3    3  501    0 -0.58198245234E+02 -0.11413042674E+03 -0.30435291319E+02  0.13176185720E+03  0.47000000000E+01 0. -1.
        -13    1    4    4    0    0 -0.22854750035E+02  0.19893781783E+02  0.73778042471E+01  0.31185479767E+02  0.00000000000E+00 0.  1.
         14    1    4    4    0    0 -0.15854159093E+03 -0.46549070740E+02 -0.54028865784E+02  0.17384294745E+03  0.00000000000E+00 0. -1.
         -5    1    5    5    0  502  0.16856439239E+02  0.71133078756E+02 -0.38285859053E+02  0.82655619534E+02  0.47000000000E+01 0.  1.
         13    1    6    6    0    0  0.11264280506E+02  0.16745278506E+02 -0.79508341077E-01  0.20181543279E+02  0.00000000000E+00 0. -1.
        -14    1    6    6    0    0  0.21147386645E+03  0.52907358435E+02 -0.23307779641E+03  0.31913264319E+03  0.00000000000E+00 0.  1.
</event>
<event>
12    1  0.8462562E-002  0.1939903E+03  0.7818608E-02  0.1154936E+00
         21   -1    0    0  501  502  0.00000000000E+00  0.00000000000E+00  0.11903956559E+03  0.11903956559E+03  0.00000000000E+00 0. -1.
         21   -1    0    0  502  503 -0.00000000000E+00 -0.00000000000E+00 -0.91445013485E+03  0.91445013485E+03  0.00000000000E+00 0. -1.
         -6    2    1    2    0  503  0.46542667187E+02 -0.78645535469E+02 -0.81579833632E+03  0.83854585945E+03  0.17111660566E+03 0.  0.
        -24    2    3    3    0    0  0.20753691599E+02 -0.16884801366E+02 -0.16308868065E+03  0.18239690979E+03  0.77168016109E+02 0.  0.
          6    2    1    2  501    0 -0.46542667187E+02  0.78645535469E+02  0.20387767067E+02  0.19494384099E+03  0.17098567185E+03 0.  0.
         24    2    5    5    0    0 -0.49253221466E+02  0.41843502745E+02 -0.51272278542E+02  0.11420358552E+03  0.78973754194E+02 0.  0.
          5    1    5    5  501    0  0.27105542792E+01  0.36802032724E+02  0.71660045609E+02  0.80740255473E+02  0.47000000000E+01 0. -1.
        -13    1    6    6    0    0  0.19549987143E+02  0.23653723310E+02 -0.18707590045E+02  0.35939874082E+02  0.00000000000E+00 0.  1.
         14    1    6    6    0    0 -0.68803208610E+02  0.18189779435E+02 -0.32564688497E+02  0.78263711436E+02  0.00000000000E+00 0. -1.
         -5    1    3    3    0  503  0.25788975588E+02 -0.61760734103E+02 -0.65270965567E+03  0.65614894966E+03  0.47000000000E+01 0.  1.
         11    1    4    4    0    0  0.18900168355E+02  0.16225812191E+02 -0.13948579344E+03  0.14169255421E+03  0.00000000000E+00 0. -1.
        -12    1    4    4    0    0  0.18535232441E+01 -0.33110613557E+02 -0.23602887212E+02  0.40704355581E+02  0.00000000000E+00 0.  1.
</event>
<event>
12    1  0.8462562E-002  0.2045825E+03  0.7818608E-02  0.1145932E+00
         21   -1    0    0  503  502  0.00000000000E+00  0.00000000000E+00  0.25535089303E+03  0.25535089303E+03  0.00000000000E+00 0.  1.
         21   -1    0    0  501  503 -0.00000000000E+00 -0.00000000000E+00 -0.18443664727E+03  0.18443664727E+03  0.00000000000E+00 0. -1.
          6    2    1    2  501    0 -0.11046815794E+03 -0.67599692253E+01 -0.37924390156E+02  0.20805529394E+03  0.17204602543E+03 0.  0.
         24    2    3    3    0    0 -0.36562837919E+02 -0.19829666261E+02 -0.81878928845E+02  0.12095245370E+03  0.78710102820E+02 0.  0.
         -6    2    1    2    0  502  0.11046815794E+03  0.67599692253E+01  0.10883863592E+03  0.23173224635E+03  0.17206125139E+03 0.  0.
        -24    2    5    5    0    0  0.49372552761E+02  0.11363406510E+02 -0.12206581176E+02  0.95982847875E+02  0.80603538933E+02 0.  0.
          5    1    3    3  501    0 -0.73905320019E+02  0.13069697035E+02  0.43954538689E+02  0.87102840247E+02  0.47000000000E+01 0. -1.
        -13    1    4    4    0    0 -0.39528376545E+02 -0.43399532352E+02 -0.76790125732E+02  0.96657826225E+02  0.00000000000E+00 0.  1.
         14    1    4    4    0    0  0.29655386259E+01  0.23569866091E+02 -0.50888031131E+01  0.24294627472E+02  0.00000000000E+00 0. -1.
         -5    1    5    5    0  502  0.61095605176E+02 -0.46034372844E+01  0.12104521709E+03  0.13574939848E+03  0.47000000000E+01 0.  1.
         11    1    6    6    0    0  0.55125060825E+02 -0.23366317047E+02 -0.52822816348E+01  0.60105404104E+02  0.00000000000E+00 0. -1.
        -12    1    6    6    0    0 -0.57525080634E+01  0.34729723557E+02 -0.69242995412E+01  0.35877443770E+02  0.00000000000E+00 0.  1.
</event>
<event>
12    1  0.8462562E-002  0.2295912E+03  0.7818608E-02  0.1128052E+00
         21   -1    0    0  503  502  0.00000000000E+00  0.00000000000E+00  0.12974973126E+03  0.12974973126E+03  0.00000000000E+00 0. -1.
         21   -1    0    0  501  503 -0.00000000000E+00 -0.00000000000E+00 -0.45444494104E+03  0.45444494104E+03  0.00000000000E+00 0. -1.
          6    2    1    2  501    0 -0.10593623799E+03  0.10923659114E+03 -0.26582601547E+03  0.34717629711E+03  0.16344048277E+03 0.  0.
         24    2    3    3    0    0 -0.80414860139E+02  0.77958471761E+02 -0.27269904502E+03  0.30595749055E+03  0.81860514408E+02 0.  0.
         -6    2    1    2    0  502  0.10593623799E+03 -0.10923659114E+03 -0.58869194307E+02  0.23701837519E+03  0.17192151923E+03 0.  0.
        -24    2    5    5    0    0  0.11065505820E+03 -0.13955413336E+03 -0.35536793654E+02  0.19818653837E+03  0.79341932454E+02 0.  0.
          5    1    3    3  501    0 -0.25521377853E+02  0.31278119374E+02  0.68730295437E+01  0.41218806560E+02  0.47000000000E+01 0. -1.
        -13    1    4    4    0    0  0.68409579795E+01  0.30878404190E+02 -0.29193689325E+02  0.43041213364E+02  0.00000000000E+00 0.  1.
         14    1    4    4    0    0 -0.87255818119E+02  0.47080067571E+02 -0.24350535569E+03  0.26291627718E+03  0.00000000000E+00 0. -1.
         -5    1    5    5    0  502 -0.47188202057E+01  0.30317542222E+02 -0.23332400654E+02  0.38831836820E+02  0.47000000000E+01 0.  1.
         11    1    6    6    0    0  0.53689557909E+02 -0.14072888032E+02 -0.22045903864E+02  0.59721325197E+02  0.00000000000E+00 0. -1.
        -12    1    6    6    0    0  0.56965500289E+02 -0.12548124533E+03 -0.13490889789E+02  0.13846521317E+03  0.00000000000E+00 0.  1.
</event>
<event>
12    1  0.8462562E-002  0.2335213E+03  0.7818608E-02  0.1124749E+00
         21   -1    0    0  503  502  0.00000000000E+00  0.00000000000E+00  0.94592714172E+02  0.94592714172E+02  0.00000000000E+00 0. -1.
         21   -1    0    0  501  503 -0.00000000000E+00 -0.00000000000E+00 -0.68460685493E+03  0.68460685493E+03  0.00000000000E+00 0. -1.
          6    2    1    2  501    0  0.50909304396E+02 -0.14795296135E+03 -0.45714833851E+03  0.51333886491E+03  0.17335036998E+03 0.  0.
         24    2    3    3    0    0 -0.65318820433E+01 -0.91376973855E+02 -0.39027186419E+03  0.40848236736E+03  0.78442970556E+02 0.  0.
         -6    2    1    2    0  502 -0.50909304396E+02  0.14795296135E+03 -0.13286580225E+03  0.26586070420E+03  0.16895785446E+03 0.  0.
        -24    2    5    5    0    0 -0.15403059488E+02  0.16558018412E+03 -0.13143238977E+03  0.22591627929E+03  0.78164189718E+02 0.  0.
          5    1    3    3  501    0  0.57441186439E+02 -0.56575987492E+02 -0.66876474322E+02  0.10485649755E+03  0.47000000000E+01 0. -1.
        -11    1    4    4    0    0  0.23456962152E+02 -0.86696729611E+02 -0.30615361355E+03  0.31905577426E+03  0.00000000000E+00 0.  1.
         12    1    4    4    0    0 -0.29988844195E+02 -0.46802442444E+01 -0.84118250637E+02  0.89426593095E+02  0.00000000000E+00 0. -1.
         -5    1    5    5    0  502 -0.35506244907E+02 -0.17627222769E+02 -0.14334124773E+01  0.39944424908E+02  0.47000000000E+01 0.  1.
         11    1    6    6    0    0 -0.71431671903E+01  0.19644212792E+02  0.94191940498E+01  0.22926865252E+02  0.00000000000E+00 0. -1.
        -12    1    6    6    0    0 -0.82598922982E+01  0.14593597132E+03 -0.14085158382E+03  0.20298941404E+03  0.00000000000E+00 0.  1.
</event>
<event>
12    1  0.8462562E-002  0.2071541E+03  0.7818608E-02  0.1144160E+00
         21   -1    0    0  503  502  0.00000000000E+00  0.00000000000E+00  0.13337613833E+03  0.13337613833E+03  0.00000000000E+00 0.  1.
         21   -1    0    0  501  503 -0.00000000000E+00 -0.00000000000E+00 -0.40511791744E+03  0.40511791744E+03  0.00000000000E+00 0. -1.
          6    2    1    2  501    0  0.96800598385E+02 -0.63779287208E+02 -0.26021132635E+03  0.33259998000E+03  0.17168185405E+03 0.  0.
         24    2    3    3    0    0  0.59594875230E+02  0.24916723903E+02 -0.85257450894E+02  0.13289470526E+03  0.78865565797E+02 0.  0.
         -6    2    1    2    0  502 -0.96800598385E+02  0.63779287208E+02 -0.11530452759E+02  0.20589407576E+03  0.16976827080E+03 0.  0.
        -24    2    5    5    0    0 -0.10187151675E+03  0.59233751808E+02 -0.62141555292E+02  0.15461103954E+03  0.78463732861E+02 0.  0.
          5    1    3    3  501    0  0.37205723155E+02 -0.88696011111E+02 -0.17495387546E+03  0.19970527474E+03  0.47000000000E+01 0. -1.
        -11    1    4    4    0    0  0.11106381103E+02 -0.26966309012E+02 -0.14208109960E+02  0.32440775446E+02  0.00000000000E+00 0.  1.
         12    1    4    4    0    0  0.48488494127E+02  0.51883032915E+02 -0.71049340934E+02  0.10045392981E+03  0.00000000000E+00 0. -1.
         -5    1    5    5    0  502  0.50709183636E+01  0.45455353996E+01  0.50611102533E+02  0.51283036228E+02  0.47000000000E+01 0.  1.
         11    1    6    6    0    0 -0.49661803670E+02  0.19936940052E+02 -0.70740527351E+02  0.88701739172E+02  0.00000000000E+00 0. -1.
        -12    1    6    6    0    0 -0.52209713079E+02  0.39296811757E+02  0.85989720588E+01  0.65909300365E+02  0.00000000000E+00 0.  1.
</event>
<event>
12    1  0.8462562E-002  0.2329588E+03  0.7818608E-02  0.1124593E+00
         21   -1    0    0  501  502  0.00000000000E+00  0.00000000000E+00  0.67238950787E+02  0.67238950787E+02  0.00000000000E+00 0. -1.
         21   -1    0    0  502  503 -0.00000000000E+00 -0.00000000000E+00 -0.82228501397E+03  0.82228501397E+03  0.00000000000E+00 0. -1.
         -6    2    1    2    0  503 -0.51516704814E+02 -0.14776901393E+03 -0.31631561289E+03  0.39278034930E+03  0.17242732813E+03 0.  0.
        -24    2    3    3    0    0 -0.67570617422E+02 -0.17200547083E+03 -0.25353842796E+03  0.32343917177E+03  0.78609751625E+02 0.  0.
          6    2    1    2  501    0  0.51516704814E+02  0.14776901393E+03 -0.43873045029E+03  0.49674361545E+03  0.17256928791E+03 0.  0.
         24    2    5    5    0    0  0.78048586472E+02  0.10736385406E+03 -0.20038884371E+03  0.25350437290E+03  0.80561773752E+02 0.  0.
          5    1    5    5  501    0 -0.26531881657E+02  0.40405159878E+02 -0.23834160658E+03  0.24323924255E+03  0.47000000000E+01 0. -1.
        -11    1    6    6    0    0  0.12890295582E+00  0.63196027419E+02 -0.61097773220E+02  0.87901606299E+02  0.00000000000E+00 0.  1.
         12    1    6    6    0    0  0.77919683516E+02  0.44167826637E+02 -0.13929107049E+03  0.16560276660E+03  0.00000000000E+00 0. -1.
         -5    1    3    3    0  503  0.16053912607E+02  0.24236456898E+02 -0.62777184933E+02  0.69341177529E+02  0.47000000000E+01 0.  1.
         11    1    4    4    0    0 -0.83458943902E+01 -0.34522904748E+02 -0.11172716892E+03  0.11723670577E+03  0.00000000000E+00 0. -1.
        -12    1    4    4    0    0 -0.59224723031E+02 -0.13748256608E+03 -0.14181125904E+03  0.20620246601E+03  0.00000000000E+00 0.  1.
</event>
<event>
12    1  0.8462562E-002  0.1814104E+03  0.7818608E-02  0.1166994E+00
         21   -1    0    0  503  502  0.00000000000E+00  0.00000000000E+00  0.16177241106E+03  0.16177241106E+03  0.00000000000E+00 0. -1.
         21   -1    0    0  501  503 -0.00000000000E+00 -0.00000000000E+00 -0.23747920614E+03  0.23747920614E+03  0.00000000000E+00 0. -1.
          6    2    1    2  501    0 -0.15020311638E+02  0.54266046789E+02  0.40709138124E+02  0.18370022269E+03  0.17005329839E+03 0.  0.
         24    2    3    3    0    0 -0.19621994811E+02  0.78413818131E+02 -0.22261372809E+02  0.11593839275E+03  0.80077416546E+02 0.  0.
         -6    2    1    2    0  502  0.15020311638E+02 -0.54266046789E+02 -0.11641593320E+03  0.21555139452E+03  0.17245092223E+03 0.  0.
        -24    2    5    5    0    0  0.49984745508E+02  0.40909619273E+01 -0.11397803745E+03  0.14731588003E+03  0.78713180180E+02 0.  0.
          5    1    3    3  501    0  0.46016831733E+01 -0.24147771342E+02  0.62970510933E+02  0.67761829934E+02  0.47000000000E+01 0. -1.
        -13    1    4    4    0    0 -0.37726458497E+02  0.28136532280E+02 -0.37715567333E+02  0.60310978592E+02  0.00000000000E+00 0.  1.
         14    1    4    4    0    0  0.18104463686E+02  0.50277285852E+02  0.15454194524E+02  0.55627414162E+02  0.00000000000E+00 0. -1.
         -5    1    5    5    0  502 -0.34964433870E+02 -0.58357008716E+02 -0.24378957517E+01  0.68235514491E+02  0.47000000000E+01 0.  1.
         11    1    6    6    0    0 -0.14273106369E+02  0.19414049178E+02 -0.49257792606E+02  0.54835727435E+02  0.00000000000E+00 0. -1.
        -12    1    6    6    0    0  0.64257851877E+02 -0.15323087250E+02 -0.64720244845E+02  0.92480152592E+02  0.00000000000E+00 0.  1.
</event>
<event>
12    1  0.8462562E-002  0.2919197E+03  0.7818608E-02  0.1089354E+00
         21   -1    0    0  501  502  0.00000000000E+00  0.00000000000E+00  0.32101800537E+03  0.32101800537E+03  0.00000000000E+00 0. -1.
         21   -1    0    0  502  503 -0.00000000000E+00 -0.00000000000E+00 -0.43365299236E+03  0.43365299236E+03  0.00000000000E+00 0.  1.
         -6    2    1    2    0  503  0.23571166211E+03 -0.43999395216E+01 -0.29132789095E+03  0.41240174492E+03  0.17211598426E+03 0.  0.
        -24    2    3    3    0    0  0.14905732105E+03 -0.70826860853E+02 -0.19947428519E+03  0.26964080630E+03  0.75376686009E+02 0.  0.
          6    2    1    2  501    0 -0.23571166211E+03  0.43999395216E+01  0.17869290397E+03  0.34226925281E+03  0.17215615113E+03 0.  0.
         24    2    5    5    0    0 -0.75180520050E+02  0.58215922712E+02  0.92583796895E+02  0.15226063212E+03  0.74634686260E+02 0.  0.
          5    1    5    5  501    0 -0.16053114206E+03 -0.53815983191E+02  0.86109107071E+02  0.19000862070E+03  0.47000000000E+01 0. -1.
        -13    1    6    6    0    0 -0.15559685839E+02 -0.12116857427E+02  0.43602790766E+02  0.47855254882E+02  0.00000000000E+00 0.  1.
         14    1    6    6    0    0 -0.59620834211E+02  0.70332780139E+02  0.48981006130E+02  0.10440537724E+03  0.00000000000E+00 0. -1.
         -5    1    3    3    0  503  0.86654341062E+02  0.66426921332E+02 -0.91853605763E+02  0.14276093861E+03  0.47000000000E+01 0.  1.
         13    1    4    4    0    0  0.52652321696E+02 -0.25660464725E+02 -0.21770729621E+02  0.62487527540E+02  0.00000000000E+00 0. -1.
        -14    1    4    4    0    0  0.96404999355E+02 -0.45166396128E+02 -0.17770355557E+03  0.20715327876E+03  0.00000000000E+00 0.  1.
</event>
<event>
12    1  0.8462562E-002  0.2552159E+03  0.7818608E-02  0.1110057E+00
         21   -1    0    0  503  502  0.00000000000E+00  0.00000000000E+00  0.72162382725E+02  0.72162382725E+02  0.00000000000E+00 0. -1.
         21   -1    0    0  501  503 -0.00000000000E+00 -0.00000000000E+00 -0.13731809878E+04  0.13731809878E+04  0.00000000000E+00 0. -1.
          6    2    1    2  501    0  0.18741095746E+03 -0.19442864559E+02 -0.10736255071E+04  0.11035428773E+04  0.17214604445E+03 0.  0.
         24    2    3    3    0    0  0.21241902149E+02 -0.34726275827E+01 -0.45523022543E+03  0.46299466070E+03  0.81646923680E+02 0.  0.
         -6    2    1    2    0  502 -0.18741095746E+03  0.19442864559E+02 -0.22739309798E+03  0.34180049321E+03  0.17210190061E+03 0.  0.
        -24    2    5    5    0    0 -0.20048755739E+03  0.46155395847E+02 -0.21826258104E+03  0.31033601907E+03  0.79651172097E+02 0.  0.
          5    1    3    3  501    0  0.16616905531E+03 -0.15970236976E+02 -0.61839528163E+03  0.64054821657E+03  0.47000000000E+01 0. -1.
        -11    1    4    4    0    0 -0.29750804655E+02 -0.13143899278E+02 -0.17197699255E+03  0.17502559365E+03  0.00000000000E+00 0.  1.
         12    1    4    4    0    0  0.50992706804E+02  0.96712716948E+01 -0.28325323288E+03  0.28796906705E+03  0.00000000000E+00 0. -1.
         -5    1    5    5    0  502  0.13076599929E+02 -0.26712531288E+02 -0.91305169377E+01  0.31464474143E+02  0.47000000000E+01 0.  1.
         13    1    6    6    0    0 -0.61305637980E+02  0.38032405623E+02 -0.11910777558E+03  0.13925339252E+03  0.00000000000E+00 0. -1.
        -14    1    6    6    0    0 -0.13918191941E+03  0.81229902241E+01 -0.99154805460E+02  0.17108262654E+03  0.00000000000E+00 0.  1.
</event>
<event>
12    1  0.8462562E-002  0.2012028E+03  0.7818608E-02  0.1148766E+00
         21   -1    0    0  501  502  0.00000000000E+00  0.00000000000E+00  0.24284179885E+03  0.24284179885E+03  0.00000000000E+00 0. -1.
         21   -1    0    0  502  503 -0.00000000000E+00 -0.00000000000E+00 -0.55997051178E+03  0.55997051178E+03  0.00000000000E+00 0.  1.
         -6    2    1    2    0  503  0.93520097397E+02 -0.48827521822E+02 -0.49504150436E+03  0.53436751440E+03  0.17132546192E+03 0.  0.
        -24    2    3    3    0    0  0.80546392825E+02 -0.35735200134E+02 -0.15657313443E+03  0.19536507586E+03  0.76730961889E+02 0.  0.
          6    2    1    2  501    0 -0.93520097397E+02  0.48827521822E+02  0.17791279143E+03  0.26844479623E+03  0.17111257045E+03 0.  0.
         24    2    5    5    0    0 -0.85253313661E+02  0.35163081878E+01  0.41081710200E+02  0.12399314139E+03  0.80038117708E+02 0.  0.
          5    1    5    5  501    0 -0.82667837361E+01  0.45311213635E+02  0.13683108123E+03  0.14445165484E+03  0.47000000000E+01 0. -1.
        -11    1    6    6    0    0 -0.93741167688E+02  0.18850874632E+02  0.45539098090E+02  0.10590831624E+03  0.00000000000E+00 0.  1.
         12    1    6    6    0    0  0.84878540270E+01 -0.15334566445E+02 -0.44573878905E+01  0.18084825154E+02  0.00000000000E+00 0. -1.
         -5    1    3    3    0  503  0.12973704572E+02 -0.13092321688E+02 -0.33846836993E+03  0.33900243855E+03  0.47000000000E+01 0.  1.
         13    1    4    4    0    0  0.14171062841E+02  0.23660064395E+02 -0.41939134330E+02  0.50194707466E+02  0.00000000000E+00 0. -1.
        -14    1    4    4    0    0  0.66375329985E+02 -0.59395264530E+02 -0.11463400010E+03  0.14517036839E+03  0.00000000000E+00 0.  1.
</event>
<event>
12    1  0.8462562E-002  0.1751966E+03  0.7818608E-02  0.1172938E+00
         21   -1    0    0  501  502  0.00000000000E+00  0.00000000000E+00  0.69254361926E+02  0.69254361926E+02  0.00000000000E+00 0.  1.
         21   -1    0    0  502  503 -0.00000000000E+00 -0.00000000000E+00 -0.50421224652E+03  0.50421224652E+03  0.00000000000E+00 0.  1.
         -6    2    1    2    0  503 -0.12377379302E+02  0.31354876083E+02 -0.31960137325E+03  0.36370249392E+03  0.17028839809E+03 0.  0.
        -24    2    3    3    0    0  0.38579519745E+02 -0.28850901310E+02 -0.18089161336E+03  0.20406594209E+03  0.81242717115E+02 0.  0.
          6    2    1    2  501    0  0.12377379302E+02 -0.31354876083E+02 -0.11535651134E+03  0.20976411453E+03  0.17192303878E+03 0.  0.
         24    2    5    5    0    0  0.52832070698E+02  0.29822952263E+02 -0.45424968637E+02  0.10831550980E+03  0.77383368440E+02 0.  0.
          5    1    5    5  501    0 -0.40454691396E+02 -0.61177828345E+02 -0.69931542706E+02  0.10144860473E+03  0.47000000000E+01 0. -1.
        -13    1    6    6    0    0  0.62155390532E+02  0.13971945666E+02 -0.57905749886E+02  0.86090555277E+02  0.00000000000E+00 0.  1.
         14    1    6    6    0    0 -0.93233198345E+01  0.15851006597E+02  0.12480781249E+02  0.22224954521E+02  0.00000000000E+00 0. -1.
         -5    1    3    3    0  503 -0.50956899048E+02  0.60205777392E+02 -0.13870975989E+03  0.15963655183E+03  0.47000000000E+01 0.  1.
         13    1    4    4    0    0 -0.15099029744E+01 -0.49300529807E+02 -0.89351076889E+02  0.10206094742E+03  0.00000000000E+00 0. -1.
        -14    1    4    4    0    0  0.40089422720E+02  0.20449628497E+02 -0.91540536473E+02  0.10200499467E+03  0.00000000000E+00 0.  1.
</event>
<event>
12    1  0.8462562E-002  0.1856464E+03  0.7818608E-02  0.1162526E+00
         21   -1    0    0  503  502  0.00000000000E+00  0.00000000000E+00  0.56406798979E+02  0.56406798979E+02  0.00000000000E+00 0. -1.
         21   -1    0    0  501  503 -0.00000000000E+00 -0.00000000000E+00 -0.11209062810E+04  0.11209062810E+04  0.00000000000E+00 0. -1.
          6    2    1    2  501    0  0.26236456429E+01  0.69560508154E+02 -0.92997004661E+03  0.94831897394E+03  0.17210183303E+03 0.  0.
         24    2    3    3    0    0 -0.24349022497E+02  0.79163213599E+02 -0.36479929166E+03  0.38240395467E+03  0.79338339228E+02 0.  0.
         -6    2    1    2    0  502 -0.26236456429E+01 -0.69560508154E+02 -0.13452943544E+03  0.22899410607E+03  0.17173987249E+03 0.  0.
        -24    2    5    5    0    0  0.63366347933E+02 -0.27301755183E+02 -0.59764035214E+02  0.12058545085E+03  0.78793598506E+02 0.  0.
          5    1    3    3  501    0  0.26972668139E+02 -0.96027054454E+01 -0.56517075496E+03  0.56591501927E+03  0.47000000000E+01 0. -1.
        -11    1    4    4    0    0 -0.34136008299E+02  0.76742128907E+00 -0.83249023699E+02  0.89979197290E+02  0.00000000000E+00 0.  1.
         12    1    4    4    0    0  0.97869858023E+01  0.78395792310E+02 -0.28155026796E+03  0.29242475738E+03  0.00000000000E+00 0. -1.
         -5    1    5    5    0  502 -0.65989993576E+02 -0.42258752971E+02 -0.74765400225E+02  0.10840865522E+03  0.47000000000E+01 0.  1.
         13    1    6    6    0    0  0.30112151767E+02 -0.44817721124E+02 -0.62868396292E+02  0.82872221299E+02  0.00000000000E+00 0. -1.
        -14    1    6    6    0    0  0.33254196167E+02  0.17515965941E+02  0.31043610781E+01  0.37713229552E+02  0.00000000000E+00 0.  1.
</event>
<event>
12    1  0.8462562E-002  0.1856263E+03  0.7818608E-02  0.1162969E+00
         21   -1    0    0  501  502  0.00000000000E+00  0.00000000000E+00  0.47638831406E+03  0.47638831406E+03  0.00000000000E+00 0. -1.
         21   -1    0    0  502  503 -0.00000000000E+00 -0.00000000000E+00 -0.71518707249E+02  0.71518707249E+02  0.00000000000E+00 0. -1.
         -6    2    1    2    0  503  0.63467541262E+02  0.35222854581E+02  0.20863908108E+03  0.27926219268E+03  0.17084591839E+03 0.  0.
        -24    2    3    3    0    0  0.68080956939E+02  0.63832029630E+02  0.21665095359E+03  0.24883114600E+03  0.79181808668E+02 0.  0.
          6    2    1    2  501    0 -0.63467541262E+02 -0.35222854581E+02  0.19623052574E+03  0.26864482863E+03  0.16850770439E+03 0.  0.
         24    2    5    5    0    0 -0.14533660184E+02 -0.75707763586E+02  0.14689651103E+03  0.18808747278E+03  0.88630805695E+02 0.  0.
          5    1    5    5  501    0 -0.48933881078E+02  0.40484909006E+02  0.49334014703E+02  0.80557355848E+02  0.47000000000E+01 0. -1.
        -11    1    6    6    0    0 -0.21331653105E+02 -0.93277452581E+02  0.10447666158E+03  0.14167249345E+03  0.00000000000E+00 0.  1.
         12    1    6    6    0    0  0.67979929215E+01  0.17569688995E+02  0.42419849451E+02  0.46414979334E+02  0.00000000000E+00 0. -1.
         -5    1    3    3    0  503 -0.46134156775E+01 -0.28609175049E+02 -0.80118725087E+01  0.30431046684E+02  0.47000000000E+01 0.  1.
         11    1    4    4    0    0  0.78195445123E+02  0.26043185477E+02  0.16009405910E+03  0.18006355241E+03  0.00000000000E+00 0. -1.
        -12    1    4    4    0    0 -0.10114488184E+02  0.37788844153E+02  0.56556894484E+02  0.68767593584E+02  0.00000000000E+00 0.  1.
</event>
<event>
12    1  0.8462562E-002  0.2016668E+03  0.7818608E-02  0.1148433E+00
         21   -1    0    0  501  502  0.00000000000E+00  0.00000000000E+00  0.47619066291E+02  0.47619066291E+02  0.00000000000E+00 0.  1.
         21   -1    0    0  502  503 -0.00000000000E+00 -0.00000000000E+00 -0.86874243628E+03  0.86874243628E+03  0.00000000000E+00 0.  1.
         -6    2    1    2    0  503 -0.85425018016E+02  0.62235980661E+02 -0.47426598835E+03  0.51536174588E+03  0.17175200267E+03 0.  0.
        -24    2    3    3    0    0 -0.75389607252E+01  0.54211160180E+02 -0.12644772531E+03  0.15880842621E+03  0.78964569165E+02 0.  0.
          6    2    1    2  501    0  0.85425018016E+02 -0.62235980661E+02 -0.34685738165E+03  0.40099975669E+03  0.17123086951E+03 0.  0.
         24    2    5    5    0    0  0.45963918702E+02 -0.10601534342E+03 -0.21461472588E+03  0.25614113262E+03  0.78720165113E+02 0.  0.
          5    1    5    5  501    0  0.39461099315E+02  0.43779362760E+02 -0.13224265577E+03  0.14485862407E+03  0.47000000000E+01 0. -1.
        -11    1    6    6    0    0  0.47470445415E+02 -0.10181680564E+03 -0.13168946040E+03  0.17309598228E+03  0.00000000000E+00 0.  1.
         12    1    6    6    0    0 -0.15065267134E+01 -0.41985377771E+01 -0.82925265471E+02  0.83045150344E+02  0.00000000000E+00 0. -1.
         -5    1    3    3    0  503 -0.77886057291E+02  0.80248204808E+01 -0.34781826304E+03  0.35655331967E+03  0.47000000000E+01 0.  1.
         11    1    4    4    0    0  0.15169803550E+02  0.11978757215E+02 -0.10414730121E+03  0.10592579438E+03  0.00000000000E+00 0. -1.
        -12    1    4    4    0    0 -0.22708764275E+02  0.42232402965E+02 -0.22300424096E+02  0.52882631837E+02  0.00000000000E+00 0.  1.
</event>
<event>
12    1  0.8462562E-002  0.2001338E+03  0.7818608E-02  0.1150777E+00
         21   -1    0    0  503  502  0.00000000000E+00  0.00000000000E+00  0.14849664401E+04  0.14849664401E+04  0.00000000000E+00 0.  1.
         21   -1    0    0  501  503 -0.00000000000E+00 -0.00000000000E+00 -0.31886811897E+02  0.31886811897E+02  0.00000000000E+00 0.  1.
          6    2    1    2  501    0  0.76653450051E+02 -0.47569448857E+02  0.39960575401E+03  0.44453766174E+03  0.17259887079E+03 0.  0.
         24    2    3    3    0    0  0.11091139385E+03 -0.35063646654E+02  0.21800148394E+03  0.25924815121E+03  0.78448456370E+02 0.  0.
         -6    2    1    2    0  502 -0.76653450051E+02  0.47569448857E+02  0.10534738742E+04  0.10723155903E+04  0.17864746748E+03 0.  0.
        -24    2    5    5    0    0 -0.38167689840E+02 -0.31315449155E+02  0.31584221326E+03  0.32946531053E+03  0.79709831679E+02 0.  0.
          5    1    3    3  501    0 -0.34257943798E+02 -0.12505802203E+02  0.18160427008E+03  0.18528951053E+03  0.47000000000E+01 0. -1.
        -13    1    4    4    0    0  0.45457297361E+02 -0.24223649861E+02  0.16925651477E+03  0.17692065704E+03  0.00000000000E+00 0.  1.
         14    1    4    4    0    0  0.65454096488E+02 -0.10839996792E+02  0.48744969167E+02  0.82327494172E+02  0.00000000000E+00 0. -1.
         -5    1    5    5    0  502 -0.38485760211E+02  0.78884898012E+02  0.73763166098E+03  0.74285027977E+03  0.47000000000E+01 0.  1.
         11    1    6    6    0    0 -0.21245338986E+02 -0.58100598947E+02  0.21918641488E+03  0.22774926672E+03  0.00000000000E+00 0. -1.
        -12    1    6    6    0    0 -0.16922350854E+02  0.26785149791E+02  0.96655798378E+02  0.10171604381E+03  0.00000000000E+00 0.  1.
</event>
<event>
12    1  0.8462562E-002  0.2750556E+03  0.7818608E-02  0.1098588E+00
         21   -1    0    0  503  502  0.00000000000E+00  0.00000000000E+00  0.21733292466E+04  0.21733292466E+04  0.00000000000E+00 0. -1.
         21   -1    0    0  501  503 -0.00000000000E+00 -0.00000000000E+00 -0.36289752993E+02  0.36289752993E+02  0.00000000000E+00 0.  1.
          6    2    1    2  501    0 -0.19972065551E+03  0.72628803610E+02  0.13049046841E+04  0.13335785662E+04  0.17462037138E+03 0.  0.
         24    2    3    3    0    0 -0.38041748648E+02  0.65100612328E+02  0.41842272919E+03  0.43242980540E+03  0.78947399747E+02 0.  0.
         -6    2    1    2    0  502  0.19972065551E+03 -0.72628803610E+02  0.83213480943E+03  0.87604043339E+03  0.17272873679E+03 0.  0.
        -24    2    5    5    0    0  0.77679794932E+02  0.14850118773E+02  0.24925303659E+03  0.27411038378E+03  0.82187284165E+02 0.  0.
          5    1    3    3  501    0 -0.16167890686E+03  0.75281912822E+01  0.88648195495E+03  0.90114876077E+03  0.47000000000E+01 0. -1.
        -13    1    4    4    0    0 -0.20557199675E+02  0.18633751308E+02  0.30063608438E+02  0.40910092869E+02  0.00000000000E+00 0.  1.
         14    1    4    4    0    0 -0.17484548973E+02  0.46466861020E+02  0.38835912075E+03  0.39151971253E+03  0.00000000000E+00 0. -1.
         -5    1    5    5    0  502  0.12204086058E+03 -0.87478922383E+02  0.58288177285E+03  0.60193004962E+03  0.47000000000E+01 0.  1.
         13    1    6    6    0    0  0.21697937765E+02  0.33393764323E+02  0.17401823929E+03  0.17851692246E+03  0.00000000000E+00 0. -1.
        -14    1    6    6    0    0  0.55981857167E+02 -0.18543645550E+02  0.75234797292E+02  0.95593461313E+02  0.00000000000E+00 0.  1.
</event>
<event>
12    1  0.8462562E-002  0.1964470E+03  0.7818608E-02  0.1152951E+00
         21   -1    0    0  501  502  0.00000000000E+00  0.00000000000E+00  0.89280757640E+03  0.89280757640E+03  0.00000000000E+00 0.  1.
         21   -1    0    0  502  503 -0.00000000000E+00 -0.00000000000E+00 -0.78328387810E+02  0.78328387810E+02  0.00000000000E+00 0. -1.
         -6    2    1    2    0  503 -0.48410982060E+02 -0.81001321842E+02  0.80860702005E+02  0.21167068828E+03  0.17135107185E+03 0.  0.
        -24    2    3    3    0    0  0.23548157216E+02 -0.18416895761E+02  0.76022301967E+02  0.11606510148E+03  0.82450103860E+02 0.  0.
          6    2    1    2  501    0  0.48410982060E+02  0.81001321842E+02  0.73361848659E+03  0.75946527593E+03  0.17229795169E+03 0.  0.
         24    2    5    5    0    0  0.57243672955E+02  0.94771415121E+02  0.35401341675E+03  0.37947878809E+03  0.80126101565E+02 0.  0.
          5    1    5    5  501    0 -0.88326908949E+01 -0.13770093279E+02  0.37960506984E+03  0.37998648784E+03  0.47000000000E+01 0. -1.
        -11    1    6    6    0    0 -0.14896327742E+02  0.22709173419E+02  0.13749808376E+03  0.14015466520E+03  0.00000000000E+00 0.  1.
         12    1    6    6    0    0  0.72140000697E+02  0.72062241702E+02  0.21651533299E+03  0.23932412289E+03  0.00000000000E+00 0. -1.
         -5    1    3    3    0  503 -0.71959139276E+02 -0.62584426082E+02  0.48384000377E+01  0.95605586805E+02  0.47000000000E+01 0.  1.
         13    1    4    4    0    0 -0.11373281059E+01  0.12968793785E+02 -0.13061579145E+02  0.18441474378E+02  0.00000000000E+00 0. -1.
        -14    1    4    4    0    0  0.24685485322E+02 -0.31385689546E+02  0.89083881112E+02  0.97623627098E+02  0.00000000000E+00 0.  1.
</event>
<event>
12    1  0.8462562E-002  0.1956495E+03  0.7818608E-02  0.1156490E+00
         21   -1    0    0  501  502  0.00000000000E+00  0.00000000000E+00  0.20842693915E+03  0.20842693915E+03  0.00000000000E+00 0. -1.
         21   -1    0    0  502  503 -0.00000000000E+00 -0.00000000000E+00 -0.18895750439E+03  0.18895750439E+03  0.00000000000E+00 0.  1.
         -6    2    1    2    0  503  0.26495455703E+02  0.54957727846E+02 -0.50714546235E+02  0.20211553769E+03  0.18589342203E+03 0.  0.
        -24    2    3    3    0    0  0.52727259658E+02  0.10189303919E+03 -0.44600944626E+02  0.14779705912E+03  0.81806913388E+02 0.  0.
          6    2    1    2  501    0 -0.26495455703E+02 -0.54957727846E+02  0.70183981001E+02  0.19526890584E+03  0.17170263067E+03 0.  0.
         24    2    5    5    0    0 -0.40355434186E+02  0.20407155443E+02 -0.19023874576E+00  0.91121964259E+02  0.79108552749E+02 0.  0.
          5    1    5    5  501    0  0.13859978483E+02 -0.75364883289E+02  0.70374219747E+02  0.10414694159E+03  0.47000000000E+01 0. -1.
        -11    1    6    6    0    0 -0.32855638322E+02 -0.19247441240E+02  0.23089103630E+02  0.44531603051E+02  0.00000000000E+00 0.  1.
         12    1    6    6    0    0 -0.74997958640E+01  0.39654596683E+02 -0.23279342376E+02  0.46590361208E+02  0.00000000000E+00 0. -1.
         -5    1    3    3    0  503 -0.26231803955E+02 -0.46935311341E+02 -0.61136016088E+01  0.54318478569E+02  0.47000000000E+01 0.  1.
         11    1    4    4    0    0  0.38288378156E+02  0.51334739812E+01 -0.29937334168E+02  0.48873269115E+02  0.00000000000E+00 0. -1.
        -12    1    4    4    0    0  0.14438881502E+02  0.96759565205E+02 -0.14663610458E+02  0.98923790007E+02  0.00000000000E+00 0.  1.
</event>
<event>
12    1  0.8462562E-002  0.2561765E+03  0.7818608E-02  0.1109554E+00
         21   -1    0    0  503  502  0.00000000000E+00  0.00000000000E+00  0.36588673895E+03  0.36588673895E+03  0.00000000000E+00 0.  1.
         21   -1    0    0  501  503 -0.00000000000E+00 -0.00000000000E+00 -0.18705428552E+03  0.18705428552E+03  0.00000000000E+00 0. -1.
          6    2    1    2  501    0 -0.39343917114E+02 -0.18503321369E+03  0.14708552673E+03  0.29539894765E+03  0.17274591781E+03 0.  0.
         24    2    3    3    0    0 -0.86535300010E+02 -0.16280931978E+03  0.97789661681E+02  0.22347467921E+03  0.79892938121E+02 0.  0.
         -6    2    1    2    0  502  0.39343917114E+02  0.18503321369E+03  0.31746926694E+02  0.25754207682E+03  0.17185697541E+03 0.  0.
        -24    2    5    5    0    0  0.83105205497E+02  0.58356830077E+02 -0.16556611433E+02  0.11500338621E+03  0.51377647468E+02 0.  0.
          5    1    3    3  501    0  0.47191382897E+02 -0.22223893911E+02  0.49295865050E+02  0.71924268445E+02  0.47000000000E+01 0.  1.
        -13    1    4    4    0    0 -0.10133664278E+03 -0.14887144028E+03  0.92557340531E+02  0.20248131318E+03  0.00000000000E+00 0.  1.
         14    1    4    4    0    0  0.14801342768E+02 -0.13937879498E+02  0.52323211495E+01  0.20993366029E+02  0.00000000000E+00 0. -1.
         -5    1    5    5    0  502 -0.43761288384E+02  0.12667638361E+03  0.48303538127E+02  0.14253869061E+03  0.47000000000E+01 0.  1.
         13    1    6    6    0    0  0.65613951387E+02  0.63438833419E+02 -0.25428209491E+02  0.94743179386E+02  0.00000000000E+00 0. -1.
        -14    1    6    6    0    0  0.17491254110E+02 -0.50820033415E+01  0.88715980586E+01  0.20260206821E+02  0.00000000000E+00 0.  1.
</event>
<event>
12    1  0.8462562E-002  0.2891956E+03  0.7818608E-02  0.1090780E+00
         21   -1    0    0  501  502  0.00000000000E+00  0.00000000000E+00  0.11469687561E+03  0.11469687561E+03  0.00000000000E+00 0.  1.
         21   -1    0    0  502  503 -0.00000000000E+00 -0.00000000000E+00 -0.74771640501E+03  0.74771640501E+03  0.00000000000E+00 0.  1.
         -6    2    1    2    0  503  0.20567850899E+03 -0.10842010635E+03 -0.38471299478E+03  0.48124368933E+03  0.17185119041E+03 0.  0.
        -24    2    3    3    0    0  0.53611905351E+02 -0.93048612207E+01 -0.19791300069E+03  0.22073570183E+03  0.81202693195E+02 0.  0.
          6    2    1    2  501    0 -0.20567850899E+03  0.10842010635E+03 -0.24830653462E+03  0.38116959129E+03  0.17197544495E+03 0.  0.
         24    2    5    5    0    0 -0.77742079370E+02  0.89388591592E+02 -0.19332776590E+03  0.24054710522E+03  0.80331398282E+02 0.  0.
          5    1    5    5  501    0 -0.12793642962E+03  0.19031514760E+02 -0.54978768720E+02  0.14062248607E+03  0.47000000000E+01 0. -1.
        -11    1    6    6    0    0 -0.87051309365E+02  0.46899695203E+02 -0.14525141771E+03  0.17571421746E+03  0.00000000000E+00 0.  1.
         12    1    6    6    0    0  0.93092299948E+01  0.42488896389E+02 -0.48076348197E+02  0.64832887761E+02  0.00000000000E+00 0. -1.
         -5    1    3    3    0  503  0.15206660364E+03 -0.99115245131E+02 -0.18679999409E+03  0.26050798750E+03  0.47000000000E+01 0.  1.
         11    1    4    4    0    0 -0.61189367985E+01 -0.31408780289E+02 -0.46232136455E+02  0.56226002063E+02  0.00000000000E+00 0. -1.
        -12    1    4    4    0    0  0.59730842150E+02  0.22103919069E+02 -0.15168086423E+03  0.16450969976E+03  0.00000000000E+00 0.  1.
</event>
<event>
12    1  0.8462562E-002  0.1898821E+03  0.7818608E-02  0.1158931E+00
         21   -1    0    0  503  502  0.00000000000E+00  0.00000000000E+00  0.20338388619E+03  0.20338388619E+03  0.00000000000E+00 0. -1.
         21   -1    0    0  501  503 -0.00000000000E+00 -0.00000000000E+00 -0.20024941266E+03  0.20024941266E+03  0.00000000000E+00 0. -1.
          6    2    1    2  501    0 -0.43791229008E+02 -0.59606272601E+02 -0.68967751548E+02  0.20201919212E+03  0.17488460127E+03 0.  0.
         24    2    3    3    0    0 -0.80484390036E+00  0.12563470222E+02  0.94481687358E+01  0.87008550714E+02  0.85572959790E+02 0.  0.
         -6    2    1    2    0  502  0.43791229008E+02  0.59606272601E+02  0.72102225071E+02  0.20161410673E+03  0.17314426846E+03 0.  0.
        -24    2    5    5    0    0  0.87621428326E+02  0.20787988861E+02  0.21517357465E+02  0.12409724175E+03  0.82628527489E+02 0.  0.
          5    1    3    3  501    0 -0.42986385108E+02 -0.72169742823E+02 -0.78415920283E+02  0.11501064141E+03  0.47000000000E+01 0. -1.
        -13    1    4    4    0    0 -0.37917895320E+02  0.21067171292E+02  0.19605474906E+02  0.47602175770E+02  0.00000000000E+00 0.  1.
         14    1    4    4    0    0  0.37113051420E+02 -0.85037010697E+01 -0.10157306170E+02  0.39406374944E+02  0.00000000000E+00 0. -1.
         -5    1    5    5    0  502 -0.43830199318E+02  0.38818283741E+02  0.50584867607E+02  0.77516864975E+02  0.47000000000E+01 0.  1.
         11    1    6    6    0    0  0.19688039455E+02  0.41399420126E+02  0.26465747813E+02  0.52933606449E+02  0.00000000000E+00 0. -1.
        -12    1    6    6    0    0  0.67933388871E+02 -0.20611431265E+02 -0.49483903488E+01  0.71163635302E+02  0.00000000000E+00 0.  1.
</event>
<event>
12    1  0.8462562E-002  0.2390099E+03  0.7818608E-02  0.1120785E+00
         21   -1    0    0  503  502  0.00000000000E+00  0.00000000000E+00  0.33719234420E+02  0.33719234420E+02  0.00000000000E+00 0.  1.
         21   -1    0    0  501  503 -0.00000000000E+00 -0.00000000000E+00 -0.16808068262E+04  0.16808068262E+04  0.00000000000E+00 0.  1.
          6    2    1    2  501    0  0.15148622375E+03 -0.56207334206E+02 -0.83577830516E+03  0.86874330561E+03  0.17344225341E+03 0.  0.
         24    2    3    3    0    0  0.80659119406E+02  0.16838227423E+01 -0.65745862012E+03  0.66827419369E+03  0.88486337812E+02 0.  0.
         -6    2    1    2    0  502 -0.15148622375E+03  0.56207334206E+02 -0.81130928659E+03  0.84578275497E+03  0.17612032734E+03 0.  0.
        -24    2    5    5    0    0 -0.51165965355E+02  0.46439101044E+02 -0.62709832422E+03  0.63574623129E+03  0.78399083184E+02 0.  0.
          5    1    3    3  501    0  0.70827104348E+02 -0.57891156948E+02 -0.17831968503E+03  0.20046911192E+03  0.47000000000E+01 0. -1.
        -13    1    4    4    0    0  0.94280772640E+02  0.67710278153E+01 -0.63137540239E+03  0.63841178690E+03  0.00000000000E+00 0.  1.
         14    1    4    4    0    0 -0.13621653234E+02 -0.50872050730E+01 -0.26083217734E+02  0.29862406796E+02  0.00000000000E+00 0. -1.
         -5    1    5    5    0  502 -0.10032025840E+03  0.97682331613E+01 -0.18421096237E+03  0.21003652368E+03  0.47000000000E+01 0.  1.
         11    1    6    6    0    0 -0.86750080778E+01 -0.22142330200E+02 -0.15070300658E+03  0.15256780376E+03  0.00000000000E+00 0. -1.
        -12    1    6    6    0    0 -0.42490957278E+02  0.68581431244E+02 -0.47639531764E+03  0.48317842753E+03  0.00000000000E+00 0.  1.
</event>
<event>
12    1  0.8462562E-002  0.2158561E+03  0.7818608E-02  0.1137625E+00
         21   -1    0    0  501  502  0.00000000000E+00  0.00000000000E+00  0.67742010325E+02  0.67742010325E+02  0.00000000000E+00 0. -1.
         21   -1    0    0  502  503 -0.00000000000E+00 -0.00000000000E+00 -0.81877157302E+03  0.81877157302E+03  0.00000000000E+00 0. -1.
         -6    2    1    2    0  503  0.94621113739E+02  0.83121358773E+02 -0.19383271587E+03  0.29011199979E+03  0.17530412211E+03 0.  0.
        -24    2    3    3    0    0  0.13505689212E+02  0.91587481712E+02 -0.16068452714E+03  0.20195146582E+03  0.79963784531E+02 0.  0.
          6    2    1    2  501    0 -0.94621113739E+02 -0.83121358773E+02 -0.55719684682E+03  0.59640158356E+03  0.17135987661E+03 0.  0.
         24    2    5    5    0    0  0.22410321491E+01 -0.41798479929E+02 -0.14143555601E+03  0.16748504557E+03  0.79341595872E+02 0.  0.
          5    1    5    5  501    0 -0.96862145888E+02 -0.41322878844E+02 -0.41576129082E+03  0.42891653799E+03  0.47000000000E+01 0. -1.
        -13    1    6    6    0    0 -0.29469261109E+01  0.23719273467E+02 -0.34615108972E+02  0.42065354824E+02  0.00000000000E+00 0.  1.
         14    1    6    6    0    0  0.51879582600E+01 -0.65517753396E+02 -0.10682044703E+03  0.12541969074E+03  0.00000000000E+00 0. -1.
         -5    1    3    3    0  503  0.81115424527E+02 -0.84661229388E+01 -0.33148188734E+02  0.88160533971E+02  0.47000000000E+01 0.  1.
         11    1    4    4    0    0  0.34402579429E+02  0.51280019422E+02 -0.41469447908E+02  0.74383418670E+02  0.00000000000E+00 0. -1.
        -12    1    4    4    0    0 -0.20896890216E+02  0.40307462290E+02 -0.11921507923E+03  0.12756804715E+03  0.00000000000E+00 0.  1.
</event>
<event>
12    1  0.8462562E-002  0.1781925E+03  0.7818608E-02  0.1169790E+00
         21   -1    0    0  503  502  0.00000000000E+00  0.00000000000E+00  0.27053055852E+02  0.27053055852E+02  0.00000000000E+00 0. -1.
         21   -1    0    0  501  503 -0.00000000000E+00 -0.00000000000E+00 -0.11928900870E+04  0.11928900870E+04  0.00000000000E+00 0. -1.
          6    2    1    2  501    0 -0.18729221152E+02  0.39625538690E+02 -0.67310071902E+03  0.69628811801E+03  0.17271826277E+03 0.  0.
         24    2    3    3    0    0  0.55680115700E+02  0.19203760994E+01 -0.34772494969E+03  0.36035671138E+03  0.76422219720E+02 0.  0.
         -6    2    1    2    0  502  0.18729221152E+02 -0.39625538690E+02 -0.49273631210E+03  0.52365502481E+03  0.17176887003E+03 0.  0.
        -24    2    5    5    0    0  0.65560943716E+02 -0.65343937804E+02 -0.29771943442E+03  0.32139697462E+03  0.78045410566E+02 0.  0.
          5    1    3    3  501    0 -0.74409336852E+02  0.37705162591E+02 -0.32537576932E+03  0.33593140663E+03  0.47000000000E+01 0. -1.
        -13    1    4    4    0    0  0.11511373357E+02 -0.29943268759E+02 -0.20680951848E+03  0.20928279431E+03  0.00000000000E+00 0.  1.
         14    1    4    4    0    0  0.44168742343E+02  0.31863644859E+02 -0.14091543121E+03  0.15107391706E+03  0.00000000000E+00 0. -1.
         -5    1    5    5    0  502 -0.46831722564E+02  0.25718399114E+02 -0.19501687767E+03  0.20225805020E+03  0.47000000000E+01 0.  1.
         11    1    6    6    0    0  0.40802862710E+02 -0.94433315094E+01 -0.21206699369E+03  0.21616304015E+03  0.00000000000E+00 0. -1.
        -12    1    6    6    0    0  0.24758081007E+02 -0.55900606295E+02 -0.85652440737E+02  0.10523393447E+03  0.00000000000E+00 0.  1.
</event>
<event>
12    1  0.8462562E-002  0.2039831E+03  0.7818608E-02  0.1146544E+00
         21   -1    0    0  501  502  0.00000000000E+00  0.00000000000E+00  0.12965183282E+04  0.12965183282E+04  0.00000000000E+00 0.  1.
         21   -1    0    0  502  503 -0.00000000000E+00 -0.00000000000E+00 -0.68213125734E+02  0.68213125734E+02  0.00000000000E+00 0.  1.
         -6    2    1    2    0  503  0.55425989770E+02 -0.90357095362E+02  0.11654569514E+03  0.23441366335E+03  0.17358116685E+03 0.  0.
        -24    2    3    3    0    0 -0.34382924122E+02 -0.47665875818E+02  0.63790256063E+02  0.12174863953E+03  0.85436018572E+02 0.  0.
          6    2    1    2  501    0 -0.55425989770E+02  0.90357095362E+02  0.11117595073E+04  0.11303177906E+04  0.17427753890E+03 0.  0.
         24    2    5    5    0    0 -0.21527135699E+02 -0.15826245683E+02  0.33565027433E+03  0.34623127383E+03  0.80629403412E+02 0.  0.
          5    1    5    5  501    0 -0.33898854070E+02  0.10618334105E+03  0.77610923298E+03  0.78408651674E+03  0.47000000000E+01 0. -1.
        -11    1    6    6    0    0  0.30187835117E+01  0.24208619244E+02  0.22090928934E+03  0.22225229902E+03  0.00000000000E+00 0.  1.
         12    1    6    6    0    0 -0.24545919211E+02 -0.40034864927E+02  0.11474098499E+03  0.12397897481E+03  0.00000000000E+00 0. -1.
         -5    1    3    3    0  503  0.89808913891E+02 -0.42691219544E+02  0.52755439079E+02  0.11266502382E+03  0.47000000000E+01 0.  1.
         11    1    4    4    0    0  0.13940650644E+02  0.13082544697E+02 -0.29916652675E+01  0.19350575630E+02  0.00000000000E+00 0. -1.
        -12    1    4    4    0    0 -0.48323574765E+02 -0.60748420516E+02  0.66781921331E+02  0.10239806390E+03  0.00000000000E+00 0.  1.
</event>
<event>
12    1  0.8462562E-002  0.2736263E+03  0.7818608E-02  0.1099386E+00
         21   -1    0    0  501  502  0.00000000000E+00  0.00000000000E+00  0.24317134215E+03  0.24317134215E+03  0.00000000000E+00 0.  1.
         21   -1    0    0  502  503 -0.00000000000E+00 -0.00000000000E+00 -0.42556181502E+03  0.42556181502E+03  0.00000000000E+00 0.  1.
         -6    2    1    2    0  503 -0.16863106239E+03 -0.12797796523E+03 -0.26812666411E+03  0.38309696270E+03  0.17336833633E+03 0.  0.
        -24    2    3    3    0    0 -0.11812734157E+03 -0.13937152598E+03 -0.13675764285E+03  0.24181586422E+03  0.79961041941E+02 0.  0.
          6    2    1    2  501    0  0.16863106239E+03  0.12797796523E+03  0.85736191237E+02  0.28563619447E+03  0.17153001580E+03 0.  0.
         24    2    5    5    0    0  0.16644792791E+03  0.11946322064E+03  0.11967443038E+03  0.25026443981E+03  0.79586096493E+02 0.  0.
          5    1    5    5  501    0  0.21831344726E+01  0.85147445860E+01 -0.33938239145E+02  0.35371754661E+02  0.47000000000E+01 0. -1.
        -13    1    6    6    0    0  0.10208811242E+03  0.50649164580E+02  0.10490182809E+03  0.15489258893E+03  0.00000000000E+00 0.  1.
         14    1    6    6    0    0  0.64359815493E+02  0.68814056059E+02  0.14772602295E+02  0.95371850879E+02  0.00000000000E+00 0. -1.
         -5    1    3    3    0  503 -0.50503720818E+02  0.11393560756E+02 -0.13136902126E+03  0.14128109849E+03  0.47000000000E+01 0.  1.
         13    1    4    4    0    0 -0.11493637831E+03 -0.10993252829E+03 -0.80538311659E+02  0.17827493228E+03  0.00000000000E+00 0. -1.
        -14    1    4    4    0    0 -0.31909632596E+01 -0.29438997695E+02 -0.56219331193E+02  0.63540931939E+02  0.00000000000E+00 0.  1.
</event>
<event>
12    1  0.8462562E-002  0.2079542E+03  0.7818608E-02  0.1143385E+00
         21   -1    0    0  503  502  0.00000000000E+00  0.00000000000E+00  0.59655828012E+03  0.59655828012E+03  0.00000000000E+00 0.  1.
         21   -1    0    0  501  503 -0.00000000000E+00 -0.00000000000E+00 -0.73452190872E+02  0.73452190872E+02  0.00000000000E+00 0. -1.
          6    2    1    2  501    0 -0.10164262942E+03 -0.56854254516E+02  0.30533577038E+03  0.36889778836E+03  0.17114910228E+03 0.  0.
         24    2    3    3    0    0 -0.11326881418E+03  0.38944634679E+01  0.24860413577E+03  0.28483743341E+03  0.80519289857E+02 0.  0.
         -6    2    1    2    0  502  0.10164262942E+03  0.56854254516E+02  0.21777031887E+03  0.30111268264E+03  0.17228263259E+03 0.  0.
        -24    2    5    5    0    0  0.64227406929E+02  0.59109330138E+02  0.50178200646E+02  0.12931573176E+03  0.81151918955E+02 0.  0.
          5    1    3    3  501    0  0.11626184760E+02 -0.60748717984E+02  0.56731634613E+02  0.84060354952E+02  0.47000000000E+01 0. -1.
        -13    1    4    4    0    0 -0.40884228678E+02  0.28859180687E+02  0.44958255533E+02  0.67272707728E+02  0.00000000000E+00 0.  1.
         14    1    4    4    0    0 -0.72384585497E+02 -0.24964717219E+02  0.20364588023E+03  0.21756472568E+03  0.00000000000E+00 0. -1.
         -5    1    5    5    0  502  0.37415222487E+02 -0.22550756222E+01  0.16759211823E+03  0.17179695088E+03  0.47000000000E+01 0.  1.
         13    1    6    6    0    0 -0.58431632588E+01  0.27805965810E+02  0.43928679595E+02  0.52316758142E+02  0.00000000000E+00 0. -1.
        -14    1    6    6    0    0  0.70070570187E+02  0.31303364328E+02  0.62495210509E+01  0.76998973617E+02  0.00000000000E+00 0.  1.
</event>
<event>
12    1  0.8462562E-002  0.1782746E+03  0.7818608E-02  0.1170365E+00
         21   -1    0    0  503  502  0.00000000000E+00  0.00000000000E+00  0.10290811192E+04  0.10290811192E+04  0.00000000000E+00 0.  1.
         21   -1    0    0  501  503 -0.00000000000E+00 -0.00000000000E+00 -0.33894847631E+02  0.33894847631E+02  0.00000000000E+00 0.  1.
          6    2    1    2  501    0 -0.79643451179E+01 -0.30323337520E+02  0.32827274164E+03  0.37355697634E+03  0.17549611414E+03 0.  0.
         24    2    3    3    0    0 -0.54317950692E+02  0.47560167183E+01  0.10450691139E+03  0.14231585839E+03  0.79743649023E+02 0.  0.
         -6    2    1    2    0  502  0.79643451179E+01  0.30323337520E+02  0.66691352996E+03  0.68941899052E+03  0.17187772530E+03 0.  0.
        -24    2    5    5    0    0 -0.17974429387E+02  0.76011887604E+02  0.54986838835E+03  0.56103706497E+03  0.79413201679E+02 0.  0.
          5    1    3    3  501    0  0.46353605574E+02 -0.35079354239E+02  0.22376583025E+03  0.23124111795E+03  0.47000000000E+01 0. -1.
        -11    1    4    4    0    0 -0.68332620409E+02  0.16381041433E+02  0.10210717672E+03  0.12394983287E+03  0.00000000000E+00 0.  1.
         12    1    4    4    0    0  0.14014669717E+02 -0.11625024715E+02  0.23997346632E+01  0.18366025519E+02  0.00000000000E+00 0. -1.
         -5    1    5    5    0  502  0.25938774505E+02 -0.45688550084E+02  0.11704514161E+03  0.12838192554E+03  0.47000000000E+01 0.  1.
         11    1    6    6    0    0 -0.49670119228E+02  0.47815916938E+02  0.34564231203E+03  0.35245154351E+03  0.00000000000E+00 0. -1.
        -12    1    6    6    0    0  0.31695689841E+02  0.28195970667E+02  0.20422607632E+03  0.20858552146E+03  0.00000000000E+00 0.  1.
</event>
<event>
12    1  0.8462562E-002  0.1836593E+03  0.7818608E-02  0.1164555E+00
         21   -1    0    0  503  502  0.00000000000E+00  0.00000000000E+00  0.50427830767E+02  0.50427830767E+02  0.00000000000E+00 0.  1.
         21   -1    0    0  501  503 -0.00000000000E+00 -0.00000000000E+00 -0.13558112895E+04  0.13558112895E+04  0.00000000000E+00 0.  1.
          6    2    1    2  501    0  0.58278184350E+02  0.25890472289E+02 -0.11554591337E+04  0.11699643396E+04  0.17223264207E+03 0.  0.
         24    2    3    3    0    0  0.76950136744E+02  0.74225187883E+02 -0.81458921256E+03  0.82514659112E+03  0.76685132598E+02 0.  0.
         -6    2    1    2    0  502 -0.58278184350E+02 -0.25890472289E+02 -0.14992432505E+03  0.23627478067E+03  0.17111927247E+03 0.  0.
        -24    2    5    5    0    0 -0.57646597680E+02  0.14988100589E+02 -0.16426204500E+03  0.19269592300E+03  0.81252236448E+02 0.  0.
          5    1    3    3  501    0 -0.18671952394E+02 -0.48334715594E+02 -0.34086992113E+03  0.34481774849E+03  0.47000000000E+01 0. -1.
        -13    1    4    4    0    0  0.46795885827E+02  0.59333351050E+02 -0.73318421948E+03  0.73706811162E+03  0.00000000000E+00 0.  1.
         14    1    4    4    0    0  0.30154250917E+02  0.14891836833E+02 -0.81404993074E+02  0.88078479494E+02  0.00000000000E+00 0. -1.
         -5    1    5    5    0  502 -0.63158667008E+00 -0.40878572877E+02  0.14337719955E+02  0.43578857669E+02  0.47000000000E+01 0.  1.
         13    1    6    6    0    0  0.18121596151E+01 -0.18750173687E+02 -0.89202420396E+02  0.91169757817E+02  0.00000000000E+00 0. -1.
        -14    1    6    6    0    0 -0.59458757295E+02  0.33738274276E+02 -0.75059624606E+02  0.10152616518E+03  0.00000000000E+00 0.  1.
</event>
<event>
12    1  0.8462562E-002  0.1984874E+03  0.7818608E-02  0.1151203E+00
         21   -1    0    0  503  502  0.00000000000E+00  0.00000000000E+00  0.24608096390E+02  0.24608096390E+02  0.00000000000E+00 0. -1.
         21   -1    0    0  501  503 -0.00000000000E+00 -0.00000000000E+00 -0.22958985123E+04  0.22958985123E+04  0.00000000000E+00 0.  1.
          6    2    1    2  501    0  0.51976168085E+01  0.97981968020E+02 -0.17787982028E+04  0.17898380679E+04  0.17253921834E+03 0.  0.
         24    2    3    3    0    0 -0.33845529186E+02  0.48253435677E+02 -0.15314731624E+04  0.15345165848E+04  0.76532266033E+02 0.  0.
         -6    2    1    2    0  502 -0.51976168085E+01 -0.97981968020E+02 -0.49249221320E+03  0.53066854084E+03  0.17156059834E+03 0.  0.
        -24    2    5    5    0    0 -0.61082304470E+02 -0.14602411922E+02 -0.25648676289E+03  0.27416140397E+03  0.73720672392E+02 0.  0.
          5    1    3    3  501    0  0.39043145994E+02  0.49728532344E+02 -0.24732504033E+03  0.25532148313E+03  0.47000000000E+01 0. -1.
        -11    1    4    4    0    0  0.80497781314E+01  0.13975845274E+02 -0.10307164148E+04  0.10308425927E+04  0.00000000000E+00 0.  1.
         12    1    4    4    0    0 -0.41895307317E+02  0.34277590403E+02 -0.50075674761E+03  0.50367399204E+03  0.00000000000E+00 0. -1.
         -5    1    5    5    0  502  0.55884687662E+02 -0.83379556098E+02 -0.23600545031E+03  0.25650713687E+03  0.47000000000E+01 0.  1.
         13    1    6    6    0    0  0.71540377098E+01 -0.20556256081E+02 -0.27055139400E+02  0.34723486109E+02  0.00000000000E+00 0. -1.
        -14    1    6    6    0    0 -0.68236342180E+02  0.59538441585E+01 -0.22943162349E+03  0.23943791786E+03  0.00000000000E+00 0.  1.
</event>
<event>
12    1  0.8462562E-002  0.1856669E+03  0.7818608E-02  0.1164587E+00
         21   -1    0    0  501  502  0.00000000000E+00  0.00000000000E+00  0.17423755838E+03  0.17423755838E+03  0.00000000000E+00 0. -1.
         21   -1    0    0  502  503 -0.00000000000E+00 -0.00000000000E+00 -0.19375833886E+03  0.19375833886E+03  0.00000000000E+00 0. -1.
         -6    2    1    2    0  503 -0.21687291063E+02  0.32263921086E+02  0.20798259787E+02  0.18682820662E+03  0.18155140314E+03 0.  0.
        -24    2    3    3    0    0 -0.14450215657E+02 -0.11606085924E+02  0.78399044270E+02  0.11391117741E+03  0.80534689630E+02 0.  0.
          6    2    1    2  501    0  0.21687291063E+02 -0.32263921086E+02 -0.40319040266E+02  0.18116769063E+03  0.17229279707E+03 0.  0.
         24    2    5    5    0    0 -0.31833316090E+02  0.30657662313E+02 -0.45605847649E+01  0.91032579893E+02  0.79453630482E+02 0.  0.
          5    1    5    5  501    0  0.53520607154E+02 -0.62921583399E+02 -0.35758455501E+02  0.90135110736E+02  0.47000000000E+01 0. -1.
        -11    1    6    6    0    0 -0.54010101448E+02  0.21637193522E+01  0.30226213977E+01  0.54137870110E+02  0.00000000000E+00 0.  1.
         12    1    6    6    0    0  0.22176785358E+02  0.28493942961E+02 -0.75832061626E+01  0.36894709783E+02  0.00000000000E+00 0. -1.
         -5    1    3    3    0  503 -0.72370754067E+01  0.43870007010E+02 -0.57600784484E+02  0.72917029209E+02  0.47000000000E+01 0.  1.
         11    1    4    4    0    0  0.14484463225E+02  0.18978553126E+02 -0.11557100406E+01  0.23902318285E+02  0.00000000000E+00 0. -1.
        -12    1    4    4    0    0 -0.28934678882E+02 -0.30584639050E+02  0.79554754311E+02  0.90008859127E+02  0.00000000000E+00 0.  1.
</event>
<event>
12    1  0.8462562E-002  0.1775248E+03  0.7818608E-02  0.1170338E+00
         21   -1    0    0  503  502  0.00000000000E+00  0.00000000000E+00  0.20261911779E+03  0.20261911779E+03  0.00000000000E+00 0.  1.
         21   -1    0    0  501  503 -0.00000000000E+00 -0.00000000000E+00 -0.28365385586E+03  0.28365385586E+03  0.00000000000E+00 0.  1.
          6    2    1    2  501    0 -0.29297263031E+01 -0.44017248208E+02 -0.20415490710E+03  0.27023213010E+03  0.17146450539E+03 0.  0.
         24    2    3    3    0    0  0.91868702970E+01 -0.89429487262E+02 -0.17012343391E+03  0.21201431035E+03  0.89028384526E+02 0.  0.
         -6    2    1    2    0  502  0.29297263031E+01  0.44017248208E+02  0.12312016903E+03  0.21604084355E+03  0.17195629858E+03 0.  0.
        -24    2    5    5    0    0 -0.24723994878E+02  0.50535217715E+02  0.14854888277E+03  0.17762311712E+03  0.79486583826E+02 0.  0.
          5    1    3    3  501    0 -0.12116596600E+02  0.45412239053E+02 -0.34031473198E+02  0.58217819755E+02  0.47000000000E+01 0. -1.
        -11    1    4    4    0    0 -0.56839708788E+01 -0.98383091222E+02 -0.10246249903E+03  0.14216224488E+03  0.00000000000E+00 0.  1.
         12    1    4    4    0    0  0.14870841176E+02  0.89536039606E+01 -0.67660934881E+02  0.69852065468E+02  0.00000000000E+00 0. -1.
         -5    1    5    5    0  502  0.27653721181E+02 -0.65179695065E+01 -0.25428713739E+02  0.38417726430E+02  0.47000000000E+01 0.  1.
         13    1    6    6    0    0 -0.67304661470E+01 -0.88549087863E+00  0.11157878587E+03  0.11178510064E+03  0.00000000000E+00 0. -1.
        -14    1    6    6    0    0 -0.17993528731E+02  0.51420708594E+02  0.36970096902E+02  0.65838016475E+02  0.00000000000E+00 0.  1.
</event>
<event>
12    1  0.8462562E-002  0.1856403E+03  0.7818608E-02  0.1164037E+00
         21   -1    0    0  501  502  0.00000000000E+00  0.00000000000E+00  0.12714569451E+04  0.12714569451E+04  0.00000000000E+00 0. -1.
         21   -1    0    0  502  503 -0.00000000000E+00 -0.00000000000E+00 -0.28380090231E+02  0.28380090231E+02  0.00000000000E+00 0. -1.
         -6    2    1    2    0  503  0.46595384338E+02  0.23520829859E+02  0.81467505113E+03  0.83555834607E+03  0.17815148460E+03 0.  0.
        -24    2    3    3    0    0  0.41651366998E+02  0.45026370070E+02  0.80417632523E+03  0.81067371601E+03  0.82037195232E+02 0.  0.
          6    2    1    2  501    0 -0.46595384338E+02 -0.23520829859E+02  0.42840180373E+03  0.46427868925E+03  0.17117896069E+03 0.  0.
         24    2    5    5    0    0  0.97726633303E+01  0.39125018928E+02  0.27445421391E+03  0.28871158078E+03  0.80018680874E+02 0.  0.
          5    1    5    5  501    0 -0.56368047668E+02 -0.62645848787E+02  0.15394758982E+03  0.17556710848E+03  0.47000000000E+01 0. -1.
        -11    1    6    6    0    0  0.44234177199E+01  0.63992031027E+02  0.19338148869E+03  0.20374235404E+03  0.00000000000E+00 0.  1.
         12    1    6    6    0    0  0.53492456104E+01 -0.24867012098E+02  0.81072725216E+02  0.84969226743E+02  0.00000000000E+00 0. -1.
         -5    1    3    3    0  503  0.49440173393E+01 -0.21505540212E+02  0.10498725903E+02  0.24884630052E+02  0.47000000000E+01 0.  1.
         13    1    4    4    0    0  0.46391040151E+02  0.44997683266E+02  0.31934368047E+03  0.32581790368E+03  0.00000000000E+00 0. -1.
        -14    1    4    4    0    0 -0.47396731525E+01  0.28686803942E-01  0.48483264476E+03  0.48485581233E+03  0.00000000000E+00 0.  1.
</event>
<event>
12    1  0.8462562E-002  0.2096646E+03  0.7818608E-02  0.1142037E+00
         21   -1    0    0  501  502  0.00000000000E+00  0.00000000000E+00  0.23728426507E+03  0.23728426507E+03  0.00000000000E+00 0.  1.
         21   -1    0    0  502  503 -0.00000000000E+00 -0.00000000000E+00 -0.24345408382E+03  0.24345408382E+03  0.00000000000E+00 0. -1.
         -6    2    1    2    0  503  0.11963011316E+03  0.12452416124E+02 -0.12151293161E+03  0.24144084934E+03  0.17047540743E+03 0.  0.
        -24    2    3    3    0    0  0.87950290341E+02 -0.19851306847E+02 -0.96158625924E+01  0.12065100809E+03  0.79591915332E+02 0.  0.
          6    2    1    2  501    0 -0.11963011316E+03 -0.12452416124E+02  0.11534311287E+03  0.23929749955E+03  0.17173477505E+03 0.  0.
         24    2    5    5    0    0 -0.56311867237E+02  0.19848511921E+02 -0.59469762358E+01  0.98635045660E+02  0.78284838180E+02 0.  0.
          5    1    5    5  501    0 -0.63318245923E+02 -0.32300928045E+02  0.12129008911E+03  0.14066245389E+03  0.47000000000E+01 0. -1.
        -13    1    6    6    0    0  0.16649351034E+02 -0.35121573896E+01  0.10882976571E+02  0.20198398908E+02  0.00000000000E+00 0.  1.
         14    1    6    6    0    0 -0.72961218271E+02  0.23360669311E+02 -0.16829952807E+02  0.78436646752E+02  0.00000000000E+00 0. -1.
         -5    1    3    3    0  503  0.31679822820E+02  0.32303722971E+02 -0.11189706902E+03  0.12078984124E+03  0.47000000000E+01 0.  1.
         13    1    4    4    0    0  0.68491955758E+02  0.11047983312E+02 -0.33475584048E+02  0.77031296667E+02  0.00000000000E+00 0. -1.
        -14    1    4    4    0    0  0.19458334582E+02 -0.30899290160E+02  0.23859721455E+02  0.43619711428E+02  0.00000000000E+00 0.  1.
</event>
<event>
12    1  0.8462562E-002  0.1937386E+03  0.7818608E-02  0.1156661E+00
         21   -1    0    0  501  502  0.00000000000E+00  0.00000000000E+00  0.43963251594E+03  0.43963251594E+03  0.00000000000E+00 0. -1.
         21   -1    0    0  502  503 -0.00000000000E+00 -0.00000000000E+00 -0.87117514422E+02  0.87117514422E+02  0.00000000000E+00 0. -1.
         -6    2    1    2    0  503 -0.87327490083E+02  0.27757380611E+02  0.11197405704E+03  0.21788990998E+03  0.16291488796E+03 0.  0.
        -24    2    3    3    0    0 -0.27729543950E+02 -0.20070147354E+01 -0.28198919855E+01  0.85083377209E+02  0.80363384515E+02 0.  0.
          6    2    1    2  501    0  0.87327490083E+02 -0.27757380611E+02  0.24054094448E+03  0.30886012038E+03  0.17069875597E+03 0.  0.
         24    2    5    5    0    0  0.11149448804E+03 -0.53139513701E+02  0.23132800679E+03  0.27231884658E+03  0.73417155333E+02 0.  0.
          5    1    5    5  501    0 -0.24166997958E+02  0.25382133089E+02  0.92129376921E+01  0.36541273806E+02  0.47000000000E+01 0. -1.
        -11    1    6    6    0    0  0.56706793640E+01  0.65241690721E+01 -0.23419814853E+01  0.89557949847E+01  0.00000000000E+00 0.  1.
         12    1    6    6    0    0  0.10582380868E+03 -0.59663682773E+02  0.23366998827E+03  0.26336305159E+03  0.00000000000E+00 0. -1.
         -5    1    3    3    0  503 -0.59597946134E+02  0.29764395347E+02  0.11479394903E+03  0.13280653277E+03  0.47000000000E+01 0.  1.
         11    1    4    4    0    0 -0.27217956042E+02  0.34902597855E+02 -0.14155010039E+02  0.46469051823E+02  0.00000000000E+00 0. -1.
        -12    1    4    4    0    0 -0.51158790777E+00 -0.36909612590E+02  0.11335118053E+02  0.38614325386E+02  0.00000000000E+00 0.  1.
</event>
<event>
12    1  0.8462562E-002  0.2165109E+03  0.7818608E-02  0.1137303E+00
         21   -1    0    0  501  502  0.00000000000E+00  0.00000000000E+00  0.18280393077E+03  0.18280393077E+03  0.00000000000E+00 0.  1.
         21   -1    0    0  502  503 -0.00000000000E+00 -0.00000000000E+00 -0.25695290698E+03  0.25695290698E+03  0.00000000000E+00 0.  1.
         -6    2    1    2    0  503  0.12614459640E+03 -0.35918756593E+02 -0.56279800195E+01  0.21658401409E+03  0.17226242981E+03 0.  0.
        -24    2    3    3    0    0  0.28660893307E+02  0.43800049478E+02  0.12399673534E+01  0.90380134948E+02  0.73669126062E+02 0.  0.
          6    2    1    2  501    0 -0.12614459640E+03  0.35918756593E+02 -0.68520996188E+02  0.22317282365E+03  0.16705797205E+03 0.  0.
         24    2    5    5    0    0 -0.49619745629E+02 -0.36353967978E+02 -0.61629349399E+02  0.11758407285E+03  0.79019664235E+02 0.  0.
          5    1    5    5  501    0 -0.76524850767E+02  0.72272724571E+02 -0.68916467897E+01  0.10558875081E+03  0.47000000000E+01 0. -1.
        -13    1    6    6    0    0 -0.45271394372E+02 -0.19759692923E+02  0.41831241253E+01  0.49572604735E+02  0.00000000000E+00 0.  1.
         14    1    6    6    0    0 -0.43483512569E+01 -0.16594275054E+02 -0.65812473524E+02  0.68011468111E+02  0.00000000000E+00 0. -1.
         -5    1    3    3    0  503  0.97483703089E+02 -0.79718806071E+02 -0.68679473729E+01  0.12620387914E+03  0.47000000000E+01 0.  1.
         11    1    4    4    0    0 -0.13426257207E+02  0.36966102143E+02 -0.18418612991E+02  0.43428129073E+02  0.00000000000E+00 0. -1.
        -12    1    4    4    0    0  0.42087150514E+02  0.68339473348E+01  0.19658580344E+02  0.46952005875E+02  0.00000000000E+00 0.  1.
</event>
<event>
12    1  0.8462562E-002  0.3906425E+03  0.7818608E-02  0.1047110E+00
         21   -1    0    0  503  502  0.00000000000E+00  0.00000000000E+00  0.84449847070E+03  0.84449847070E+03  0.00000000000E+00 0.  1.
         21   -1    0    0  501  503 -0.00000000000E+00 -0.00000000000E+00 -0.20337702230E+03  0.20337702230E+03  0.00000000000E+00 0. -1.
          6    2    1    2  501    0  0.34794659917E+03  0.39516514729E+02  0.14463110043E+03  0.41612853415E+03  0.17209419200E+03 0.  0.
         24    2    3    3    0    0  0.11087253989E+03  0.60432869972E+02  0.34306691322E+02  0.15376396196E+03  0.80756145609E+02 0.  0.
         -6    2    1    2    0  502 -0.34794659917E+03 -0.39516514729E+02  0.49649034797E+03  0.63174695885E+03  0.17312759335E+03 0.  0.
        -24    2    5    5    0    0 -0.24059063191E+03 -0.21576186637E+02  0.22510787261E+03  0.33931286882E+03  0.78168309715E+02 0.  0.
          5    1    3    3  501    0  0.23707405927E+03 -0.20916355243E+02  0.11032440910E+03  0.26236457219E+03  0.47000000000E+01 0. -1.
        -13    1    4    4    0    0 -0.60875676781E+01 -0.31433727932E+01 -0.11156578650E+02  0.13092307662E+02  0.00000000000E+00 0.  1.
         14    1    4    4    0    0  0.11696010757E+03  0.63576242765E+02  0.45463269972E+02  0.14067165430E+03  0.00000000000E+00 0. -1.
         -5    1    5    5    0  502 -0.10735596725E+03 -0.17940328092E+02  0.27138247536E+03  0.29243409002E+03  0.47000000000E+01 0.  1.
         13    1    6    6    0    0 -0.10329212492E+02 -0.21241557052E+02  0.20185957919E+02  0.31070392238E+02  0.00000000000E+00 0. -1.
        -14    1    6    6    0    0 -0.23026141942E+03 -0.33462958490E+00  0.20492191469E+03  0.30824247659E+03  0.00000000000E+00 0.  1.
</event>
<event>
12    1  0.8462562E-002  0.1733157E+03  0.7818608E-02  0.1174538E+00
         21   -1    0    0  501  502  0.00000000000E+00  0.00000000000E+00  0.26352362675E+02  0.26352362675E+02  0.00000000000E+00 0.  1.
         21   -1    0    0  502  503 -0.00000000000E+00 -0.00000000000E+00 -0.18829555278E+04  0.18829555278E+04  0.00000000000E+00 0.  1.
         -6    2    1    2    0  503  0.86648955804E+01 -0.16731986021E+02 -0.15297742449E+04  0.15395608327E+04  0.17228835492E+03 0.  0.
        -24    2    3    3    0    0 -0.30869317953E+02 -0.67267658712E+02 -0.10539771909E+04  0.10594340423E+04  0.77812069920E+02 0.  0.
          6    2    1    2  501    0 -0.86648955804E+01  0.16731986021E+02 -0.32682892017E+03  0.36974705779E+03  0.17187409320E+03 0.  0.
         24    2    5    5    0    0 -0.37045060371E+02  0.22124564434E+02 -0.78348732713E+02  0.11954912172E+03  0.79319831924E+02 0.  0.
          5    1    5    5  501    0  0.28380164791E+02 -0.53925784125E+01 -0.24848018745E+03  0.25019793607E+03  0.47000000000E+01 0. -1.
        -13    1    6    6    0    0 -0.50408259380E+02  0.21371071751E+02 -0.87582912414E+02  0.10328834333E+03  0.00000000000E+00 0.  1.
         14    1    6    6    0    0  0.13363199008E+02  0.75349268273E+00  0.92341797006E+01  0.16260778386E+02  0.00000000000E+00 0. -1.
         -5    1    3    3    0  503  0.39534213533E+02  0.50535672690E+02 -0.47579705400E+03  0.48012679039E+03  0.47000000000E+01 0.  1.
         13    1    4    4    0    0  0.17460420123E+02 -0.42362398310E+02 -0.29774671357E+03  0.30125162988E+03  0.00000000000E+00 0. -1.
        -14    1    4    4    0    0 -0.48329738076E+02 -0.24905260401E+02 -0.75623047737E+03  0.75818241240E+03  0.00000000000E+00 0.  1.
</event>
<event>
12    1  0.8462562E-002  0.2067561E+03  0.7818608E-02  0.1144200E+00
         21   -1    0    0  503  502  0.00000000000E+00  0.00000000000E+00  0.15059578447E+03  0.15059578447E+03  0.00000000000E+00 0. -1.
         21   -1    0    0  501  503 -0.00000000000E+00 -0.00000000000E+00 -0.50547067935E+03  0.50547067935E+03  0.00000000000E+00 0. -1.
          6    2    1    2  501    0  0.11416355130E+03 -0.22090813072E+02 -0.39472287438E+03  0.44550541398E+03  0.17072669932E+03 0.  0.
         24    2    3    3    0    0  0.10025185533E+02 -0.16048843539E+02 -0.89658212926E+02  0.12306496632E+03  0.82148165324E+02 0.  0.
         -6    2    1    2    0  502 -0.11416355130E+03  0.22090813072E+02  0.39847979508E+02  0.21056104983E+03  0.17095839777E+03 0.  0.
        -24    2    5    5    0    0 -0.14413626170E+03  0.34002083459E+02  0.13531722085E+02  0.16866979614E+03  0.79592644195E+02 0.  0.
          5    1    3    3  501    0  0.10413836577E+03 -0.60419695326E+01 -0.30506466146E+03  0.32244044767E+03  0.47000000000E+01 0. -1.
        -13    1    4    4    0    0  0.16494020872E+01  0.19808661874E+02  0.58368167216E+01  0.20716467892E+02  0.00000000000E+00 0.  1.
         14    1    4    4    0    0  0.83757834456E+01 -0.35857505414E+02 -0.95495029648E+02  0.10234849843E+03  0.00000000000E+00 0. -1.
         -5    1    5    5    0  502  0.29972710404E+02 -0.11911270387E+02  0.26316257423E+02  0.41891253692E+02  0.47000000000E+01 0.  1.
         13    1    6    6    0    0 -0.43905437294E+02  0.43148938231E+02  0.26822309964E+02  0.67148749849E+02  0.00000000000E+00 0. -1.
        -14    1    6    6    0    0 -0.10023082441E+03 -0.91468547718E+01 -0.13290587878E+02  0.10152104629E+03  0.00000000000E+00 0.  1.
</event>
<event>
12    1  0.8462562E-002  0.1926500E+03  0.7818608E-02  0.1158664E+00
         21   -1    0    0  503  502  0.00000000000E+00  0.00000000000E+00  0.68031156026E+03  0.68031156026E+03  0.00000000000E+00 0.  1.
         21   -1    0    0  501  503 -0.00000000000E+00 -0.00000000000E+00 -0.55531501583E+02  0.55531501583E+02  0.00000000000E+00 0.  1.
          6    2    1    2  501    0  0.54569700441E+02  0.35960185371E+02  0.20359653504E+03  0.27269126518E+03  0.16922762744E+03 0.  0.
         24    2    3    3    0    0  0.20934899365E+01 -0.16577685976E+02  0.37311515006E+02  0.90518878468E+02  0.80760855832E+02 0.  0.
         -6    2    1    2    0  502 -0.54569700441E+02 -0.35960185371E+02  0.42118352364E+03  0.46315179666E+03  0.18122648544E+03 0.  0.
        -24    2    5    5    0    0 -0.87739202255E+02 -0.66399199558E+02  0.23658295088E+03  0.27308283312E+03  0.80596028354E+02 0.  0.
          5    1    3    3  501    0  0.52476210504E+02  0.52537871347E+02  0.16628502003E+03  0.18217238671E+03  0.47000000000E+01 0. -1.
        -13    1    4    4    0    0 -0.10381883416E+02  0.30970757871E+02  0.20506475786E+02  0.38567951664E+02  0.00000000000E+00 0.  1.
         14    1    4    4    0    0  0.12475373353E+02 -0.47548443848E+02  0.16805039220E+02  0.51950926804E+02  0.00000000000E+00 0. -1.
         -5    1    5    5    0  502  0.33169501815E+02  0.30439014187E+02  0.18460057276E+03  0.19006896353E+03  0.47000000000E+01 0.  1.
         13    1    6    6    0    0 -0.10784256133E+02  0.17784117137E+02  0.23405603101E+02  0.31311296032E+02  0.00000000000E+00 0. -1.
        -14    1    6    6    0    0 -0.76954946122E+02 -0.84183316695E+02  0.21317734778E+03  0.24177153709E+03  0.00000000000E+00 0.  1.
</event>
<event>
12    1  0.8462562E-002  0.1837596E+03  0.7818608E-02  0.1164872E+00
         21   -1    0    0  503  502  0.00000000000E+00  0.00000000000E+00  0.69928580864E+02  0.69928580864E+02  0.00000000000E+00 0. -1.
         21   -1    0    0  501  503 -0.00000000000E+00 -0.00000000000E+00 -0.51865543441E+03  0.51865543441E+03  0.00000000000E+00 0. -1.
          6    2    1    2  501    0  0.28986429674E+02 -0.52948394751E+02 -0.14116124150E+03  0.23171986916E+03  0.17356225410E+03 0.  0.
         24    2    3    3    0    0 -0.35079860403E+02 -0.55581267986E+01 -0.12158236250E+03  0.14952650249E+03  0.79463291511E+02 0.  0.
         -6    2    1    2    0  502 -0.28986429674E+02  0.52948394751E+02 -0.30756561205E+03  0.35686414612E+03  0.17062141560E+03 0.  0.
        -24    2    5    5    0    0  0.93103946413E+00 -0.22237738427E+02 -0.23144826958E+03  0.24567084864E+03  0.79312549646E+02 0.  0.
          5    1    3    3  501    0  0.64066290076E+02 -0.47390267952E+02 -0.19578879006E+02  0.82193366666E+02  0.47000000000E+01 0. -1.
        -11    1    4    4    0    0 -0.44138354185E+02 -0.20608646829E+02 -0.32104098392E+02  0.58340241410E+02  0.00000000000E+00 0.  1.
         12    1    4    4    0    0  0.90584937821E+01  0.15050520031E+02 -0.89478264105E+02  0.91186261081E+02  0.00000000000E+00 0. -1.
         -5    1    5    5    0  502 -0.29917469138E+02  0.75186133178E+02 -0.76117342463E+02  0.11119329748E+03  0.47000000000E+01 0.  1.
         11    1    6    6    0    0  0.62078559618E+01  0.60240251800E+01 -0.20904149750E+03  0.20922039583E+03  0.00000000000E+00 0. -1.
        -12    1    6    6    0    0 -0.52768164976E+01 -0.28261763607E+02 -0.22406772088E+02  0.36450452808E+02  0.00000000000E+00 0.  1.
</event>
<event>
12    1  0.8462562E-002  0.1778033E+03  0.7818608E-02  0.1171922E+00
         21   -1    0    0  501  502  0.00000000000E+00  0.00000000000E+00  0.57706228385E+03  0.57706228385E+03  0.00000000000E+00 0.  1.
         21   -1    0    0  502  503 -0.00000000000E+00 -0.00000000000E+00 -0.58227927670E+02  0.58227927670E+02  0.00000000000E+00 0.  1.
         -6    2    1    2    0  503 -0.80063184660E+01  0.39547415606E+02  0.16416456890E+03  0.24200003395E+03  0.17316440608E+03 0.  0.
        -24    2    3    3    0    0 -0.51164426147E+02 -0.37743323220E+00  0.32149589967E+02  0.97408677099E+02  0.76399694243E+02 0.  0.
          6    2    1    2  501    0  0.80063184660E+01 -0.39547415606E+02  0.35466978728E+03  0.39329017757E+03  0.16510120093E+03 0.  0.
         24    2    5    5    0    0  0.66596457143E+02 -0.27727327002E+02  0.23421069468E+03  0.25873534921E+03  0.82978543384E+02 0.  0.
          5    1    5    5  501    0 -0.58590138677E+02 -0.11820088604E+02  0.12045909260E+03  0.13455482836E+03  0.47000000000E+01 0. -1.
        -11    1    6    6    0    0  0.74223594104E+01 -0.26054838446E+02  0.13586847762E+02  0.30307564365E+02  0.00000000000E+00 0.  1.
         12    1    6    6    0    0  0.59174097732E+02 -0.16724885562E+01  0.22062384692E+03  0.22842778485E+03  0.00000000000E+00 0. -1.
         -5    1    3    3    0  503  0.43158107681E+02  0.39924848838E+02  0.13201497893E+03  0.14459135685E+03  0.47000000000E+01 0.  1.
         13    1    4    4    0    0  0.70260863303E+01 -0.24662656452E+02 -0.19609309014E+01  0.25718821170E+02  0.00000000000E+00 0. -1.
        -14    1    4    4    0    0 -0.58190512477E+02  0.24285223220E+02  0.34110520868E+02  0.71689855929E+02  0.00000000000E+00 0.  1.
</event>
<event>
12    1  0.8462562E-002  0.1870771E+03  0.7818608E-02  0.1161248E+00
         21   -1    0    0  501  502  0.00000000000E+00  0.00000000000E+00  0.21709850657E+03  0.21709850657E+03  0.00000000000E+00 0. -1.
         21   -1    0    0  502  503 -0.00000000000E+00 -0.00000000000E+00 -0.32128813712E+03  0.32128813712E+03  0.00000000000E+00 0. -1.
         -6    2    1    2    0  503  0.28141881803E+02  0.67740962762E+02  0.13815706245E+03  0.23256228220E+03  0.17209601289E+03 0.  0.
        -24    2    3    3    0    0  0.43433267953E+02  0.66537421548E+01  0.11360420655E+02  0.90911467234E+02  0.78772550215E+02 0.  0.
          6    2    1    2  501    0 -0.28141881803E+02 -0.67740962762E+02 -0.24234669299E+03  0.30582436149E+03  0.17151039890E+03 0.  0.
         24    2    5    5    0    0  0.43827555973E+02 -0.55204497133E+02 -0.11155190244E+03  0.15593730341E+03  0.83091663185E+02 0.  0.
          5    1    5    5  501    0 -0.71969437776E+02 -0.12536465629E+02 -0.13079479055E+03  0.14988705808E+03  0.47000000000E+01 0. -1.
        -11    1    6    6    0    0  0.33723354659E+02  0.20636561135E+01 -0.44660182389E+01  0.34080326361E+02  0.00000000000E+00 0.  1.
         12    1    6    6    0    0  0.10104201315E+02 -0.57268153246E+02 -0.10708588420E+03  0.12185697705E+03  0.00000000000E+00 0. -1.
         -5    1    3    3    0  503 -0.15291386150E+02  0.61087220607E+02  0.12679664179E+03  0.14165081497E+03  0.47000000000E+01 0.  1.
         11    1    4    4    0    0  0.20670689400E+02 -0.33861312226E+02  0.18709498953E+02  0.43862412348E+02  0.00000000000E+00 0. -1.
        -12    1    4    4    0    0  0.22762578552E+02  0.40515054380E+02 -0.73490782983E+01  0.47049054886E+02  0.00000000000E+00 0.  1.
</event>
<event>
12    1  0.8462562E-002  0.2301611E+03  0.7818608E-02  0.1127013E+00
         21   -1    0    0  503  502  0.00000000000E+00  0.00000000000E+00  0.36667338341E+03  0.36667338341E+03  0.00000000000E+00 0. -1.
         21   -1    0    0  501  503 -0.00000000000E+00 -0.00000000000E+00 -0.21201855374E+03  0.21201855374E+03  0.00000000000E+00 0.  1.
          6    2    1    2  501    0  0.12996694660E+03 -0.78801646718E+02 -0.87742954780E+02  0.24631882705E+03  0.17283816625E+03 0.  0.
         24    2    3    3    0    0  0.13333293619E+02 -0.78136967776E+02 -0.32184412993E+02  0.11704124829E+03  0.79872741969E+02 0.  0.
         -6    2    1    2    0  502 -0.12996694660E+03  0.78801646718E+02  0.24239778445E+03  0.33237311010E+03  0.16915700305E+03 0.  0.
        -24    2    5    5    0    0  0.86834584400E+00  0.43305671759E+02  0.80544574170E+02  0.12119453718E+03  0.79527053145E+02 0.  0.
          5    1    3    3  501    0  0.11663365298E+03 -0.66467894145E+00 -0.55558541788E+02  0.12927757876E+03  0.47000000000E+01 0. -1.
        -13    1    4    4    0    0  0.13526290065E+02  0.10670087670E+02 -0.21564231235E+02  0.27601220309E+02  0.00000000000E+00 0.  1.
         14    1    4    4    0    0 -0.19299644581E+00 -0.88807055446E+02 -0.10620181758E+02  0.89440027981E+02  0.00000000000E+00 0. -1.
         -5    1    5    5    0  502 -0.13083529244E+03  0.35495974958E+02  0.16185321028E+03  0.21117857293E+03  0.47000000000E+01 0.  1.
         11    1    6    6    0    0 -0.10490445488E+02 -0.50999432167E+01  0.69226251890E+02  0.70202085568E+02  0.00000000000E+00 0. -1.
        -12    1    6    6    0    0  0.11358791332E+02  0.48405614976E+02  0.11318322280E+02  0.50992451608E+02  0.00000000000E+00 0.  1.
</event>
<event>
12    1  0.8462562E-002  0.2647077E+03  0.7818608E-02  0.1104523E+00
         21   -1    0    0  501  502  0.00000000000E+00  0.00000000000E+00  0.21595354549E+03  0.21595354549E+03  0.00000000000E+00 0. -1.
         21   -1    0    0  502  503 -0.00000000000E+00 -0.00000000000E+00 -0.72858148320E+03  0.72858148320E+03  0.00000000000E+00 0. -1.
         -6    2    1    2    0  503 -0.16345163797E+03  0.11519096090E+03 -0.60841421704E+03  0.66302981396E+03  0.17162540393E+03 0.  0.
        -24    2    3    3    0    0 -0.85625298769E+02  0.76120411978E+02 -0.18972396141E+03  0.23535345615E+03  0.79183703380E+02 0.  0.
          6    2    1    2  501    0  0.16345163797E+03 -0.11519096090E+03  0.95786279329E+02  0.28150521473E+03  0.17344964451E+03 0.  0.
         24    2    5    5    0    0  0.18324709461E+03 -0.79190173002E+02  0.50902418649E+02  0.22047597762E+03  0.78536738544E+02 0.  0.
          5    1    5    5  501    0 -0.19795456633E+02 -0.36000787895E+02  0.44883860681E+02  0.61029237108E+02  0.47000000000E+01 0. -1.
        -11    1    6    6    0    0 -0.43505526766E+01  0.60868622255E+01 -0.19579038541E+01  0.77337305258E+01  0.00000000000E+00 0.  1.
         12    1    6    6    0    0  0.18759764728E+03 -0.85277035227E+02  0.52860322503E+02  0.21274224709E+03  0.00000000000E+00 0. -1.
         -5    1    3    3    0  503 -0.77826339205E+02  0.39070548919E+02 -0.41869025563E+03  0.42767635780E+03  0.47000000000E+01 0.  1.
         11    1    4    4    0    0 -0.33083162810E+02 -0.65782416885E+01 -0.87409125839E+02  0.93691644266E+02  0.00000000000E+00 0. -1.
        -12    1    4    4    0    0 -0.52542135959E+02  0.82698653666E+02 -0.10231483557E+03  0.14166181189E+03  0.00000000000E+00 0.  1.
</event>
<event>
12    1  0.8462562E-002  0.1792869E+03  0.7818608E-02  0.1168607E+00
         21   -1    0    0  501  502  0.00000000000E+00  0.00000000000E+00  0.31075825635E+02  0.31075825635E+02  0.00000000000E+00 0.  1.
         21   -1    0    0  502  503 -0.00000000000E+00 -0.00000000000E+00 -0.10618098867E+04  0.10618098867E+04  0.00000000000E+00 0.  1.
         -6    2    1    2    0  503  0.47677094401E+02 -0.94301645564E+01 -0.60670526885E+03  0.63251173625E+03  0.17209816941E+03 0.  0.
        -24    2    3    3    0    0 -0.24630392472E+02  0.32110281081E+02 -0.23091181478E+03  0.24754837254E+03  0.79512289344E+02 0.  0.
          6    2    1    2  501    0 -0.47677094401E+02  0.94301645564E+01 -0.42402879220E+03  0.46037397607E+03  0.17257389110E+03 0.  0.
         24    2    5    5    0    0 -0.30785970980E+02  0.17042333660E+02 -0.43118865136E+03  0.43996298021E+03  0.80034703405E+02 0.  0.
          5    1    5    5  501    0 -0.16891123421E+02 -0.76121691040E+01  0.71598591548E+01  0.20410995860E+02  0.47000000000E+01 0. -1.
        -13    1    6    6    0    0 -0.39404114340E+02  0.43145102291E+02 -0.32863994425E+03  0.33379394398E+03  0.00000000000E+00 0.  1.
         14    1    6    6    0    0  0.86181433595E+01 -0.26102768631E+02 -0.10254870711E+03  0.10616903623E+03  0.00000000000E+00 0. -1.
         -5    1    3    3    0  503  0.72307486873E+02 -0.41540445637E+02 -0.37579345407E+03  0.38496336371E+03  0.47000000000E+01 0.  1.
         11    1    4    4    0    0 -0.35802923257E+02 -0.11134054329E+02 -0.15501150878E+03  0.15948161127E+03  0.00000000000E+00 0. -1.
        -12    1    4    4    0    0  0.11172530785E+02  0.43244335409E+02 -0.75900306006E+02  0.88066761272E+02  0.00000000000E+00 0.  1.
</event>
<event>
12    1  0.8462562E-002  0.2189779E+03  0.7818608E-02  0.1134913E+00
         21   -1    0    0  501  502  0.00000000000E+00  0.00000000000E+00  0.62295749392E+02  0.62295749392E+02  0.00000000000E+00 0. -1.
         21   -1    0    0  502  503 -0.00000000000E+00 -0.00000000000E+00 -0.78588880952E+03  0.78588880952E+03  0.00000000000E+00 0. -1.
         -6    2    1    2    0  503  0.10720949093E+03  0.80870638343E+02 -0.29117488594E+03  0.36348176790E+03  0.17117898908E+03 0.  0.
        -24    2    3    3    0    0  0.52805201918E+02  0.90701830497E+02 -0.27630895948E+03  0.30603992973E+03  0.79363632086E+02 0.  0.
          6    2    1    2  501    0 -0.10720949093E+03 -0.80870638343E+02 -0.43241817419E+03  0.48470279102E+03  0.17296642204E+03 0.  0.
         24    2    5    5    0    0 -0.12741010005E+03 -0.23743266922E+02 -0.35150991734E+03  0.38351071029E+03  0.82001015866E+02 0.  0.
          5    1    5    5  501    0  0.20200609115E+02 -0.57127371421E+02 -0.80908256853E+02  0.10119208072E+03  0.47000000000E+01 0. -1.
        -13    1    6    6    0    0  0.13847975771E+01 -0.22904199775E+02 -0.75866318453E+02  0.79260446045E+02  0.00000000000E+00 0.  1.
         14    1    6    6    0    0 -0.12879489762E+03 -0.83906714691E+00 -0.27564359889E+03  0.30425026425E+03  0.00000000000E+00 0. -1.
         -5    1    3    3    0  503  0.54404289015E+02 -0.98311921539E+01 -0.14865926459E+02  0.57441838165E+02  0.47000000000E+01 0.  1.
         11    1    4    4    0    0 -0.79084965006E+01  0.49025829382E+01 -0.10249805024E+03  0.10291953138E+03  0.00000000000E+00 0. -1.
        -12    1    4    4    0    0  0.60713698419E+02  0.85799247558E+02 -0.17381090924E+03  0.20312039836E+03  0.00000000000E+00 0.  1.
</event>
<event>
12    1  0.8462562E-002  0.1841250E+03  0.7818608E-02  0.1164044E+00
         21   -1    0    0  503  502  0.00000000000E+00  0.00000000000E+00  0.43951891258E+03  0.43951891258E+03  0.00000000000E+00 0.  1.
         21   -1    0    0  501  503 -0.00000000000E+00 -0.00000000000E+00 -0.88314457398E+02  0.88314457398E+02  0.00000000000E+00 0.  1.
          6    2    1    2  501    0 -0.34202613870E+01  0.61734685146E+02  0.27049143539E+03  0.32679458095E+03  0.17264475659E+03 0.  0.
         24    2    3    3    0    0  0.44269122005E+02  0.54146484341E+02  0.25353012783E+03  0.27539775192E+03  0.81699443797E+02 0.  0.
         -6    2    1    2    0  502  0.34202613870E+01 -0.61734685146E+02  0.80713019796E+02  0.20103878904E+03  0.17343336932E+03 0.  0.
        -24    2    5    5    0    0 -0.64970812224E+02 -0.36612113207E+02  0.37861511820E+02  0.11638169065E+03  0.80929293632E+02 0.  0.
          5    1    3    3  501    0 -0.47689383391E+02  0.75882008046E+01  0.16961307562E+02  0.51396829026E+02  0.47000000000E+01 0. -1.
        -11    1    4    4    0    0  0.53712809136E+02  0.16138862200E+01  0.11481189097E+03  0.12676529810E+03  0.00000000000E+00 0.  1.
         12    1    4    4    0    0 -0.94436871316E+01  0.52532598121E+02  0.13871823685E+03  0.14863245382E+03  0.00000000000E+00 0. -1.
         -5    1    5    5    0  502  0.68391073611E+02 -0.25122571939E+02  0.42851507976E+02  0.84657098381E+02  0.47000000000E+01 0.  1.
         13    1    6    6    0    0 -0.11868609846E+02  0.19411732205E+02  0.31597009125E+02  0.38936489731E+02  0.00000000000E+00 0. -1.
        -14    1    6    6    0    0 -0.53102202378E+02 -0.56023845412E+02  0.62645026947E+01  0.77445200924E+02  0.00000000000E+00 0.  1.
</event>
<event>
12    1  0.8462562E-002  0.1960188E+03  0.7818608E-02  0.1153196E+00
         21   -1    0    0  501  502  0.00000000000E+00  0.00000000000E+00  0.21387575882E+03  0.21387575882E+03  0.00000000000E+00 0.  1.
         21   -1    0    0  502  503 -0.00000000000E+00 -0.00000000000E+00 -0.80321812553E+03  0.80321812553E+03  0.00000000000E+00 0.  1.
         -6    2    1    2    0  503  0.93903519162E+02  0.55385936278E+01 -0.74279115432E+03  0.76815634972E+03  0.17168847300E+03 0.  0.
        -24    2    3    3    0    0  0.79631859068E+02  0.57099242402E+02 -0.35242169892E+03  0.37410992798E+03  0.78457809564E+02 0.  0.
          6    2    1    2  501    0 -0.93903519162E+02 -0.55385936278E+01  0.15344878761E+03  0.24893753462E+03  0.17197330838E+03 0.  0.
         24    2    5    5    0    0 -0.75309820361E+01 -0.49234616862E+02  0.47650775271E+02  0.10546326156E+03  0.79819420989E+02 0.  0.
          5    1    5    5  501    0 -0.86372537126E+02  0.43696023234E+02  0.10579801234E+03  0.14347427306E+03  0.47000000000E+01 0. -1.
        -13    1    6    6    0    0  0.31672429428E+02 -0.16192570062E+02  0.40159481183E+02  0.53648169027E+02  0.00000000000E+00 0.  1.
         14    1    6    6    0    0 -0.39203411464E+02 -0.33042046800E+02  0.74912940881E+01  0.51815092534E+02  0.00000000000E+00 0. -1.
         -5    1    3    3    0  503  0.14271660094E+02 -0.51560648775E+02 -0.39036945540E+03  0.39404642175E+03  0.47000000000E+01 0.  1.
         13    1    4    4    0    0  0.81327558542E+02  0.35464137187E+02 -0.33418849099E+03  0.34576556265E+03  0.00000000000E+00 0. -1.
        -14    1    4    4    0    0 -0.16956994742E+01  0.21635105215E+02 -0.18233207924E+02  0.28344365323E+02  0.00000000000E+00 0.  1.
</event>
<event>
12    1  0.8462562E-002  0.1863419E+03  0.7818608E-02  0.1162123E+00
         21   -1    0    0  501  502  0.00000000000E+00  0.00000000000E+00  0.29605038682E+03  0.29605038682E+03  0.00000000000E+00 0.  1.
         21   -1    0    0  502  503 -0.00000000000E+00 -0.00000000000E+00 -0.14838040999E+03  0.14838040999E+03  0.00000000000E+00 0.  1.
         -6    2    1    2    0  503 -0.60420466600E+02  0.29925539662E+02 -0.29506360459E+02  0.18730291865E+03  0.17223700914E+03 0.  0.
        -24    2    3    3    0    0 -0.10593484948E+03  0.76606146614E+01 -0.12771899340E+02  0.13373596874E+03  0.80257775757E+02 0.  0.
          6    2    1    2  501    0  0.60420466600E+02 -0.29925539662E+02  0.17717633729E+03  0.25712787816E+03  0.17371563121E+03 0.  0.
         24    2    5    5    0    0  0.93949828423E+02 -0.57780662918E+02  0.15680445339E+03  0.20878297513E+03  0.82689290917E+02 0.  0.
          5    1    5    5  501    0 -0.33529361822E+02  0.27855123257E+02  0.20371883893E+02  0.48344903032E+02  0.47000000000E+01 0. -1.
        -13    1    6    6    0    0  0.51876697305E+02 -0.75070425760E+02  0.11670266188E+03  0.14814274143E+03  0.00000000000E+00 0.  1.
         14    1    6    6    0    0  0.42073131118E+02  0.17289762842E+02  0.40101791510E+02  0.60640233703E+02  0.00000000000E+00 0. -1.
         -5    1    3    3    0  503  0.45514382880E+02  0.22264925000E+02 -0.16734461119E+02  0.53566949915E+02  0.47000000000E+01 0.  1.
         13    1    4    4    0    0 -0.11540457894E+03  0.11194288654E+02 -0.24236232358E+02  0.11845220090E+03  0.00000000000E+00 0. -1.
        -14    1    4    4    0    0  0.94697294563E+01 -0.35336739922E+01  0.11464333018E+02  0.15283767840E+02  0.00000000000E+00 0.  1.
</event>
<event>
12    1  0.8462562E-002  0.2281441E+03  0.7818608E-02  0.1130066E+00
         21   -1    0    0  501  502  0.00000000000E+00  0.00000000000E+00  0.17966516037E+03  0.17966516037E+03  0.00000000000E+00 0. -1.
         21   -1    0    0  502  503 -0.00000000000E+00 -0.00000000000E+00 -0.29055620936E+03  0.29055620936E+03  0.00000000000E+00 0. -1.
         -6    2    1    2    0  503  0.11320432634E+03  0.10011639286E+03 -0.10808924094E+03  0.24206005777E+03  0.15514920541E+03 0.  0.
        -24    2    3    3    0    0  0.56550257487E+02  0.51032171911E+02 -0.12385112360E+03  0.16531716749E+03  0.78666707433E+02 0.  0.
          6    2    1    2  501    0 -0.11320432634E+03 -0.10011639286E+03 -0.28018080479E+01  0.22816131196E+03  0.17091290918E+03 0.  0.
         24    2    5    5    0    0 -0.12861908985E+03 -0.11900031302E+03 -0.25733818311E+02  0.19436509221E+03  0.80072560165E+02 0.  0.
          5    1    5    5  501    0  0.15414763510E+02  0.18883920164E+02  0.22932010263E+02  0.33796219752E+02  0.47000000000E+01 0. -1.
        -13    1    6    6    0    0  0.10719801267E+02 -0.13733292462E+02  0.20294287209E+01  0.17539556493E+02  0.00000000000E+00 0.  1.
         14    1    6    6    0    0 -0.13933889112E+03 -0.10526702056E+03 -0.27763247032E+02  0.17682553571E+03  0.00000000000E+00 0. -1.
         -5    1    3    3    0  503  0.56654068854E+02  0.49084220946E+02  0.15761882659E+02  0.76742890280E+02  0.47000000000E+01 0.  1.
         13    1    4    4    0    0  0.64748660858E+02  0.74795631315E+01 -0.72937500728E+02  0.97817237541E+02  0.00000000000E+00 0. -1.
        -14    1    4    4    0    0 -0.81984033714E+01  0.43552608779E+02 -0.50913622868E+02  0.67499929947E+02  0.00000000000E+00 0.  1.
</event>
<event>
12    1  0.8462562E-002  0.1989847E+03  0.7818608E-02  0.1152200E+00
         21   -1    0    0  503  502  0.00000000000E+00  0.00000000000E+00  0.11222734151E+04  0.11222734151E+04  0.00000000000E+00 0.  1.
         21   -1    0    0  501  503 -0.00000000000E+00 -0.00000000000E+00 -0.17311866319E+03  0.17311866319E+03  0.00000000000E+00 0.  1.
          6    2    1    2  501    0 -0.54356845569E+02  0.67976451907E+02 -0.10782013155E+03  0.21984997185E+03  0.17068498669E+03 0.  0.
         24    2    3    3    0    0 -0.69445441362E+02  0.12116709293E+02 -0.11977752401E+03  0.16057901941E+03  0.80433091750E+02 0.  0.
         -6    2    1    2    0  502  0.54356845569E+02 -0.67976451907E+02  0.10569748834E+04  0.10755421064E+04  0.17893980494E+03 0.  0.
        -24    2    5    5    0    0 -0.41915990327E+02 -0.24526631942E+02  0.45815896367E+03  0.46746403450E+03  0.79085280798E+02 0.  0.
          5    1    3    3  501    0  0.15088595793E+02  0.55859742613E+02  0.11957392461E+02  0.59270952433E+02  0.47000000000E+01 0. -1.
        -11    1    4    4    0    0 -0.18393940294E+02  0.29527467619E+02 -0.95100098347E+02  0.10126320699E+03  0.00000000000E+00 0.  1.
         12    1    4    4    0    0 -0.51051501068E+02 -0.17410758326E+02 -0.24677425663E+02  0.59315812429E+02  0.00000000000E+00 0. -1.
         -5    1    5    5    0  502  0.96272835896E+02 -0.43449819965E+02  0.59881591977E+03  0.60807807192E+03  0.47000000000E+01 0.  1.
         11    1    6    6    0    0  0.14376847563E+02 -0.13564922652E+02  0.33093264637E+02  0.38546919939E+02  0.00000000000E+00 0. -1.
        -12    1    6    6    0    0 -0.56292837890E+02 -0.10961709290E+02  0.42506569903E+03  0.42891711456E+03  0.00000000000E+00 0.  1.
</event>
<event>
12    1  0.8462562E-002  0.1812001E+03  0.7818608E-02  0.1167507E+00
         21   -1    0    0  501  502  0.00000000000E+00  0.00000000000E+00  0.12144387600E+04  0.12144387600E+04  0.00000000000E+00 0. -1.
         21   -1    0    0  502  503 -0.00000000000E+00 -0.00000000000E+00 -0.37761554006E+02  0.37761554006E+02  0.00000000000E+00 0.  1.
         -6    2    1    2    0  503 -0.25015021270E+02 -0.38454392031E+02  0.25065536981E+03  0.30929206782E+03  0.17529682612E+03 0.  0.
        -24    2    3    3    0    0  0.22025736979E+02 -0.80757189327E+02  0.13627085968E+03  0.17849349844E+03  0.79267427541E+02 0.  0.
          6    2    1    2  501    0  0.25015021270E+02  0.38454392031E+02  0.92602183618E+03  0.94290824618E+03  0.17162467210E+03 0.  0.
         24    2    5    5    0    0 -0.24344513524E+02 -0.76523294735E+01  0.74261224399E+03  0.74740028739E+03  0.80517272559E+02 0.  0.
          5    1    5    5  501    0  0.49359534793E+02  0.46106721505E+02  0.18340959219E+03  0.19550795879E+03  0.47000000000E+01 0. -1.
        -13    1    6    6    0    0 -0.87798319226E+01  0.46932357067E+00  0.61522651448E+01  0.10731080077E+02  0.00000000000E+00 0.  1.
         14    1    6    6    0    0 -0.15564681601E+02 -0.81216530441E+01  0.73645997884E+03  0.73666920731E+03  0.00000000000E+00 0. -1.
         -5    1    3    3    0  503 -0.47040758249E+02  0.42302797295E+02  0.11438451012E+03  0.13079856938E+03  0.47000000000E+01 0.  1.
         11    1    4    4    0    0  0.14432280351E+02 -0.80357522303E+02  0.14531377638E+03  0.16667848005E+03  0.00000000000E+00 0. -1.
        -12    1    4    4    0    0  0.75934566280E+01 -0.39966702375E+00 -0.90429166919E+01  0.11815018391E+02  0.00000000000E+00 0.  1.
</event>
<event>
12    1  0.8462562E-002  0.1823255E+03  0.7818608E-02  0.1165977E+00
         21   -1    0    0  503  502  0.00000000000E+00  0.00000000000E+00  0.40851377542E+03  0.40851377542E+03  0.00000000000E+00 0. -1.
         21   -1    0    0  501  503 -0.00000000000E+00 -0.00000000000E+00 -0.93240232483E+02  0.93240232483E+02  0.00000000000E+00 0. -1.
          6    2    1    2  501    0  0.11155914574E+02  0.57223315367E+02  0.65972972324E+02  0.19389436881E+03  0.17275309239E+03 0.  0.
         24    2    3    3    0    0  0.74541427841E+02  0.35146680340E+02  0.46347816123E+02  0.12380629663E+03  0.79925999667E+02 0.  0.
         -6    2    1    2    0  502 -0.11155914574E+02 -0.57223315367E+02  0.24930057061E+03  0.30785963909E+03  0.17096145946E+03 0.  0.
        -24    2    5    5    0    0 -0.49973883625E+02  0.17986757112E+02  0.12813354929E+03  0.15998493950E+03  0.79724914147E+02 0.  0.
          5    1    3    3  501    0 -0.63385513267E+02  0.22076635027E+02  0.19625156200E+02  0.70088072181E+02  0.47000000000E+01 0. -1.
        -13    1    4    4    0    0  0.29421017336E+02 -0.25380519417E+02  0.21017335611E+02  0.44175733419E+02  0.00000000000E+00 0.  1.
         14    1    4    4    0    0  0.45120410505E+02  0.60527199757E+02  0.25330480512E+02  0.79630563213E+02  0.00000000000E+00 0. -1.
         -5    1    5    5    0  502  0.38817969051E+02 -0.75210072480E+02  0.12116702132E+03  0.14787469959E+03  0.47000000000E+01 0.  1.
         13    1    6    6    0    0 -0.56453345198E+01 -0.27156362647E+02  0.64690914471E+02  0.70386449329E+02  0.00000000000E+00 0. -1.
        -14    1    6    6    0    0 -0.44328549105E+02  0.45143119759E+02  0.63442634820E+02  0.89598490167E+02  0.00000000000E+00 0.  1.
</event>
<event>
12    1  0.8462562E-002  0.3472925E+03  0.7818608E-02  0.1064168E+00
         21   -1    0    0  503  502  0.00000000000E+00  0.00000000000E+00  0.22871525471E+03  0.22871525471E+03  0.00000000000E+00 0.  1.
         21   -1    0    0  501  503 -0.00000000000E+00 -0.00000000000E+00 -0.56034430112E+03  0.56034430112E+03  0.00000000000E+00 0. -1.
          6    2    1    2  501    0 -0.12742543761E+02 -0.29590389096E+03 -0.26940246450E+03  0.43623628180E+03  0.17321351154E+03 0.  0.
         24    2    3    3    0    0  0.74387562844E+01 -0.29163223244E+03 -0.28046442750E+03  0.41236184017E+03  0.79229401345E+02 0.  0.
         -6    2    1    2    0  502  0.12742543761E+02  0.29590389096E+03 -0.62226581914E+02  0.35282327402E+03  0.18135774064E+03 0.  0.
        -24    2    5    5    0    0  0.39894706524E+02  0.18947026666E+03 -0.10555487233E+03  0.23465057381E+03  0.80177872025E+02 0.  0.
          5    1    3    3  501    0 -0.20181300045E+02 -0.42716585209E+01  0.11061963006E+02  0.23874441639E+02  0.47000000000E+01 0. -1.
        -11    1    4    4    0    0 -0.17452818491E+02 -0.63039419097E+02 -0.28809769184E+02  0.71474275329E+02  0.00000000000E+00 0.  1.
         12    1    4    4    0    0  0.24891574776E+02 -0.22859281334E+03 -0.25165465832E+03  0.34088756484E+03  0.00000000000E+00 0. -1.
         -5    1    5    5    0  502 -0.27152162763E+02  0.10643362431E+03  0.43328290415E+02  0.11817270021E+03  0.47000000000E+01 0.  1.
         13    1    6    6    0    0 -0.91293174618E+01 -0.34302426268E+01 -0.93645321977E+00  0.97973438456E+01  0.00000000000E+00 0. -1.
        -14    1    6    6    0    0  0.49024023986E+02  0.19290050928E+03 -0.10461841911E+03  0.22485322997E+03  0.00000000000E+00 0.  1.
</event>
<event>
12    1  0.8462562E-002  0.1761476E+03  0.7818608E-02  0.1171865E+00
         21   -1    0    0  503  502  0.00000000000E+00  0.00000000000E+00  0.14196474004E+03  0.14196474004E+03  0.00000000000E+00 0. -1.
         21   -1    0    0  501  503 -0.00000000000E+00 -0.00000000000E+00 -0.21954469806E+03  0.21954469806E+03  0.00000000000E+00 0. -1.
          6    2    1    2  501    0 -0.16941062672E+02 -0.24153698962E+02 -0.57475118836E+02  0.18421817562E+03  0.17251824879E+03 0.  0.
         24    2    3    3    0    0  0.50387930979E+02 -0.16301879174E+02 -0.56944428892E+00  0.95588664423E+02  0.79574956151E+02 0.  0.
         -6    2    1    2    0  502  0.16941062672E+02  0.24153698962E+02 -0.20104839192E+02  0.17729126248E+03  0.17365939771E+03 0.  0.
        -24    2    5    5    0    0  0.14977376762E+02  0.74852333697E+02  0.20182832577E+02  0.11233439892E+03  0.79902920943E+02 0.  0.
          5    1    3    3  501    0 -0.67328993651E+02 -0.78518197880E+01 -0.56905674547E+02  0.88629511201E+02  0.47000000000E+01 0. -1.
        -13    1    4    4    0    0  0.42685497803E+02  0.26548363244E+02 -0.94673185932E+01  0.51151709990E+02  0.00000000000E+00 0.  1.
         14    1    4    4    0    0  0.77024331763E+01 -0.42850242418E+02  0.88978743043E+01  0.44436954433E+02  0.00000000000E+00 0. -1.
         -5    1    5    5    0  502  0.19636859100E+01 -0.50698634735E+02 -0.40287671770E+02  0.64956863555E+02  0.47000000000E+01 0.  1.
         13    1    6    6    0    0  0.22976771297E+02  0.55285800383E+02  0.48463252121E+02  0.77026869009E+02  0.00000000000E+00 0. -1.
        -14    1    6    6    0    0 -0.79993945344E+01  0.19566533314E+02 -0.28280419543E+02  0.35307529911E+02  0.00000000000E+00 0.  1.
</event>
<event>
12    1  0.8462562E-002  0.3671597E+03  0.7818608E-02  0.1055785E+00
         21   -1    0    0  501  502  0.00000000000E+00  0.00000000000E+00  0.10578023155E+03  0.10578023155E+03  0.00000000000E+00 0. -1.
         21   -1    0    0  502  503 -0.00000000000E+00 -0.00000000000E+00 -0.13210136826E+04  0.13210136826E+04  0.00000000000E+00 0.  1.
         -6    2    1    2    0  503 -0.20928314794E+03 -0.24852419245E+03 -0.74169645800E+03  0.82759887821E+03  0.17100455302E+03 0.  0.
        -24    2    3    3    0    0 -0.18726721001E+03 -0.12605237764E+03 -0.52742330272E+03  0.57977006224E+03  0.83664657851E+02 0.  0.
          6    2    1    2  501    0  0.20928314794E+03  0.24852419245E+03 -0.47353699304E+03  0.59919503592E+03  0.17097864502E+03 0.  0.
         24    2    5    5    0    0  0.12585570951E+03  0.14633060388E+03 -0.39126917249E+03  0.44365162936E+03  0.80516443306E+02 0.  0.
          5    1    5    5  501    0  0.83427438437E+02  0.10219358857E+03 -0.82267820548E+02  0.15554340657E+03  0.47000000000E+01 0. -1.
        -13    1    6    6    0    0  0.75373634093E+02  0.13235704491E+03 -0.32705545795E+03  0.36078365350E+03  0.00000000000E+00 0.  1.
         14    1    6    6    0    0  0.50482075414E+02  0.13973558967E+02 -0.64213714536E+02  0.82867975858E+02  0.00000000000E+00 0. -1.
         -5    1    3    3    0  503 -0.22015937932E+02 -0.12247181481E+03 -0.21427315528E+03  0.24782881596E+03  0.47000000000E+01 0.  1.
         11    1    4    4    0    0 -0.31791428404E+02  0.35293306562E+01 -0.35215384380E+02  0.47573883507E+02  0.00000000000E+00 0. -1.
        -12    1    4    4    0    0 -0.15547578161E+03 -0.12958170829E+03 -0.49220791833E+03  0.53219617874E+03  0.00000000000E+00 0.  1.
</event>
<event>
12    1  0.8462562E-002  0.5538097E+03  0.7818608E-02  0.1000703E+00
         21   -1    0    0  501  502  0.00000000000E+00  0.00000000000E+00  0.67149957637E+03  0.67149957637E+03  0.00000000000E+00 0. -1.
         21   -1    0    0  502  503 -0.00000000000E+00 -0.00000000000E+00 -0.48574507879E+03  0.48574507879E+03  0.00000000000E+00 0. -1.
         -6    2    1    2    0  503 -0.21099798487E+03  0.48217144832E+03 -0.51638948668E+02  0.55469934728E+03  0.16737780515E+03 0.  0.
        -24    2    3    3    0    0 -0.10723941533E+03  0.27708316610E+03  0.33950781620E+02  0.30939395355E+03  0.79351054123E+02 0.  0.
          6    2    1    2  501    0  0.21099798487E+03 -0.48217144832E+03  0.23739344625E+03  0.60254530788E+03  0.17232453260E+03 0.  0.
         24    2    5    5    0    0  0.19552962347E+03 -0.29352153286E+03  0.12720890342E+03  0.38347731778E+03  0.80535856852E+02 0.  0.
          5    1    5    5  501    0  0.15468361401E+02 -0.18864991546E+03  0.11018454283E+03  0.21906799010E+03  0.47000000000E+01 0. -1.
        -11    1    6    6    0    0  0.12333144996E+03 -0.23817175345E+03  0.74615398459E+02  0.27839520179E+03  0.00000000000E+00 0.  1.
         12    1    6    6    0    0  0.72198173504E+02 -0.55349779411E+02  0.52593504957E+02  0.10508211599E+03  0.00000000000E+00 0. -1.
         -5    1    3    3    0  503 -0.10375856954E+03  0.20508828223E+03 -0.85589730288E+02  0.24530539373E+03  0.47000000000E+01 0.  1.
         13    1    4    4    0    0 -0.44109490698E+02  0.17777677412E+03 -0.10830664467E+02  0.18348714363E+03  0.00000000000E+00 0. -1.
        -14    1    4    4    0    0 -0.63129924631E+02  0.99306391979E+02  0.44781446087E+02  0.12590680992E+03  0.00000000000E+00 0.  1.
</event>
<event>
12    1  0.8462562E-002  0.3528975E+03  0.7818608E-02  0.1061444E+00
         21   -1    0    0  503  502  0.00000000000E+00  0.00000000000E+00  0.70609254316E+02  0.70609254316E+02  0.00000000000E+00 0.  1.
         21   -1    0    0  501  503 -0.00000000000E+00 -0.00000000000E+00 -0.34489936829E+04  0.34489936829E+04  0.00000000000E+00 0. -1.
          6    2    1    2  501    0  0.35897521327E+02  0.30579025522E+03 -0.29196695319E+04  0.29409193814E+04  0.17245381976E+03 0.  0.
         24    2    3    3    0    0  0.80042279319E+02  0.27584072787E+03 -0.24664016312E+04  0.24844989461E+04  0.84280089950E+02 0.  0.
         -6    2    1    2    0  502 -0.35897521327E+02 -0.30579025522E+03 -0.45871489673E+03  0.57868355589E+03  0.17221785378E+03 0.  0.
        -24    2    5    5    0    0 -0.44799173634E+02 -0.10719631609E+03 -0.27006019256E+03  0.30458233468E+03  0.79623331045E+02 0.  0.
          5    1    3    3  501    0 -0.44144757992E+02  0.29949527352E+02 -0.45326790073E+03  0.45642043521E+03  0.47000000000E+01 0. -1.
        -11    1    4    4    0    0  0.10953939726E+02  0.15513540844E+03 -0.10802699599E+04  0.10914074262E+04  0.00000000000E+00 0.  1.
         12    1    4    4    0    0  0.69088339593E+02  0.12070531943E+03 -0.13861316713E+04  0.13930915200E+04  0.00000000000E+00 0. -1.
         -5    1    5    5    0  502  0.89016523066E+01 -0.19859393912E+03 -0.18865470416E+03  0.27410122122E+03  0.47000000000E+01 0.  1.
         13    1    6    6    0    0  0.19132677572E+02 -0.54581368487E+02 -0.11933351412E+03  0.13261098269E+03  0.00000000000E+00 0. -1.
        -14    1    6    6    0    0 -0.63931851206E+02 -0.52614947608E+02 -0.15072667844E+03  0.17197135199E+03  0.00000000000E+00 0.  1.
</event>
<event>
12    1  0.8462562E-002  0.1759355E+03  0.7818608E-02  0.1172060E+00
         21   -1    0    0  501  502  0.00000000000E+00  0.00000000000E+00  0.20417531199E+03  0.20417531199E+03  0.00000000000E+00 0. -1.
         21   -1    0    0  502  503 -0.00000000000E+00 -0.00000000000E+00 -0.24260617160E+03  0.24260617160E+03  0.00000000000E+00 0. -1.
         -6    2    1    2    0  503 -0.36363059065E+02  0.18189833259E+00 -0.15675135498E+03  0.23563594881E+03  0.17213659672E+03 0.  0.
        -24    2    3    3    0    0 -0.16890624636E+02  0.65533089651E+02 -0.59609202566E+02  0.11685614545E+03  0.74311658979E+02 0.  0.
          6    2    1    2  501    0  0.36363059065E+02 -0.18189833259E+00  0.11832049536E+03  0.21114553478E+03  0.17105669260E+03 0.  0.
         24    2    5    5    0    0 -0.34385427934E+01 -0.55587288647E+02  0.51090610398E+02  0.11525042428E+03  0.87009422422E+02 0.  0.
          5    1    5    5  501    0  0.39801601858E+02  0.55405390314E+02  0.67229884961E+02  0.95895110502E+02  0.47000000000E+01 0. -1.
        -13    1    6    6    0    0 -0.30269557494E+01 -0.37652656249E+02  0.75814584738E+02  0.84703814806E+02  0.00000000000E+00 0.  1.
         14    1    6    6    0    0 -0.41158704397E+00 -0.17934632398E+02 -0.24723974341E+02  0.30546609474E+02  0.00000000000E+00 0. -1.
         -5    1    3    3    0  503 -0.19472434428E+02 -0.65351191319E+02 -0.97142152412E+02  0.11877980335E+03  0.47000000000E+01 0.  1.
         13    1    4    4    0    0 -0.40953265125E+02  0.13988217642E+02 -0.20969644228E+02  0.48089147801E+02  0.00000000000E+00 0. -1.
        -14    1    4    4    0    0  0.24062640488E+02  0.51544872010E+02 -0.38639558339E+02  0.68766997654E+02  0.00000000000E+00 0.  1.
</event>
<event>
12    1  0.8462562E-002  0.2834875E+03  0.7818608E-02  0.1093996E+00
         21   -1    0    0  503  502  0.00000000000E+00  0.00000000000E+00  0.72930941110E+03  0.72930941110E+03  0.00000000000E+00 0.  1.
         21   -1    0    0  501  503 -0.00000000000E+00 -0.00000000000E+00 -0.20493348849E+03  0.20493348849E+03  0.00000000000E+00 0. -1.
          6    2    1    2  501    0  0.55486580584E+02 -0.21874109201E+03 -0.56727240963E+02  0.28767809053E+03  0.16915755362E+03 0.  0.
         24    2    3    3    0    0  0.92417002965E+02 -0.14287702687E+03 -0.41801719169E+02  0.20186390943E+03  0.10023426042E+03 0.  0.
         -6    2    1    2    0  502 -0.55486580584E+02  0.21874109201E+03  0.58110316357E+03  0.64656480906E+03  0.17157721188E+03 0.  0.
        -24    2    5    5    0    0  0.28299662166E+02  0.66246431751E+02  0.17383247569E+03  0.20365820593E+03  0.77906833078E+02 0.  0.
          5    1    3    3  501    0 -0.36930422381E+02 -0.75864065141E+02 -0.14925521794E+02  0.85814181099E+02  0.47000000000E+01 0. -1.
        -11    1    4    4    0    0  0.46753231970E+02  0.76129624129E+00 -0.10613096094E+02  0.47948744304E+02  0.00000000000E+00 0.  1.
         12    1    4    4    0    0  0.45663770995E+02 -0.14363832311E+03 -0.31188623075E+02  0.15391516513E+03  0.00000000000E+00 0. -1.
         -5    1    5    5    0  502 -0.83786242750E+02  0.15249466026E+03  0.40727068789E+03  0.44290660313E+03  0.47000000000E+01 0.  1.
         13    1    6    6    0    0  0.32947521496E+02  0.21514484295E+02  0.14498154913E+03  0.15022670134E+03  0.00000000000E+00 0. -1.
        -14    1    6    6    0    0 -0.46478593301E+01  0.44731947456E+02  0.28850926559E+02  0.53431504591E+02  0.00000000000E+00 0.  1.
</event>
<event>
12    1  0.8462562E-002  0.1798719E+03  0.7818608E-02  0.1168535E+00
         21   -1    0    0  501  502  0.00000000000E+00  0.00000000000E+00  0.38445344505E+03  0.38445344505E+03  0.00000000000E+00 0. -1.
         21   -1    0    0  502  503 -0.00000000000E+00 -0.00000000000E+00 -0.96526334134E+02  0.96526334134E+02  0.00000000000E+00 0. -1.
         -6    2    1    2    0  503 -0.33847302369E+02  0.25463079802E+02  0.53059022717E+02  0.18514718417E+03  0.17225043281E+03 0.  0.
        -24    2    3    3    0    0 -0.54549363533E+02 -0.20695641930E+02 -0.14036352851E+02  0.10098613408E+03  0.81223379757E+02 0.  0.
          6    2    1    2  501    0  0.33847302369E+02 -0.25463079802E+02  0.23486808820E+03  0.29583259502E+03  0.17481389278E+03 0.  0.
         24    2    5    5    0    0 -0.29590503007E+02 -0.26288302926E+02  0.20818927823E+03  0.22684792248E+03  0.80935354600E+02 0.  0.
          5    1    5    5  501    0  0.63437805376E+02  0.82522312414E+00  0.26678809974E+02  0.68984672542E+02  0.47000000000E+01 0. -1.
        -13    1    6    6    0    0 -0.44393209384E+02 -0.35271490926E+02  0.83310197201E+02  0.10077412401E+03  0.00000000000E+00 0.  1.
         14    1    6    6    0    0  0.14802706377E+02  0.89831879996E+01  0.12487908103E+03  0.12607379847E+03  0.00000000000E+00 0. -1.
         -5    1    3    3    0  503  0.20702061164E+02  0.46158721732E+02  0.67095375569E+02  0.84161050083E+02  0.47000000000E+01 0.  1.
         13    1    4    4    0    0 -0.19471354955E-01 -0.12465618630E+02 -0.38638671334E+02  0.40599740756E+02  0.00000000000E+00 0. -1.
        -14    1    4    4    0    0 -0.54529892178E+02 -0.82300233007E+01  0.24602318483E+02  0.60386393329E+02  0.00000000000E+00 0.  1.
</event>
<event>
12    1  0.8462562E-002  0.2215374E+03  0.7818608E-02  0.1133486E+00
         21   -1    0    0  503  502  0.00000000000E+00  0.00000000000E+00  0.16215512891E+03  0.16215512891E+03  0.00000000000E+00 0.  1.
         21   -1    0    0  501  503 -0.00000000000E+00 -0.00000000000E+00 -0.75647276853E+03  0.75647276853E+03  0.00000000000E+00 0. -1.
          6    2    1    2  501    0 -0.12920852392E+03  0.54264937212E+02 -0.65396544477E+03  0.68920105864E+03  0.16639642490E+03 0.  0.
         24    2    3    3    0    0 -0.57147675452E+02  0.92463752394E+02 -0.36655198242E+03  0.39040262541E+03  0.78983870474E+02 0.  0.
         -6    2    1    2    0  502  0.12920852392E+03 -0.54264937212E+02  0.59647805143E+02  0.22942683880E+03  0.17157880882E+03 0.  0.
        -24    2    5    5    0    0 -0.24849496256E+01 -0.11395309950E+02  0.23872360992E+02  0.86308187599E+02  0.82116901815E+02 0.  0.
          5    1    3    3  501    0 -0.72060848468E+02 -0.38198815181E+02 -0.28741346235E+03  0.29879843323E+03  0.47000000000E+01 0. -1.
        -13    1    4    4    0    0 -0.51264834706E+02  0.81379610774E+02 -0.36534841671E+03  0.37779649273E+03  0.00000000000E+00 0.  1.
         14    1    4    4    0    0 -0.58828407458E+01  0.11084141620E+02 -0.12035657089E+01  0.12606132679E+02  0.00000000000E+00 0. -1.
         -5    1    5    5    0  502  0.13169347355E+03 -0.42869627262E+02  0.35775444151E+02  0.14311865120E+03  0.47000000000E+01 0.  1.
         11    1    6    6    0    0  0.36513746730E+02  0.10687163947E+02  0.90890579932E+01  0.39116238938E+02  0.00000000000E+00 0. -1.
        -12    1    6    6    0    0 -0.38998696355E+02 -0.22082473897E+02  0.14783302999E+02  0.47191948661E+02  0.00000000000E+00 0.  1.
</event>
<event>
12    1  0.8462562E-002  0.1855109E+03  0.7818608E-02  0.1162632E+00
         21   -1    0    0  503  502  0.00000000000E+00  0.00000000000E+00  0.67914063929E+03  0.67914063929E+03  0.00000000000E+00 0.  1.
         21   -1    0    0  501  503 -0.00000000000E+00 -0.00000000000E+00 -0.51038451635E+02  0.51038451635E+02  0.00000000000E+00 0.  1.
          6    2    1    2  501    0 -0.13812205590E+02 -0.67410387942E+02  0.28059725588E+03  0.33637642050E+03  0.17227692483E+03 0.  0.
         24    2    3    3    0    0  0.29455182477E+02 -0.62430388425E+02  0.85722960535E+02  0.13663922252E+03  0.80973390664E+02 0.  0.
         -6    2    1    2    0  502  0.13812205590E+02  0.67410387942E+02  0.34750493177E+03  0.39380267043E+03  0.17200560516E+03 0.  0.
        -24    2    5    5    0    0 -0.13981264857E+02 -0.25350810618E+02  0.19439035201E+03  0.21257551602E+03  0.81009886392E+02 0.  0.
          5    1    3    3  501    0 -0.43267388067E+02 -0.49799995163E+01  0.19487429535E+03  0.19973719797E+03  0.47000000000E+01 0. -1.
        -11    1    4    4    0    0 -0.94356581129E+01 -0.53955740110E+02  0.79213509740E+02  0.96306976176E+02  0.00000000000E+00 0.  1.
         12    1    4    4    0    0  0.38890840590E+02 -0.84746483154E+01  0.65094507946E+01  0.40332246349E+02  0.00000000000E+00 0. -1.
         -5    1    5    5    0  502  0.27793470447E+02  0.92761198559E+02  0.15311457976E+03  0.18122715441E+03  0.47000000000E+01 0.  1.
         11    1    6    6    0    0  0.33982229209E+02 -0.72498085310E+01  0.76576432323E+02  0.84091031704E+02  0.00000000000E+00 0. -1.
        -12    1    6    6    0    0 -0.47963494066E+02 -0.18101002087E+02  0.11781391968E+03  0.12848448432E+03  0.00000000000E+00 0.  1.
</event>
<event>
12    1  0.8462562E-002  0.1843706E+03  0.7818608E-02  0.1165498E+00
         21   -1    0    0  501  502  0.00000000000E+00  0.00000000000E+00  0.21082999759E+03  0.21082999759E+03  0.00000000000E+00 0.  1.
         21   -1    0    0  502  503 -0.00000000000E+00 -0.00000000000E+00 -0.15513920705E+03  0.15513920705E+03  0.00000000000E+00 0.  1.
         -6    2    1    2    0  503 -0.39752175300E+02  0.23709792842E+02  0.39920124830E+02  0.18864291813E+03  0.17846608775E+03 0.  0.
        -24    2    3    3    0    0 -0.46374188341E+02  0.13606718977E+01 -0.33019179308E+02  0.11192547323E+03  0.96356777567E+02 0.  0.
          6    2    1    2  501    0  0.39752175300E+02 -0.23709792842E+02  0.15770665706E+02  0.17732628652E+03  0.17045089696E+03 0.  0.
         24    2    5    5    0    0 -0.38473663909E+02 -0.38195497728E+02  0.15546379740E+02  0.97631507074E+02  0.79693803957E+02 0.  0.
          5    1    5    5  501    0  0.78225839209E+02  0.14485704886E+02  0.22428596562E+00  0.79694779441E+02  0.47000000000E+01 0. -1.
        -11    1    6    6    0    0 -0.34261370956E+02 -0.38772972243E+02 -0.24578130521E+02  0.57282365665E+02  0.00000000000E+00 0.  1.
         12    1    6    6    0    0 -0.42122929535E+01  0.57747451475E+00  0.40124510261E+02  0.40349141409E+02  0.00000000000E+00 0. -1.
         -5    1    3    3    0  503  0.66220130409E+01  0.22349120945E+02  0.72939304138E+02  0.76717444900E+02  0.47000000000E+01 0.  1.
         13    1    4    4    0    0 -0.53927430326E+02  0.39223119478E+02 -0.30233219860E+02  0.73216585732E+02  0.00000000000E+00 0. -1.
        -14    1    4    4    0    0  0.75532419852E+01 -0.37862447580E+02 -0.27859594482E+01  0.38708887497E+02  0.00000000000E+00 0.  1.
</event>
<event>
12    1  0.8462562E-002  0.1895958E+03  0.7818608E-02  0.1159149E+00
         21   -1    0    0  501  502  0.00000000000E+00  0.00000000000E+00  0.12348169350E+03  0.12348169350E+03  0.00000000000E+00 0. -1.
         21   -1    0    0  502  503 -0.00000000000E+00 -0.00000000000E+00 -0.29024120007E+03  0.29024120007E+03  0.00000000000E+00 0. -1.
         -6    2    1    2    0  503  0.19420935150E+01 -0.81920868615E+02 -0.97592555043E+02  0.21323902320E+03  0.17097302060E+03 0.  0.
        -24    2    3    3    0    0 -0.40534208431E+02 -0.83561132507E+02 -0.11528275419E+03  0.16695771122E+03  0.77196366518E+02 0.  0.
          6    2    1    2  501    0 -0.19420935150E+01  0.81920868615E+02 -0.69166951528E+02  0.20048387037E+03  0.16939573387E+03 0.  0.
         24    2    5    5    0    0  0.11282389969E+02  0.77736529508E+01  0.20319841815E+02  0.83425454452E+02  0.79744520034E+02 0.  0.
          5    1    5    5  501    0 -0.13224483484E+02  0.74147215664E+02 -0.89486793343E+02  0.11705841592E+03  0.47000000000E+01 0. -1.
        -13    1    6    6    0    0 -0.26583945793E+02  0.58055189996E+01 -0.15456584020E+02  0.31294028414E+02  0.00000000000E+00 0.  1.
         14    1    6    6    0    0  0.37866335762E+02  0.19681339512E+01  0.35776425835E+02  0.52131426038E+02  0.00000000000E+00 0. -1.
         -5    1    3    3    0  503  0.42476301946E+02  0.16402638914E+01  0.17690199143E+02  0.46281311977E+02  0.47000000000E+01 0.  1.
         11    1    4    4    0    0 -0.52449542189E+02 -0.23335061732E+02 -0.70768995179E+02  0.91124805957E+02  0.00000000000E+00 0. -1.
        -12    1    4    4    0    0  0.11915333759E+02 -0.60226070774E+02 -0.44513759006E+02  0.75832905261E+02  0.00000000000E+00 0.  1.
</event>
<event>
12    1  0.8462562E-002  0.2062146E+03  0.7818608E-02  0.1144732E+00
         21   -1    0    0  503  502  0.00000000000E+00  0.00000000000E+00  0.31183166086E+03  0.31183166086E+03  0.00000000000E+00 0.  1.
         21   -1    0    0  501  503 -0.00000000000E+00 -0.00000000000E+00 -0.13635914872E+03  0.13635914872E+03  0.00000000000E+00 0. -1.
          6    2    1    2  501    0 -0.49385439320E+02  0.10151180558E+03  0.75393335004E+02  0.21956463793E+03  0.17257145470E+03 0.  0.
         24    2    3    3    0    0 -0.50661131055E+02 -0.10814600069E+02  0.23246487088E+02  0.95628232691E+02  0.76947085398E+02 0.  0.
         -6    2    1    2    0  502  0.49385439320E+02 -0.10151180558E+03  0.10007917714E+03  0.22862617166E+03  0.17178625202E+03 0.  0.
        -24    2    5    5    0    0  0.37265227428E+02 -0.81656695776E+02  0.12926138002E+03  0.19101213323E+03  0.10826180091E+03 0.  0.
          5    1    3    3  501    0  0.12756917348E+01  0.11232640565E+03  0.52146847916E+02  0.12393640524E+03  0.47000000000E+01 0. -1.
        -13    1    4    4    0    0  0.83894886843E+01  0.10884773278E+02  0.29363376021E+02  0.32420204518E+02  0.00000000000E+00 0.  1.
         14    1    4    4    0    0 -0.59050619739E+02 -0.21699373347E+02 -0.61168889329E+01  0.63208028172E+02  0.00000000000E+00 0. -1.
         -5    1    5    5    0  502  0.12120211892E+02 -0.19855109804E+02 -0.29182202886E+02  0.37614038428E+02  0.47000000000E+01 0.  1.
         11    1    6    6    0    0 -0.15097676125E+01 -0.83587837687E+02  0.37992704909E+02  0.91829470398E+02  0.00000000000E+00 0. -1.
        -12    1    6    6    0    0  0.38774995040E+02  0.19311419110E+01  0.91268675114E+02  0.99182662833E+02  0.00000000000E+00 0.  1.
</event>
<event>
12    1  0.8462562E-002  0.2010249E+03  0.7818608E-02  0.1149324E+00
         21   -1    0    0  503  502  0.00000000000E+00  0.00000000000E+00  0.39116920682E+03  0.39116920682E+03  0.00000000000E+00 0.  1.
         21   -1    0    0  501  503 -0.00000000000E+00 -0.00000000000E+00 -0.58637985045E+03  0.58637985045E+03  0.00000000000E+00 0.  1.
          6    2    1    2  501    0  0.36052229179E+02 -0.92857140702E+02 -0.54164684328E+03  0.57701311604E+03  0.17216451854E+03 0.  0.
         24    2    3    3    0    0  0.24023276215E+02 -0.86022763030E+02 -0.20984034356E+03  0.24488505688E+03  0.89211477617E+02 0.  0.
         -6    2    1    2    0  502 -0.36052229179E+02  0.92857140702E+02  0.34643619964E+03  0.40053594122E+03  0.17461038909E+03 0.  0.
        -24    2    5    5    0    0  0.65363862410E+01 -0.16987308569E+02  0.17240429745E+03  0.19032465185E+03  0.78542589238E+02 0.  0.
          5    1    3    3  501    0  0.12028952964E+02 -0.68343776718E+01 -0.33180649972E+03  0.33212805916E+03  0.47000000000E+01 0. -1.
        -13    1    4    4    0    0  0.21139507572E+02 -0.18405588023E+02 -0.41354870455E+01  0.28332784967E+02  0.00000000000E+00 0.  1.
         14    1    4    4    0    0  0.28837686430E+01 -0.67617175007E+02 -0.20570485651E+03  0.21655227191E+03  0.00000000000E+00 0. -1.
         -5    1    5    5    0  502 -0.42588615420E+02  0.10984444927E+03  0.17403190219E+03  0.21021128937E+03  0.47000000000E+01 0.  1.
         11    1    6    6    0    0  0.15433709368E+02 -0.25404905824E+02  0.16613553429E+02  0.34053175804E+02  0.00000000000E+00 0. -1.
        -12    1    6    6    0    0 -0.88973231268E+01  0.84175972554E+01  0.15579074402E+03  0.15627147605E+03  0.00000000000E+00 0.  1.
</event>
<event>
12    1  0.8462562E-002  0.1992602E+03  0.7818608E-02  0.1151832E+00
         21   -1    0    0  501  502  0.00000000000E+00  0.00000000000E+00  0.63578666659E+02  0.63578666659E+02  0.00000000000E+00 0.  1.
         21   -1    0    0  502  503 -0.00000000000E+00 -0.00000000000E+00 -0.60648346877E+03  0.60648346877E+03  0.00000000000E+00 0.  1.
         -6    2    1    2    0  503 -0.94353741864E+02 -0.30311426409E+02 -0.29074594733E+03  0.34867653572E+03  0.16498699797E+03 0.  0.
        -24    2    3    3    0    0 -0.12373417189E+03 -0.50772122152E+02 -0.22738842812E+03  0.27575112877E+03  0.80282215290E+02 0.  0.
          6    2    1    2  501    0  0.94353741864E+02  0.30311426409E+02 -0.25215885479E+03  0.32138559971E+03  0.17286759234E+03 0.  0.
         24    2    5    5    0    0  0.40612073576E+02  0.80314207718E+02 -0.11587729842E+03  0.16652050469E+03  0.78751620382E+02 0.  0.
          5    1    5    5  501    0  0.53741668288E+02 -0.50002781309E+02 -0.13628155637E+03  0.15486509502E+03  0.47000000000E+01 0. -1.
        -11    1    6    6    0    0  0.49577157548E+02  0.90661250837E+02 -0.11179328156E+03  0.15223368469E+03  0.00000000000E+00 0.  1.
         12    1    6    6    0    0 -0.89650839723E+01 -0.10347043119E+02 -0.40840168581E+01  0.14286819997E+02  0.00000000000E+00 0. -1.
         -5    1    3    3    0  503  0.29380430030E+02  0.20460695743E+02 -0.63357519206E+02  0.72925406951E+02  0.47000000000E+01 0.  1.
         13    1    4    4    0    0  0.35476315784E+01 -0.20398409993E+02 -0.12588235326E+02  0.24231064539E+02  0.00000000000E+00 0. -1.
        -14    1    4    4    0    0 -0.12728180347E+03 -0.30373712159E+02 -0.21480019279E+03  0.25152006423E+03  0.00000000000E+00 0.  1.
</event>
<event>
12    1  0.8462562E-002  0.1921608E+03  0.7818608E-02  0.1156923E+00
         21   -1    0    0  503  502  0.00000000000E+00  0.00000000000E+00  0.17152584901E+04  0.17152584901E+04  0.00000000000E+00 0. -1.
         21   -1    0    0  501  503 -0.00000000000E+00 -0.00000000000E+00 -0.14530993377E+03  0.14530993377E+03  0.00000000000E+00 0. -1.
          6    2    1    2  501    0 -0.83467249036E+02  0.10624861399E+02 -0.74857289556E+02  0.20457565969E+03  0.17078617449E+03 0.  0.
         24    2    3    3    0    0  0.19206875200E+02 -0.12197545553E+02 -0.33295883637E+02  0.91384323850E+02  0.82004845014E+02 0.  0.
         -6    2    1    2    0  502  0.83467249036E+02 -0.10624861399E+02  0.16448058459E+04  0.16559927642E+04  0.17276022412E+03 0.  0.
        -24    2    5    5    0    0  0.64414592830E+02  0.59477945011E+02  0.11256636267E+04  0.11317713024E+04  0.78107713607E+02 0.  0.
          5    1    3    3  501    0 -0.10267412424E+03  0.22822406953E+02 -0.41561405918E+02  0.11319133584E+03  0.47000000000E+01 0. -1.
        -13    1    4    4    0    0  0.45184684378E+02 -0.52233019206E+01 -0.43190461559E+02  0.62724433477E+02  0.00000000000E+00 0.  1.
         14    1    4    4    0    0 -0.25977809178E+02 -0.69742436328E+01  0.98945779215E+01  0.28659890373E+02  0.00000000000E+00 0. -1.
         -5    1    5    5    0  502  0.19052656206E+02 -0.70102806410E+02  0.51914221922E+03  0.52422146174E+03  0.47000000000E+01 0.  1.
         13    1    6    6    0    0  0.78365590017E+02  0.28737601370E+02  0.83019995705E+03  0.83438539304E+03  0.00000000000E+00 0. -1.
        -14    1    6    6    0    0 -0.13950997187E+02  0.30740343640E+02  0.29546366961E+03  0.29738590940E+03  0.00000000000E+00 0.  1.
</event>
<event>
12    1  0.8462562E-002  0.1758061E+03  0.7818608E-02  0.1172259E+00
         21   -1    0    0  503  502  0.00000000000E+00  0.00000000000E+00  0.63247815195E+02  0.63247815195E+02  0.00000000000E+00 0.  1.
         21   -1    0    0  501  503 -0.00000000000E+00 -0.00000000000E+00 -0.81766418741E+03  0.81766418741E+03  0.00000000000E+00 0.  1.
          6    2    1    2  501    0  0.17100460246E+02 -0.22987921547E+02 -0.65730882244E+03  0.68006962224E+03  0.17210151874E+03 0.  0.
         24    2    3    3    0    0  0.66902632742E+02  0.23091008851E+02 -0.34415973206E+03  0.35961998966E+03  0.76625445080E+02 0.  0.
         -6    2    1    2    0  502 -0.17100460246E+02  0.22987921547E+02 -0.97107549768E+02  0.20084238036E+03  0.17345580201E+03 0.  0.
        -24    2    5    5    0    0  0.10066425853E+02  0.69426259566E+01 -0.13075089427E+03  0.15448015608E+03  0.81355941907E+02 0.  0.
          5    1    3    3  501    0 -0.49802172496E+02 -0.46078930398E+02 -0.31314909039E+03  0.32044963258E+03  0.47000000000E+01 0. -1.
        -11    1    4    4    0    0  0.59290204668E+02 -0.97299448949E+01 -0.28740344064E+03  0.29361665125E+03  0.00000000000E+00 0.  1.
         12    1    4    4    0    0  0.76124280746E+01  0.32820953746E+02 -0.56756291416E+02  0.66003338410E+02  0.00000000000E+00 0. -1.
         -5    1    5    5    0  502 -0.27166886099E+02  0.16045295590E+02  0.33643344507E+02  0.46362224284E+02  0.47000000000E+01 0.  1.
         11    1    6    6    0    0 -0.31154491694E+02 -0.16052626566E+02 -0.57475726873E+02  0.67318261653E+02  0.00000000000E+00 0. -1.
        -12    1    6    6    0    0  0.41220917547E+02  0.22995252523E+02 -0.73275167402E+02  0.87161894425E+02  0.00000000000E+00 0.  1.
</event>
<event>
12    1  0.8462562E-002  0.2134441E+03  0.7818608E-02  0.1139662E+00
         21   -1    0    0  501  502  0.00000000000E+00  0.00000000000E+00  0.11202359029E+04  0.11202359029E+04  0.00000000000E+00 0. -1.
         21   -1    0    0  502  503 -0.00000000000E+00 -0.00000000000E+00 -0.40738667186E+02  0.40738667186E+02  0.00000000000E+00 0. -1.
         -6    2    1    2    0  503 -0.42982954032E+01 -0.12662400611E+03  0.45132661763E+03  0.49753151080E+03  0.16670265203E+03 0.  0.
        -24    2    3    3    0    0  0.55974210389E+02 -0.47959609433E+02  0.24537484499E+03  0.26892905038E+03  0.81736058248E+02 0.  0.
          6    2    1    2  501    0  0.42982954032E+01  0.12662400611E+03  0.62817061811E+03  0.66344305931E+03  0.17177384324E+03 0.  0.
         24    2    5    5    0    0 -0.35703506585E+01  0.54282349312E+02  0.13185676720E+03  0.16180099618E+03  0.76380851372E+02 0.  0.
          5    1    5    5  501    0  0.78686460617E+01  0.72341656795E+02  0.49631385091E+03  0.50164206314E+03  0.47000000000E+01 0. -1.
        -13    1    6    6    0    0  0.86104017962E+01 -0.82833831887E+01  0.76351605314E+02  0.77280793799E+02  0.00000000000E+00 0.  1.
         14    1    6    6    0    0 -0.12180752455E+02  0.62565732501E+02  0.55505161885E+02  0.84520202376E+02  0.00000000000E+00 0. -1.
         -5    1    3    3    0  503 -0.60272505792E+02 -0.78664396675E+02  0.20595177263E+03  0.22860246042E+03  0.47000000000E+01 0.  1.
         11    1    4    4    0    0  0.18681151576E+02 -0.99960573099E+01  0.37542983196E+01  0.21517465971E+02  0.00000000000E+00 0. -1.
        -12    1    4    4    0    0  0.37293058813E+02 -0.37963552123E+02  0.24162054667E+03  0.24741158441E+03  0.00000000000E+00 0.  1.
</event>
<event>
12    1  0.8462562E-002  0.2507680E+03  0.7818608E-02  0.1113097E+00
         21   -1    0    0  503  502  0.00000000000E+00  0.00000000000E+00  0.12591045971E+03  0.12591045971E+03  0.00000000000E+00 0. -1.
         21   -1    0    0  501  503 -0.00000000000E+00 -0.00000000000E+00 -0.64032089676E+03  0.64032089676E+03  0.00000000000E+00 0. -1.
          6    2    1    2  501    0  0.16469705501E+03 -0.73725947682E+02 -0.43841979668E+03  0.50420240638E+03  0.17160277731E+03 0.  0.
         24    2    3    3    0    0  0.12421176239E+03 -0.39881279065E+02 -0.16049414260E+03  0.22127259227E+03  0.78639124775E+02 0.  0.
         -6    2    1    2    0  502 -0.16469705501E+03  0.73725947682E+02 -0.75990640371E+02  0.26202895009E+03  0.17413775574E+03 0.  0.
        -24    2    5    5    0    0 -0.15268992301E+03  0.64433460236E+01 -0.20592006774E+02  0.17392549778E+03  0.80438291501E+02 0.  0.
          5    1    3    3  501    0  0.40485292619E+02 -0.33844668617E+02 -0.27792565408E+03  0.28292981410E+03  0.47000000000E+01 0. -1.
        -13    1    4    4    0    0  0.61334776702E+02 -0.56027135375E+02 -0.63514211939E+02  0.10457078870E+03  0.00000000000E+00 0.  1.
         14    1    4    4    0    0  0.62876985687E+02  0.16145856310E+02 -0.96979930663E+02  0.11670180357E+03  0.00000000000E+00 0. -1.
         -5    1    5    5    0  502 -0.12007131999E+02  0.67282601658E+02 -0.55398633597E+02  0.88103452312E+02  0.47000000000E+01 0.  1.
         13    1    6    6    0    0 -0.52699795636E+02 -0.32805786025E+02  0.84558179592E+01  0.62649731956E+02  0.00000000000E+00 0. -1.
        -14    1    6    6    0    0 -0.99990127372E+02  0.39249132049E+02 -0.29047824733E+02  0.11127576583E+03  0.00000000000E+00 0.  1.
</event>
<event>
12    1  0.8462562E-002  0.1781291E+03  0.7818608E-02  0.1170084E+00
         21   -1    0    0  503  502  0.00000000000E+00  0.00000000000E+00  0.56687218578E+03  0.56687218578E+03  0.00000000000E+00 0.  1.
         21   -1    0    0  501  503 -0.00000000000E+00 -0.00000000000E+00 -0.56155004605E+02  0.56155004605E+02  0.00000000000E+00 0.  1.
          6    2    1    2  501    0  0.37454321027E+02  0.15678740679E+02  0.29034962078E+03  0.33966903590E+03  0.17153280325E+03 0.  0.
         24    2    3    3    0    0  0.55277552321E+02  0.60175647621E+02  0.13690950039E+03  0.17884738672E+03  0.81027526695E+02 0.  0.
         -6    2    1    2    0  502 -0.37454321027E+02 -0.15678740679E+02  0.22036756039E+03  0.28335815448E+03  0.17343970988E+03 0.  0.
        -24    2    5    5    0    0 -0.54941651812E+02 -0.55862547343E+02  0.83952730829E+02  0.13999971985E+03  0.80079031236E+02 0.  0.
          5    1    3    3  501    0 -0.17823231294E+02 -0.44496906942E+02  0.15344012039E+03  0.16082164918E+03  0.47000000000E+01 0. -1.
        -13    1    4    4    0    0  0.38298589911E+02  0.27820419262E+02  0.13408879632E+03  0.14219902608E+03  0.00000000000E+00 0.  1.
         14    1    4    4    0    0  0.16978962410E+02  0.32355228359E+02  0.28207040695E+01  0.36648360647E+02  0.00000000000E+00 0. -1.
         -5    1    5    5    0  502  0.17487330784E+02  0.40183806664E+02  0.13641482957E+03  0.14335843464E+03  0.47000000000E+01 0.  1.
         13    1    6    6    0    0  0.20194646710E+02 -0.20337446388E+02  0.17433478591E+02  0.33546410495E+02  0.00000000000E+00 0. -1.
        -14    1    6    6    0    0 -0.75136298521E+02 -0.35525100955E+02  0.66519252239E+02  0.10645330935E+03  0.00000000000E+00 0.  1.
</event>
<event>
12    1  0.8462562E-002  0.2057269E+03  0.7818608E-02  0.1148498E+00
         21   -1    0    0  503  502  0.00000000000E+00  0.00000000000E+00  0.59188363647E+03  0.59188363647E+03  0.00000000000E+00 0. -1.
         21   -1    0    0  501  503 -0.00000000000E+00 -0.00000000000E+00 -0.10651751745E+03  0.10651751745E+03  0.00000000000E+00 0. -1.
          6    2    1    2  501    0  0.42967048531E+02  0.64276339516E+02  0.20885572932E+02  0.19039943982E+03  0.17273715422E+03 0.  0.
         24    2    3    3    0    0  0.37068174829E+02  0.32219553903E+01  0.68686306925E+02  0.11249286307E+03  0.80946926440E+02 0.  0.
         -6    2    1    2    0  502 -0.42967048531E+02 -0.64276339516E+02  0.46448054608E+03  0.50800171410E+03  0.19064613492E+03 0.  0.
        -24    2    5    5    0    0 -0.53242988028E+02 -0.50685548434E+02  0.11628581303E+03  0.15935867794E+03  0.80429828604E+02 0.  0.
          5    1    3    3  501    0  0.58988737027E+01  0.61054384126E+02 -0.47800733993E+02  0.77906576759E+02  0.47000000000E+01 0. -1.
        -11    1    4    4    0    0  0.58904552751E+02 -0.98440873068E+01  0.62206164759E+02  0.86233748171E+02  0.00000000000E+00 0.  1.
         12    1    4    4    0    0 -0.21836377922E+02  0.13066042697E+02  0.64801421659E+01  0.26259114894E+02  0.00000000000E+00 0. -1.
         -5    1    5    5    0  502  0.10275939497E+02 -0.13590791083E+02  0.34819473305E+03  0.34864303616E+03  0.47000000000E+01 0.  1.
         11    1    6    6    0    0 -0.25962759748E+01 -0.45161380214E+02  0.92842942693E+02  0.10327682663E+03  0.00000000000E+00 0. -1.
        -12    1    6    6    0    0 -0.50646712054E+02 -0.55241682200E+01  0.23442870332E+02  0.56081851305E+02  0.00000000000E+00 0.  1.
</event>
<event>
12    1  0.8462562E-002  0.1861762E+03  0.7818608E-02  0.1162400E+00
         21   -1    0    0  503  502  0.00000000000E+00  0.00000000000E+00  0.31295078786E+03  0.31295078786E+03  0.00000000000E+00 0.  1.
         21   -1    0    0  501  503 -0.00000000000E+00 -0.00000000000E+00 -0.15952697486E+03  0.15952697486E+03  0.00000000000E+00 0.  1.
          6    2    1    2  501    0 -0.66740842960E+02  0.46678789476E+01 -0.55686158849E+02  0.19249820058E+03  0.17169298101E+03 0.  0.
         24    2    3    3    0    0 -0.71670565247E+02  0.52685569715E+02 -0.72545275823E+02  0.14115308773E+03  0.82151919961E+02 0.  0.
         -6    2    1    2    0  502  0.66740842960E+02 -0.46678789476E+01  0.20910997185E+03  0.27997956213E+03  0.17373959156E+03 0.  0.
        -24    2    5    5    0    0  0.19328588819E+02 -0.10465333927E+02  0.20134382695E+02  0.85004190299E+02  0.79606541452E+02 0.  0.
          5    1    3    3  501    0  0.49297222872E+01 -0.48017690767E+02  0.16859116975E+02  0.51345112850E+02  0.47000000000E+01 0. -1.
        -11    1    4    4    0    0 -0.37347943627E+02  0.72029269553E+02 -0.42413271794E+02  0.91553100383E+02  0.00000000000E+00 0.  1.
         12    1    4    4    0    0 -0.34322621620E+02 -0.19343699838E+02 -0.30132004029E+02  0.49599987350E+02  0.00000000000E+00 0. -1.
         -5    1    5    5    0  502  0.47412254140E+02  0.57974549797E+01  0.18897558915E+03  0.19497537184E+03  0.47000000000E+01 0.  1.
         11    1    6    6    0    0  0.17654458697E+02  0.28084958220E+02  0.30485377189E+02  0.45053335198E+02  0.00000000000E+00 0. -1.
        -12    1    6    6    0    0  0.16741301222E+01 -0.38550292147E+02 -0.10350994494E+02  0.39950855101E+02  0.00000000000E+00 0.  1.
</event>
<event>
12    1  0.8462562E-002  0.2285490E+03  0.7818608E-02  0.1127748E+00
         21   -1    0    0  501  502  0.00000000000E+00  0.00000000000E+00  0.16585153546E+04  0.16585153546E+04  0.00000000000E+00 0.  1.
         21   -1    0    0  502  503 -0.00000000000E+00 -0.00000000000E+00 -0.39490588265E+02  0.39490588265E+02  0.00000000000E+00 0.  1.
         -6    2    1    2    0  503  0.23037782090E+02 -0.14845775102E+03  0.42661389952E+03  0.48397734332E+03  0.17223300016E+03 0.  0.
        -24    2    3    3    0    0 -0.15112690453E+02 -0.77357724581E+02  0.10268433824E+03  0.15011640972E+03  0.76014815546E+02 0.  0.
          6    2    1    2  501    0 -0.23037782090E+02  0.14845775102E+03  0.11924108668E+04  0.12140285995E+04  0.17161387460E+03 0.  0.
         24    2    5    5    0    0 -0.19425193560E+01  0.82942548033E+02  0.34621264307E+03  0.36502284231E+03  0.80593061323E+02 0.  0.
          5    1    5    5  501    0 -0.21095262734E+02  0.65515202991E+02  0.84619822372E+03  0.84900575720E+03  0.47000000000E+01 0. -1.
        -11    1    6    6    0    0 -0.40616089995E+02  0.37490900756E+02  0.18677382979E+03  0.19478115387E+03  0.00000000000E+00 0.  1.
         12    1    6    6    0    0  0.38673570639E+02  0.45451647277E+02  0.15943881327E+03  0.17024168844E+03  0.00000000000E+00 0. -1.
         -5    1    3    3    0  503  0.38150472543E+02 -0.71100026443E+02  0.32392956128E+03  0.33386093361E+03  0.47000000000E+01 0.  1.
         13    1    4    4    0    0 -0.50172580272E+01 -0.31786473532E+01 -0.11867801702E+02  0.13271073595E+02  0.00000000000E+00 0. -1.
        -14    1    4    4    0    0 -0.10095432426E+02 -0.74179077228E+02  0.11455213994E+03  0.13684533612E+03  0.00000000000E+00 0.  1.
</event>
<event>
12    1  0.8462562E-002  0.2012872E+03  0.7818608E-02  0.1148909E+00
         21   -1    0    0  501  502  0.00000000000E+00  0.00000000000E+00  0.30858320660E+03  0.30858320660E+03  0.00000000000E+00 0.  1.
         21   -1    0    0  502  503 -0.00000000000E+00 -0.00000000000E+00 -0.14123925144E+03  0.14123925144E+03  0.00000000000E+00 0.  1.
         -6    2    1    2    0  503 -0.58926428531E+01 -0.10274691784E+03  0.21479352116E+02  0.20124048123E+03  0.17159462798E+03 0.  0.
        -24    2    3    3    0    0 -0.43316026097E+02 -0.12501210651E+03  0.51627825014E+01  0.15450111148E+03  0.79621820093E+02 0.  0.
          6    2    1    2  501    0  0.58926428531E+01  0.10274691784E+03  0.14586460305E+03  0.24858197681E+03  0.17298804701E+03 0.  0.
         24    2    5    5    0    0 -0.18746359188E+02  0.43728690512E+02  0.15855386874E+03  0.18321119555E+03  0.78507251432E+02 0.  0.
          5    1    5    5  501    0  0.24639002041E+02  0.59018227329E+02 -0.12689265690E+02  0.65370781258E+02  0.47000000000E+01 0. -1.
        -13    1    6    6    0    0 -0.16482026032E+02 -0.21185230266E+02  0.45610056815E+02  0.52922097901E+02  0.00000000000E+00 0.  1.
         14    1    6    6    0    0 -0.22643331557E+01  0.64913920777E+02  0.11294381192E+03  0.13028909765E+03  0.00000000000E+00 0. -1.
         -5    1    3    3    0  503  0.37423383244E+02  0.22265188672E+02  0.16316569614E+02  0.46739369743E+02  0.47000000000E+01 0.  1.
         11    1    4    4    0    0 -0.32365691655E+02 -0.43773420097E+01  0.67933946269E+01  0.33359396426E+02  0.00000000000E+00 0. -1.
        -12    1    4    4    0    0 -0.10950334442E+02 -0.12063476450E+03 -0.16306121255E+01  0.12114171506E+03  0.00000000000E+00 0.  1.
</event>
<event>
12    1  0.8462562E-002  0.1817274E+03  0.7818608E-02  0.1166216E+00
         21   -1    0    0  501  502  0.00000000000E+00  0.00000000000E+00  0.84318701262E+02  0.84318701262E+02  0.00000000000E+00 0. -1.
         21   -1    0    0  502  503 -0.00000000000E+00 -0.00000000000E+00 -0.49060271997E+03  0.49060271997E+03  0.00000000000E+00 0. -1.
         -6    2    1    2    0  503  0.30871532389E+02 -0.44070351531E+02 -0.33280282937E+03  0.37918673134E+03  0.17357881954E+03 0.  0.
        -24    2    3    3    0    0  0.73226067190E+02 -0.37068109922E+02 -0.17960155841E+03  0.22001494543E+03  0.97024505882E+02 0.  0.
          6    2    1    2  501    0 -0.30871532389E+02  0.44070351531E+02 -0.73481189340E+02  0.19573468989E+03  0.17325511895E+03 0.  0.
         24    2    5    5    0    0  0.47099814467E+02  0.10897108141E+02 -0.54484942013E+02  0.10876951054E+03  0.80777831286E+02 0.  0.
          5    1    5    5  501    0 -0.77971346857E+02  0.33173243390E+02 -0.18996247327E+02  0.86965179355E+02  0.47000000000E+01 0. -1.
        -13    1    6    6    0    0  0.53287178521E+00 -0.31082775489E+02 -0.13679815974E+02  0.33964102366E+02  0.00000000000E+00 0.  1.
         14    1    6    6    0    0  0.46566942682E+02  0.41979883630E+02 -0.40805126038E+02  0.74805408169E+02  0.00000000000E+00 0. -1.
         -5    1    3    3    0  503 -0.42354534800E+02 -0.70022416095E+01 -0.15320127096E+03  0.15917178591E+03  0.47000000000E+01 0.  1.
         11    1    4    4    0    0 -0.45444626263E+01 -0.55212930451E+01 -0.11205736823E+03  0.11228530889E+03  0.00000000000E+00 0. -1.
        -12    1    4    4    0    0  0.77770529816E+02 -0.31546816877E+02 -0.67544190177E+02  0.10772963654E+03  0.00000000000E+00 0.  1.
</event>
<event>
12    1  0.8462562E-002  0.1745219E+03  0.7818608E-02  0.1173496E+00
         21   -1    0    0  503  502  0.00000000000E+00  0.00000000000E+00  0.11358435264E+04  0.11358435264E+04  0.00000000000E+00 0.  1.
         21   -1    0    0  501  503 -0.00000000000E+00 -0.00000000000E+00 -0.26763776850E+02  0.26763776850E+02  0.00000000000E+00 0.  1.
          6    2    1    2  501    0 -0.24139291781E+02 -0.17464666321E+00  0.59176126472E+03  0.61664364420E+03  0.17171270658E+03 0.  0.
         24    2    3    3    0    0  0.47185887468E+02  0.38566523691E+02  0.36134756997E+03  0.37230633595E+03  0.65772765943E+02 0.  0.
         -6    2    1    2    0  502  0.24139291781E+02  0.17464666321E+00  0.51731848485E+03  0.54596365907E+03  0.17284434138E+03 0.  0.
        -24    2    5    5    0    0 -0.81008928833E+01  0.32720402727E+01  0.50458882292E+03  0.51084731463E+03  0.79238676963E+02 0.  0.
          5    1    3    3  501    0 -0.71325179250E+02 -0.38741170354E+02  0.23041369474E+03  0.24433730825E+03  0.47000000000E+01 0. -1.
        -11    1    4    4    0    0  0.28403908066E+02 -0.13401758171E+02  0.18025709713E+03  0.18297270338E+03  0.00000000000E+00 0.  1.
         12    1    4    4    0    0  0.18781979402E+02  0.51968281861E+02  0.18109047284E+03  0.18933363258E+03  0.00000000000E+00 0. -1.
         -5    1    5    5    0  502  0.32240184665E+02 -0.30973936095E+01  0.12729661928E+02  0.35116344445E+02  0.47000000000E+01 0.  1.
         13    1    6    6    0    0 -0.86048057117E+01  0.40547877438E+02  0.22528331798E+03  0.22906493927E+03  0.00000000000E+00 0. -1.
        -14    1    6    6    0    0  0.50391282844E+00 -0.37275837166E+02  0.27930550495E+03  0.28178237535E+03  0.00000000000E+00 0.  1.
</event>
<event>
12    1  0.8462562E-002  0.2451433E+03  0.7818608E-02  0.1117833E+00
         21   -1    0    0  501  502  0.00000000000E+00  0.00000000000E+00  0.11843100836E+04  0.11843100836E+04  0.00000000000E+00 0.  1.
         21   -1    0    0  502  503 -0.00000000000E+00 -0.00000000000E+00 -0.17947166649E+03  0.17947166649E+03  0.00000000000E+00 0.  1.
         -6    2    1    2    0  503  0.14947372314E+03 -0.60075987288E+02 -0.76555377302E+02  0.25681889905E+03  0.18478014763E+03 0.  0.
        -24    2    3    3    0    0  0.16376461426E+03 -0.50127784034E+01 -0.30424777963E+02  0.18342742313E+03  0.76654912506E+02 0.  0.
          6    2    1    2  501    0 -0.14947372314E+03  0.60075987288E+02  0.10813937944E+04  0.11069628510E+04  0.17321286563E+03 0.  0.
         24    2    5    5    0    0 -0.13700748715E+03  0.13659860439E+02  0.98894185970E+03  0.10026589005E+04  0.91439737008E+02 0.  0.
          5    1    5    5  501    0 -0.12466235992E+02  0.46416126849E+02  0.92451934721E+02  0.10430395057E+03  0.47000000000E+01 0. -1.
        -11    1    6    6    0    0 -0.44113893291E+02  0.48545309457E+02  0.43077833323E+03  0.43574379517E+03  0.00000000000E+00 0.  1.
         12    1    6    6    0    0 -0.92893593855E+02 -0.34885449019E+02  0.55816352647E+03  0.56691510530E+03  0.00000000000E+00 0. -1.
         -5    1    3    3    0  503 -0.14290891125E+02 -0.55063208884E+02 -0.46130599340E+02  0.73391475917E+02  0.47000000000E+01 0.  1.
         11    1    4    4    0    0  0.15247124099E+03 -0.27992698553E+02 -0.22632896436E+02  0.15666307319E+03  0.00000000000E+00 0. -1.
        -12    1    4    4    0    0  0.11293373272E+02  0.22979920150E+02 -0.77918815267E+01  0.26764349939E+02  0.00000000000E+00 0.  1.
</event>
<event>
12    1  0.8462562E-002  0.2237863E+03  0.7818608E-02  0.1131476E+00
         21   -1    0    0  503  502  0.00000000000E+00  0.00000000000E+00  0.27765250946E+02  0.27765250946E+02  0.00000000000E+00 0.  1.
         21   -1    0    0  501  503 -0.00000000000E+00 -0.00000000000E+00 -0.18220381339E+04  0.18220381339E+04  0.00000000000E+00 0.  1.
          6    2    1    2  501    0 -0.99965934246E+02 -0.10237428203E+03 -0.10216064362E+04  0.10453820177E+04  0.16932268284E+03 0.  0.
         24    2    3    3    0    0 -0.26577887397E+02 -0.94934135419E+02 -0.83636438276E+03  0.84593811696E+03  0.79918976494E+02 0.  0.
         -6    2    1    2    0  502  0.99965934246E+02  0.10237428203E+03 -0.77266644681E+03  0.80442136715E+03  0.17206573241E+03 0.  0.
        -24    2    5    5    0    0  0.99907650296E+02  0.20266267614E+02 -0.59247574606E+03  0.60634939017E+03  0.78992487603E+02 0.  0.
          5    1    3    3  501    0 -0.73388046849E+02 -0.74401466097E+01 -0.18524205342E+03  0.19944390078E+03  0.47000000000E+01 0. -1.
        -13    1    4    4    0    0  0.78413972276E+01 -0.72610142837E+02 -0.33349474285E+03  0.34139780882E+03  0.00000000000E+00 0.  1.
         14    1    4    4    0    0 -0.34419284624E+02 -0.22323992581E+02 -0.50286963991E+03  0.50454030814E+03  0.00000000000E+00 0. -1.
         -5    1    5    5    0  502  0.58283949790E-01  0.82108014414E+02 -0.18019070076E+03  0.19807197699E+03  0.47000000000E+01 0.  1.
         11    1    6    6    0    0  0.18201191595E+02 -0.25756741640E+02 -0.94595297657E+02  0.99714409461E+02  0.00000000000E+00 0. -1.
        -12    1    6    6    0    0  0.81706458701E+02  0.46023009254E+02 -0.49788044840E+03  0.50663498070E+03  0.00000000000E+00 0.  1.
</event>
<event>
12    1  0.8462562E-002  0.1796179E+03  0.7818608E-02  0.1168363E+00
         21   -1    0    0  501  502  0.00000000000E+00  0.00000000000E+00  0.32207994465E+03  0.32207994465E+03  0.00000000000E+00 0.  1.
         21   -1    0    0  502  503 -0.00000000000E+00 -0.00000000000E+00 -0.15465697729E+03  0.15465697729E+03  0.00000000000E+00 0.  1.
         -6    2    1    2    0  503 -0.44499874601E+02 -0.22036602784E+02 -0.58219889830E+02  0.18881776681E+03  0.17261733050E+03 0.  0.
        -24    2    3    3    0    0  0.30298836189E+02  0.13530506636E+02 -0.48096501382E+01  0.90153639023E+02  0.83686628624E+02 0.  0.
          6    2    1    2  501    0  0.44499874601E+02  0.22036602784E+02  0.22564285719E+03  0.28791915513E+03  0.17180480257E+03 0.  0.
         24    2    5    5    0    0  0.44625659443E+02 -0.15554617333E+02  0.23231054400E+03  0.24945275812E+03  0.77621479471E+02 0.  0.
          5    1    5    5  501    0 -0.12578484171E+00  0.37591220118E+02 -0.66676868115E+01  0.38466397013E+02  0.47000000000E+01 0. -1.
        -13    1    6    6    0    0 -0.25991478290E+01  0.24386964141E+02  0.35465913510E+02  0.43119724147E+02  0.00000000000E+00 0.  1.
         14    1    6    6    0    0  0.47224807272E+02 -0.39941581474E+02  0.19684463049E+03  0.20633303397E+03  0.00000000000E+00 0. -1.
         -5    1    3    3    0  503 -0.74798710790E+02 -0.35567109421E+02 -0.53410239692E+02  0.98664127788E+02  0.47000000000E+01 0.  1.
         11    1    4    4    0    0 -0.17232793448E+02  0.32157173661E+02  0.83644419189E+01  0.37430159985E+02  0.00000000000E+00 0. -1.
        -12    1    4    4    0    0  0.47531629637E+02 -0.18626667024E+02 -0.13174092057E+02  0.52723479038E+02  0.00000000000E+00 0.  1.
</event>
<event>
12    1  0.8462562E-002  0.2835041E+03  0.7818608E-02  0.1094031E+00
         21   -1    0    0  501  502  0.00000000000E+00  0.00000000000E+00  0.14234501514E+03  0.14234501514E+03  0.00000000000E+00 0. -1.
         21   -1    0    0  502  503 -0.00000000000E+00 -0.00000000000E+00 -0.57263280264E+03  0.57263280264E+03  0.00000000000E+00 0.  1.
         -6    2    1    2    0  503 -0.18283312344E+03 -0.12792595537E+03 -0.16374888633E+03  0.32585370444E+03  0.17197074704E+03 0.  0.
        -24    2    3    3    0    0 -0.11280935093E+03 -0.67622446862E+02 -0.21650643279E+02  0.15628412422E+03  0.81591863282E+02 0.  0.
          6    2    1    2  501    0  0.18283312344E+03  0.12792595537E+03 -0.26653890116E+03  0.38912411335E+03  0.17487592365E+03 0.  0.
         24    2    5    5    0    0  0.17607150559E+03  0.44297179779E+02 -0.18806681767E+03  0.27414824861E+03  0.82611858070E+02 0.  0.
          5    1    5    5  501    0  0.67616178458E+01  0.83628775593E+02 -0.78472083497E+02  0.11497586473E+03  0.47000000000E+01 0. -1.
        -13    1    6    6    0    0  0.32515616031E+01  0.67545578198E+01 -0.47911239611E+02  0.48494160321E+02  0.00000000000E+00 0.  1.
         14    1    6    6    0    0  0.17281994399E+03  0.37542621959E+02 -0.14015557806E+03  0.22565408829E+03  0.00000000000E+00 0. -1.
         -5    1    3    3    0  503 -0.70023772509E+02 -0.60303508511E+02 -0.14209824305E+03  0.16956958022E+03  0.47000000000E+01 0.  1.
         11    1    4    4    0    0 -0.86929728462E+02 -0.84946398816E+02 -0.27454694041E+02  0.12460509053E+03  0.00000000000E+00 0. -1.
        -12    1    4    4    0    0 -0.25879622464E+02  0.17323951954E+02  0.58040507612E+01  0.31679033688E+02  0.00000000000E+00 0.  1.
</event>
<event>
12    1  0.8462562E-002  0.2335715E+03  0.7818608E-02  0.1124876E+00
         21   -1    0    0  503  502  0.00000000000E+00  0.00000000000E+00  0.19047006156E+03  0.19047006156E+03  0.00000000000E+00 0. -1.
         21   -1    0    0  501  503 -0.00000000000E+00 -0.00000000000E+00 -0.15102591672E+04  0.15102591672E+04  0.00000000000E+00 0.  1.
          6    2    1    2  501    0 -0.13516387802E+03  0.82684404145E+02 -0.14258628919E+04  0.14441998901E+04  0.16589861848E+03 0.  0.
         24    2    3    3    0    0 -0.14812385349E+02  0.69640593359E+02 -0.60409165836E+03  0.61354672964E+03  0.80272278881E+02 0.  0.
         -6    2    1    2    0  502  0.13516387802E+03 -0.82684404145E+02  0.10607378622E+03  0.25652933864E+03  0.17160905818E+03 0.  0.
        -24    2    5    5    0    0  0.14363571312E+03 -0.89067536288E+02  0.42817763273E+02  0.19221813585E+03  0.80933347853E+02 0.  0.
          5    1    3    3  501    0 -0.12035149267E+03  0.13043810786E+02 -0.82177123350E+03  0.83065316047E+03  0.47000000000E+01 0. -1.
        -11    1    4    4    0    0  0.24028821717E+02  0.71913399569E+01 -0.68851604025E+02  0.73277848088E+02  0.00000000000E+00 0.  1.
         12    1    4    4    0    0 -0.38841207067E+02  0.62449253402E+02 -0.53524005433E+03  0.54026888155E+03  0.00000000000E+00 0. -1.
         -5    1    5    5    0  502 -0.84718350963E+01  0.63831321430E+01  0.63256022942E+02  0.64311202790E+02  0.47000000000E+01 0.  1.
         11    1    6    6    0    0  0.67565990404E+02 -0.52212166894E+02  0.62021586605E+02  0.10553648959E+03  0.00000000000E+00 0. -1.
        -12    1    6    6    0    0  0.76069722715E+02 -0.36855369394E+02 -0.19203823331E+02  0.86681646256E+02  0.00000000000E+00 0.  1.
</event>
<event>
12    1  0.8462562E-002  0.2103058E+03  0.7818608E-02  0.1141650E+00
         21   -1    0    0  503  502  0.00000000000E+00  0.00000000000E+00  0.18977294317E+03  0.18977294317E+03  0.00000000000E+00 0.  1.
         21   -1    0    0  501  503 -0.00000000000E+00 -0.00000000000E+00 -0.23686312377E+03  0.23686312377E+03  0.00000000000E+00 0.  1.
          6    2    1    2  501    0  0.11766667889E+03  0.17211267890E+02  0.92298952008E+01  0.21050825123E+03  0.17345563643E+03 0.  0.
         24    2    3    3    0    0  0.46701063319E+02  0.61705963954E+02 -0.35963019848E+02  0.11521719109E+03  0.77414772650E+02 0.  0.
         -6    2    1    2    0  502 -0.11766667889E+03 -0.17211267890E+02 -0.56320075798E+02  0.21612781570E+03  0.17145730290E+03 0.  0.
        -24    2    5    5    0    0 -0.41313493740E+02  0.49794577700E+02 -0.56778796782E+01  0.10252185523E+03  0.79323311513E+02 0.  0.
          5    1    3    3  501    0  0.70965615573E+02 -0.44494696064E+02  0.45192915049E+02  0.95291060138E+02  0.47000000000E+01 0. -1.
        -11    1    4    4    0    0  0.54213042020E+02  0.71915459581E+02 -0.15851868965E+02  0.91444895984E+02  0.00000000000E+00 0.  1.
         12    1    4    4    0    0 -0.75119787014E+01 -0.10209495627E+02 -0.20111150883E+02  0.23772295110E+02  0.00000000000E+00 0. -1.
         -5    1    5    5    0  502 -0.76353185152E+02 -0.67005845590E+02 -0.50642196120E+02  0.11360596047E+03  0.47000000000E+01 0.  1.
         13    1    6    6    0    0 -0.37656399036E+02  0.36474587574E+02 -0.39727299903E+02  0.65777338686E+02  0.00000000000E+00 0. -1.
        -14    1    6    6    0    0 -0.36570947039E+01  0.13319990126E+02  0.34049420224E+02  0.36744516547E+02  0.00000000000E+00 0.  1.
</event>
<event>
12    1  0.8462562E-002  0.1883174E+03  0.7818608E-02  0.1160309E+00
         21   -1    0    0  501  502  0.00000000000E+00  0.00000000000E+00  0.18216289477E+03  0.18216289477E+03  0.00000000000E+00 0. -1.
         21   -1    0    0  502  503 -0.00000000000E+00 -0.00000000000E+00 -0.34903435060E+03  0.34903435060E+03  0.00000000000E+00 0. -1.
         -6    2    1    2    0  503 -0.53063403280E+02  0.58709345030E+02 -0.26071272188E+03  0.32079373439E+03  0.16933689709E+03 0.  0.
        -24    2    3    3    0    0 -0.61078993609E+02 -0.24262254679E+02 -0.14687889603E+03  0.17962445320E+03  0.79826271520E+02 0.  0.
          6    2    1    2  501    0  0.53063403280E+02 -0.58709345030E+02  0.93841266045E+02  0.21040351098E+03  0.17088283196E+03 0.  0.
         24    2    5    5    0    0  0.60384437526E+02  0.22773720179E+02  0.64061194959E+02  0.12321388951E+03  0.83143870743E+02 0.  0.
          5    1    5    5  501    0 -0.73210342454E+01 -0.81483065209E+02  0.29780071086E+02  0.87189621470E+02  0.47000000000E+01 0. -1.
        -13    1    6    6    0    0  0.13557061131E+02  0.40717577841E+02  0.58793926493E+02  0.72790389779E+02  0.00000000000E+00 0.  1.
         14    1    6    6    0    0  0.46827376395E+02 -0.17943857662E+02  0.52672684661E+01  0.50423499729E+02  0.00000000000E+00 0. -1.
         -5    1    3    3    0  503  0.80155903290E+01  0.82971599709E+02 -0.11383382584E+03  0.14116928119E+03  0.47000000000E+01 0.  1.
         13    1    4    4    0    0 -0.17250324287E+01 -0.40666487335E+02 -0.45874215433E+02  0.61328480909E+02  0.00000000000E+00 0. -1.
        -14    1    4    4    0    0 -0.59353961181E+02  0.16404232656E+02 -0.10100468060E+03  0.11829597229E+03  0.00000000000E+00 0.  1.
</event>
<event>
12    1  0.8462562E-002  0.2396303E+03  0.7818608E-02  0.1120057E+00
         21   -1    0    0  501  502  0.00000000000E+00  0.00000000000E+00  0.28884250197E+03  0.28884250197E+03  0.00000000000E+00 0.  1.
         21   -1    0    0  502  503 -0.00000000000E+00 -0.00000000000E+00 -0.23951330886E+03  0.23951330886E+03  0.00000000000E+00 0. -1.
         -6    2    1    2    0  503  0.40748019875E+02  0.16152411715E+03 -0.84361922752E+02  0.25404648135E+03  0.17225631812E+03 0.  0.
        -24    2    3    3    0    0  0.13549738862E+02  0.13263555894E+03 -0.12356657423E+03  0.19806978993E+03  0.78658480141E+02 0.  0.
          6    2    1    2  501    0 -0.40748019875E+02 -0.16152411715E+03  0.13369111586E+03  0.27430932948E+03  0.17211000039E+03 0.  0.
         24    2    5    5    0    0 -0.34240098172E+02 -0.18388196830E+03  0.14323168008E+03  0.24870974123E+03  0.79726147637E+02 0.  0.
          5    1    5    5  501    0 -0.65079217025E+01  0.22357851149E+02 -0.95405642170E+01  0.25599588248E+02  0.47000000000E+01 0. -1.
        -13    1    6    6    0    0  0.14883437035E+02 -0.11231686433E+03  0.10267001930E+03  0.15289776838E+03  0.00000000000E+00 0.  1.
         14    1    6    6    0    0 -0.49123535207E+02 -0.71565103968E+02  0.40561660770E+02  0.95811972851E+02  0.00000000000E+00 0. -1.
         -5    1    3    3    0  503  0.27198281012E+02  0.28888558212E+02  0.39204651473E+02  0.55976691423E+02  0.47000000000E+01 0.  1.
         11    1    4    4    0    0 -0.30990035541E+02  0.60025063752E+02 -0.70855083261E+02  0.97897055141E+02  0.00000000000E+00 0. -1.
        -12    1    4    4    0    0  0.44539774403E+02  0.72610495184E+02 -0.52711490964E+02  0.10017273479E+03  0.00000000000E+00 0.  1.
</event>
<event>
12    1  0.8462562E-002  0.1877181E+03  0.7818608E-02  0.1161576E+00
         21   -1    0    0  503  502  0.00000000000E+00  0.00000000000E+00  0.26247523210E+02  0.26247523210E+02  0.00000000000E+00 0.  1.
         21   -1    0    0  501  503 -0.00000000000E+00 -0.00000000000E+00 -0.13205865362E+04  0.13205865362E+04  0.00000000000E+00 0.  1.
          6    2    1    2  501    0  0.45296835185E+02  0.45128191295E+02 -0.59655426250E+03  0.62539192423E+03  0.17649281532E+03 0.  0.
         24    2    3    3    0    0  0.75100491948E+02  0.82529248395E+02 -0.47944590152E+03  0.49880774181E+03  0.80558240240E+02 0.  0.
         -6    2    1    2    0  502 -0.45296835185E+02 -0.45128191295E+02 -0.69778475054E+03  0.72144213523E+03  0.17171732432E+03 0.  0.
        -24    2    5    5    0    0 -0.77375487679E+02 -0.59706005434E+02 -0.64980996036E+03  0.66173264600E+03  0.78008570198E+02 0.  0.
          5    1    3    3  501    0 -0.29803656764E+02 -0.37401057100E+02 -0.11710836097E+03  0.12658418242E+03  0.47000000000E+01 0. -1.
        -11    1    4    4    0    0  0.36531121600E+02  0.20081332090E+02 -0.60441272295E+02  0.73422953771E+02  0.00000000000E+00 0.  1.
         12    1    4    4    0    0  0.38569370348E+02  0.62447916305E+02 -0.41900462923E+03  0.42538478804E+03  0.00000000000E+00 0. -1.
         -5    1    5    5    0  502  0.32078652494E+02  0.14577814139E+02 -0.47974790182E+02  0.59709489228E+02  0.47000000000E+01 0.  1.
         11    1    6    6    0    0 -0.24614377250E+01  0.14438164013E+02 -0.34807419500E+02  0.37763417589E+02  0.00000000000E+00 0. -1.
        -12    1    6    6    0    0 -0.74914049954E+02 -0.74144169447E+02 -0.61500254086E+03  0.62396922841E+03  0.00000000000E+00 0.  1.
</event>
<event>
12    1  0.8462562E-002  0.1906207E+03  0.7818608E-02  0.1157935E+00
         21   -1    0    0  503  502  0.00000000000E+00  0.00000000000E+00  0.49878752992E+02  0.49878752992E+02  0.00000000000E+00 0. -1.
         21   -1    0    0  501  503 -0.00000000000E+00 -0.00000000000E+00 -0.72813390339E+03  0.72813390339E+03  0.00000000000E+00 0. -1.
          6    2    1    2  501    0 -0.73482198249E+02  0.36621676169E+02 -0.33271715212E+03  0.38338274014E+03  0.17187449345E+03 0.  0.
         24    2    3    3    0    0 -0.10678090596E+02  0.27950143168E+02 -0.62938520052E+02  0.10621464721E+03  0.80156483535E+02 0.  0.
         -6    2    1    2    0  502  0.73482198249E+02 -0.36621676169E+02 -0.34553799828E+03  0.39462991624E+03  0.17203337441E+03 0.  0.
        -24    2    5    5    0    0  0.18787579332E+02 -0.29251588033E+02 -0.32467051520E+03  0.33544071632E+03  0.76817329959E+02 0.  0.
          5    1    3    3  501    0 -0.62804107653E+02  0.86715330009E+01 -0.26977863207E+03  0.27716809294E+03  0.47000000000E+01 0. -1.
        -11    1    4    4    0    0 -0.29251967499E+01 -0.28282765045E+02 -0.16499031586E+02  0.32873843978E+02  0.00000000000E+00 0.  1.
         12    1    4    4    0    0 -0.77528938459E+01  0.56232908213E+02 -0.46439488466E+02  0.73340803227E+02  0.00000000000E+00 0. -1.
         -5    1    5    5    0  502  0.54694618917E+02 -0.73700881355E+01 -0.20867483077E+02  0.59189199923E+02  0.47000000000E+01 0.  1.
         11    1    6    6    0    0  0.98601140016E+01 -0.11993519422E+02 -0.67552192430E+01  0.16932198418E+02  0.00000000000E+00 0. -1.
        -12    1    6    6    0    0  0.89274653305E+01 -0.17258068611E+02 -0.31791529596E+03  0.31850851790E+03  0.00000000000E+00 0.  1.
</event>
<event>
12    1  0.8462562E-002  0.1860597E+03  0.7818608E-02  0.1162340E+00
         21   -1    0    0  501  502  0.00000000000E+00  0.00000000000E+00  0.18865268328E+03  0.18865268328E+03  0.00000000000E+00 0. -1.
         21   -1    0    0  502  503 -0.00000000000E+00 -0.00000000000E+00 -0.26209705339E+03  0.26209705339E+03  0.00000000000E+00 0. -1.
         -6    2    1    2    0  503  0.53530133955E+02 -0.45336280459E+02 -0.16097104509E+03  0.24513084091E+03  0.17104560281E+03 0.  0.
        -24    2    3    3    0    0  0.61274619748E+02  0.35651795582E+02 -0.11385032050E+03  0.15099530985E+03  0.69369002923E+02 0.  0.
          6    2    1    2  501    0 -0.53530133955E+02  0.45336280459E+02  0.87526674975E+02  0.20561889577E+03  0.17232921371E+03 0.  0.
         24    2    5    5    0    0  0.22303291232E+01 -0.20080485828E+01  0.10430203654E+03  0.13042436478E+03  0.78247002969E+02 0.  0.
          5    1    5    5  501    0 -0.55760463078E+02  0.47344329042E+02 -0.16775361566E+02  0.75194530990E+02  0.47000000000E+01 0. -1.
        -13    1    6    6    0    0 -0.28784801093E+02 -0.22757710738E+02  0.30461849242E+02  0.47690695437E+02  0.00000000000E+00 0.  1.
         14    1    6    6    0    0  0.31015130217E+02  0.20749662156E+02  0.73840187300E+02  0.82733669339E+02  0.00000000000E+00 0. -1.
         -5    1    3    3    0  503 -0.77444857932E+01 -0.80988076040E+02 -0.47120724588E+02  0.94135531053E+02  0.47000000000E+01 0.  1.
         11    1    4    4    0    0 -0.11595840670E+02  0.21772070098E+02 -0.33993456256E+02  0.42000495537E+02  0.00000000000E+00 0. -1.
        -12    1    4    4    0    0  0.72870460418E+02  0.13879725484E+02 -0.79856864243E+02  0.10899481432E+03  0.00000000000E+00 0.  1.
</event>
<event>
12    1  0.8462562E-002  0.2387248E+03  0.7818608E-02  0.1121107E+00
         21   -1    0    0  503  502  0.00000000000E+00  0.00000000000E+00  0.10241671002E+03  0.10241671002E+03  0.00000000000E+00 0.  1.
         21   -1    0    0  501  503 -0.00000000000E+00 -0.00000000000E+00 -0.57617844624E+03  0.57617844624E+03  0.00000000000E+00 0. -1.
          6    2    1    2  501    0 -0.16357505605E+03 -0.19242169659E+02 -0.16598035464E+03  0.29075593127E+03  0.17280761958E+03 0.  0.
         24    2    3    3    0    0 -0.17482304560E+03 -0.10510893007E+02 -0.84432980587E+02  0.20784141700E+03  0.73454409443E+02 0.  0.
         -6    2    1    2    0  502  0.16357505605E+03  0.19242169659E+02 -0.30778138157E+03  0.38783922500E+03  0.16900540095E+03 0.  0.
        -24    2    5    5    0    0  0.18599255440E+03 -0.12639050718E+00 -0.28651113610E+03  0.35106697054E+03  0.81031724808E+02 0.  0.
          5    1    3    3  501    0  0.11247989548E+02 -0.87312766529E+01 -0.81547374055E+02  0.82914514267E+02  0.47000000000E+01 0. -1.
        -11    1    4    4    0    0 -0.55063772241E+02 -0.33204859978E+01  0.88493854817E+01  0.55869099367E+02  0.00000000000E+00 0.  1.
         12    1    4    4    0    0 -0.11975927335E+03 -0.71904070087E+01 -0.93282366069E+02  0.15197231763E+03  0.00000000000E+00 0. -1.
         -5    1    5    5    0  502 -0.22417498356E+02  0.19368560167E+02 -0.21270245472E+02  0.36772254458E+02  0.47000000000E+01 0.  1.
         11    1    6    6    0    0  0.99239373527E+02  0.38268796829E+02 -0.17357990359E+03  0.20357538407E+03  0.00000000000E+00 0. -1.
        -12    1    6    6    0    0  0.86753180876E+02 -0.38395187336E+02 -0.11293123251E+03  0.14749158647E+03  0.00000000000E+00 0.  1.
</event>
<event>
12    1  0.8462562E-002  0.2178191E+03  0.7818608E-02  0.1135588E+00
         21   -1    0    0  501  502  0.00000000000E+00  0.00000000000E+00  0.23122608966E+03  0.23122608966E+03  0.00000000000E+00 0. -1.
         21   -1    0    0  502  503 -0.00000000000E+00 -0.00000000000E+00 -0.23728933323E+03  0.23728933323E+03  0.00000000000E+00 0. -1.
         -6    2    1    2    0  503  0.56362282443E+02  0.12142683823E+03 -0.89647894791E+02  0.23520974123E+03  0.17136421273E+03 0.  0.
        -24    2    3    3    0    0  0.10118912568E+03  0.66621930773E+02 -0.45424946293E+02  0.15159883925E+03  0.79000389241E+02 0.  0.
          6    2    1    2  501    0 -0.56362282443E+02 -0.12142683823E+03  0.83584651216E+02  0.23330568166E+03  0.17182538594E+03 0.  0.
         24    2    5    5    0    0  0.11708127586E+02 -0.43803408743E+02 -0.12121234949E+02  0.92448718137E+02  0.79649370866E+02 0.  0.
          5    1    5    5  501    0 -0.68070410029E+02 -0.77623429488E+02  0.95705886165E+02  0.14085696353E+03  0.47000000000E+01 0. -1.
        -13    1    6    6    0    0  0.15826825386E+02 -0.63429987674E+02  0.56968073662E+01  0.65622445492E+02  0.00000000000E+00 0.  1.
         14    1    6    6    0    0 -0.41186978000E+01  0.19626578931E+02 -0.17818042315E+02  0.26826272645E+02  0.00000000000E+00 0. -1.
         -5    1    3    3    0  503 -0.44826843237E+02  0.54804907458E+02 -0.44222948499E+02  0.83610901980E+02  0.47000000000E+01 0.  1.
         11    1    4    4    0    0  0.37196166646E+02  0.36241264203E+02 -0.59919525845E+02  0.79292708502E+02  0.00000000000E+00 0. -1.
        -12    1    4    4    0    0  0.63992959034E+02  0.30380666570E+02  0.14494579552E+02  0.72306130747E+02  0.00000000000E+00 0.  1.
</event>
<event>
12    1  0.8462562E-002  0.1713493E+03  0.7818608E-02  0.1176960E+00
         21   -1    0    0  501  502  0.00000000000E+00  0.00000000000E+00  0.23213286709E+04  0.23213286709E+04  0.00000000000E+00 0. -1.
         21   -1    0    0  502  503 -0.00000000000E+00 -0.00000000000E+00 -0.12559960970E+02  0.12559960970E+02  0.00000000000E+00 0. -1.
         -6    2    1    2    0  503  0.10893924309E+02  0.33282127456E+02  0.10692080466E+04  0.10825408710E+04  0.16571817343E+03 0.  0.
        -24    2    3    3    0    0 -0.18798200781E+02  0.80205497128E+02  0.69845863145E+03  0.70762668921E+03  0.78133074433E+02 0.  0.
          6    2    1    2  501    0 -0.10893924309E+02 -0.33282127456E+02  0.12395606633E+04  0.12513477608E+04  0.16773253357E+03 0.  0.
         24    2    5    5    0    0 -0.32757487963E+02 -0.12526273157E+02  0.32648014166E+03  0.33775761750E+03  0.79126258243E+02 0.  0.
          5    1    5    5  501    0  0.21863563654E+02 -0.20755854299E+02  0.91308052168E+03  0.91359014332E+03  0.47000000000E+01 0. -1.
        -13    1    6    6    0    0  0.12450203582E+02  0.23923829387E+02  0.13489857888E+03  0.13756810591E+03  0.00000000000E+00 0.  1.
         14    1    6    6    0    0 -0.45207691546E+02 -0.36450102544E+02  0.19158156278E+03  0.20018951158E+03  0.00000000000E+00 0. -1.
         -5    1    3    3    0  503  0.29692125090E+02 -0.46923369672E+02  0.37074941511E+03  0.37491418180E+03  0.47000000000E+01 0.  1.
         13    1    4    4    0    0 -0.21539310651E+02  0.13789065236E+02  0.54013336614E+02  0.59762201729E+02  0.00000000000E+00 0. -1.
        -14    1    4    4    0    0  0.27411098702E+01  0.66416431892E+02  0.64444529483E+03  0.64786448748E+03  0.00000000000E+00 0.  1.
</event>
<event>
12    1  0.8462562E-002  0.1951630E+03  0.7818608E-02  0.1154180E+00
         21   -1    0    0  503  502  0.00000000000E+00  0.00000000000E+00  0.25973747515E+03  0.25973747515E+03  0.00000000000E+00 0.  1.
         21   -1    0    0  501  503 -0.00000000000E+00 -0.00000000000E+00 -0.14869088668E+03  0.14869088668E+03  0.00000000000E+00 0.  1.
          6    2    1    2  501    0 -0.89659738088E+02 -0.28526061197E+01  0.26044734133E+02  0.19555768378E+03  0.17180650021E+03 0.  0.
         24    2    3    3    0    0 -0.41798968932E+01 -0.10130063409E+02 -0.34485460662E+02  0.90458877332E+02  0.82906403664E+02 0.  0.
         -6    2    1    2    0  502  0.89659738088E+02  0.28526061197E+01  0.85001854332E+02  0.21287067805E+03  0.17332514053E+03 0.  0.
        -24    2    5    5    0    0  0.72651969388E+02 -0.53605904793E+02  0.14470396020E+02  0.12081849577E+03  0.78967175935E+02 0.  0.
          5    1    3    3  501    0 -0.85479841195E+02  0.72774572892E+01  0.60530194795E+02  0.10509880645E+03  0.47000000000E+01 0. -1.
        -11    1    4    4    0    0 -0.36157990403E+02  0.73578211239E+01 -0.39051182390E+02  0.53726461337E+02  0.00000000000E+00 0.  1.
         12    1    4    4    0    0  0.31978093510E+02 -0.17487884533E+02  0.45657217280E+01  0.36732415996E+02  0.00000000000E+00 0. -1.
         -5    1    5    5    0  502  0.17007768700E+02  0.56458510913E+02  0.70531458312E+02  0.92052182279E+02  0.47000000000E+01 0.  1.
         11    1    6    6    0    0 -0.11021259801E+01  0.14239822915E+02 -0.10276001144E+02  0.17594983314E+02  0.00000000000E+00 0. -1.
        -12    1    6    6    0    0  0.73754095368E+02 -0.67845727708E+02  0.24746397163E+02  0.10322351246E+03  0.00000000000E+00 0.  1.
</event>
<event>
12    1  0.8462562E-002  0.2470958E+03  0.7818608E-02  0.1115182E+00
         21   -1    0    0  501  502  0.00000000000E+00  0.00000000000E+00  0.85209621506E+03  0.85209621506E+03  0.00000000000E+00 0. -1.
         21   -1    0    0  502  503 -0.00000000000E+00 -0.00000000000E+00 -0.37137008320E+03  0.37137008320E+03  0.00000000000E+00 0.  1.
         -6    2    1    2    0  503 -0.62505208790E+02 -0.16557903211E+03 -0.30922436281E+03  0.39582323128E+03  0.17243261544E+03 0.  0.
        -24    2    3    3    0    0 -0.96959237745E+02 -0.11235401077E+03 -0.15575067607E+03  0.22970205404E+03  0.80499956597E+02 0.  0.
          6    2    1    2  501    0  0.62505208790E+02  0.16557903211E+03  0.78995049467E+03  0.82764306698E+03  0.17218578714E+03 0.  0.
         24    2    5    5    0    0 -0.32034812664E+01  0.15921305245E+03  0.52214862678E+03  0.55178424785E+03  0.80421448417E+02 0.  0.
          5    1    5    5  501    0  0.65708690057E+02  0.63659796561E+01  0.26780186789E+03  0.27585881913E+03  0.47000000000E+01 0. -1.
        -11    1    6    6    0    0 -0.12048552366E+02  0.19690196271E+02  0.20017448728E+02  0.30554372795E+02  0.00000000000E+00 0.  1.
         12    1    6    6    0    0  0.88450710991E+01  0.13952285618E+03  0.50213117805E+03  0.52122987505E+03  0.00000000000E+00 0. -1.
         -5    1    3    3    0  503  0.34454028954E+02 -0.53225021340E+02 -0.15347368674E+03  0.16612117725E+03  0.47000000000E+01 0.  1.
         11    1    4    4    0    0 -0.39047385596E+02 -0.37173609400E+02 -0.85852203159E+01  0.54591955136E+02  0.00000000000E+00 0. -1.
        -12    1    4    4    0    0 -0.57911852149E+02 -0.75180401370E+02 -0.14716545576E+03  0.17511009890E+03  0.00000000000E+00 0.  1.
</event>
<event>
12    1  0.8462562E-002  0.2002527E+03  0.7818608E-02  0.1151073E+00
         21   -1    0    0  503  502  0.00000000000E+00  0.00000000000E+00  0.49749315534E+02  0.49749315534E+02  0.00000000000E+00 0.  1.
         21   -1    0    0  501  503 -0.00000000000E+00 -0.00000000000E+00 -0.99105428356E+03  0.99105428356E+03  0.00000000000E+00 0.  1.
          6    2    1    2  501    0  0.58712170045E+02  0.82550519001E+02 -0.71905451710E+03  0.74641847253E+03  0.17274093460E+03 0.  0.
         24    2    3    3    0    0  0.83112028476E+02  0.11009921808E+03 -0.51661151822E+03  0.54060413458E+03  0.79598507967E+02 0.  0.
         -6    2    1    2    0  502 -0.58712170045E+02 -0.82550519001E+02 -0.22225045093E+03  0.29438512656E+03  0.16433390613E+03 0.  0.
        -24    2    5    5    0    0 -0.78853810749E+01  0.97243206490E+01 -0.29125067149E+02  0.74345329319E+02  0.67247429752E+02 0.  0.
          5    1    3    3  501    0 -0.24399858431E+02 -0.27548699082E+02 -0.20244299888E+03  0.20581433795E+03  0.47000000000E+01 0. -1.
        -11    1    4    4    0    0  0.76708667345E+02  0.40420897601E+02 -0.33325330737E+03  0.34434842163E+03  0.00000000000E+00 0.  1.
         12    1    4    4    0    0  0.64033611311E+01  0.69678320482E+02 -0.18335821085E+03  0.19625571295E+03  0.00000000000E+00 0. -1.
         -5    1    5    5    0  502 -0.50826788970E+02 -0.92274839650E+02 -0.19312538378E+03  0.22003979724E+03  0.47000000000E+01 0.  1.
         13    1    6    6    0    0  0.22419955487E+02 -0.50600914760E+01  0.78654295404E+01  0.24292466150E+02  0.00000000000E+00 0. -1.
        -14    1    6    6    0    0 -0.30305336562E+02  0.14784412125E+02 -0.36990496690E+02  0.50052863169E+02  0.00000000000E+00 0.  1.
</event>
<event>
12    1  0.8462562E-002  0.3670142E+03  0.7818608E-02  0.1055930E+00
         21   -1    0    0  503  502  0.00000000000E+00  0.00000000000E+00  0.10082058544E+04  0.10082058544E+04  0.00000000000E+00 0. -1.
         21   -1    0    0  501  503 -0.00000000000E+00 -0.00000000000E+00 -0.18204676757E+03  0.18204676757E+03  0.00000000000E+00 0.  1.
          6    2    1    2  501    0  0.28305267950E+03  0.15630069170E+03  0.10462924800E+03  0.38074367459E+03  0.17166752927E+03 0.  0.
         24    2    3    3    0    0  0.21748983731E+03  0.66600055210E+02  0.25757523906E+02  0.24440758500E+03  0.85640065867E+02 0.  0.
         -6    2    1    2    0  502 -0.28305267950E+03 -0.15630069170E+03  0.72152983881E+03  0.80950894737E+03  0.17363957490E+03 0.  0.
        -24    2    5    5    0    0 -0.17051232375E+03 -0.16520856692E+03  0.44110848707E+03  0.50717981145E+03  0.79286446755E+02 0.  0.
          5    1    3    3  501    0  0.65562842196E+02  0.89700636489E+02  0.78871724096E+02  0.13633608959E+03  0.47000000000E+01 0. -1.
        -11    1    4    4    0    0  0.10937456245E+02 -0.92718803710E+01 -0.14853340708E+02  0.20645034388E+02  0.00000000000E+00 0.  1.
         12    1    4    4    0    0  0.20655238106E+03  0.75871935581E+02  0.40610864614E+02  0.22376255061E+03  0.00000000000E+00 0. -1.
         -5    1    5    5    0  502 -0.11254035575E+03  0.89078752207E+01  0.28042135174E+03  0.30232913592E+03  0.47000000000E+01 0.  1.
         13    1    6    6    0    0 -0.13700853450E+02 -0.48783754737E+02  0.56980350931E+02  0.76251744267E+02  0.00000000000E+00 0. -1.
        -14    1    6    6    0    0 -0.15681147030E+03 -0.11642481218E+03  0.38412813614E+03  0.43092806718E+03  0.00000000000E+00 0.  1.
</event>
<event>
12    1  0.8462562E-002  0.2068780E+03  0.7818608E-02  0.1144122E+00
         21   -1    0    0  501  502  0.00000000000E+00  0.00000000000E+00  0.88280650285E+03  0.88280650285E+03  0.00000000000E+00 0. -1.
         21   -1    0    0  502  503 -0.00000000000E+00 -0.00000000000E+00 -0.51950549220E+02  0.51950549220E+02  0.00000000000E+00 0.  1.
         -6    2    1    2    0  503  0.68101857030E+02 -0.90386283889E+02  0.29315907978E+03  0.35863515225E+03  0.17282761099E+03 0.  0.
        -24    2    3    3    0    0  0.11159780498E+03 -0.68176895578E+02  0.25525490086E+03  0.29663538453E+03  0.75731946835E+02 0.  0.
          6    2    1    2  501    0 -0.68101857030E+02  0.90386283889E+02  0.53769687384E+03  0.57612189982E+03  0.17317901739E+03 0.  0.
         24    2    5    5    0    0 -0.82083340517E+02  0.81811327820E+02  0.24118655777E+03  0.27912110977E+03  0.79415805228E+02 0.  0.
          5    1    5    5  501    0  0.13981483487E+02  0.85749560686E+01  0.29651031607E+03  0.29700079005E+03  0.47000000000E+01 0. -1.
        -11    1    6    6    0    0 -0.75386897994E+02  0.93720204396E+02  0.23527078379E+03  0.26423285717E+03  0.00000000000E+00 0.  1.
         12    1    6    6    0    0 -0.66964425227E+01 -0.11908876576E+02  0.59157739777E+01  0.14888252601E+02  0.00000000000E+00 0. -1.
         -5    1    3    3    0  503 -0.43495947955E+02 -0.22209388311E+02  0.37904178922E+02  0.61999767721E+02  0.47000000000E+01 0.  1.
         13    1    4    4    0    0  0.47841984440E+02 -0.43111356245E+02  0.54012778393E+02  0.84052511814E+02  0.00000000000E+00 0. -1.
        -14    1    4    4    0    0  0.63755820545E+02 -0.25065539333E+02  0.20124212247E+03  0.21258287271E+03  0.00000000000E+00 0.  1.
</event>
<event>
12    1  0.8462562E-002  0.1931803E+03  0.7818608E-02  0.1156083E+00
         21   -1    0    0  503  502  0.00000000000E+00  0.00000000000E+00  0.68056360008E+02  0.68056360008E+02  0.00000000000E+00 0.  1.
         21   -1    0    0  501  503 -0.00000000000E+00 -0.00000000000E+00 -0.98079539131E+03  0.98079539131E+03  0.00000000000E+00 0.  1.
          6    2    1    2  501    0  0.98849230279E+01 -0.87445960382E+02 -0.10444018229E+03  0.21778878867E+03  0.16964579896E+03 0.  0.
         24    2    3    3    0    0 -0.38076935118E+02  0.13203692108E+01 -0.36728081940E+02  0.96187721079E+02  0.80321412591E+02 0.  0.
         -6    2    1    2    0  502 -0.98849230279E+01  0.87445960382E+02 -0.80829884902E+03  0.83106296265E+03  0.17197125013E+03 0.  0.
        -24    2    5    5    0    0 -0.44518592743E+02  0.11627525638E+03 -0.62746379066E+03  0.64463864096E+03  0.79663846782E+02 0.  0.
          5    1    3    3  501    0  0.47961858146E+02 -0.88766329593E+02 -0.67712100346E+02  0.12160106759E+03  0.47000000000E+01 0. -1.
        -13    1    4    4    0    0 -0.50699189226E+02 -0.19706074713E+02 -0.44695441249E+02  0.70401843990E+02  0.00000000000E+00 0.  1.
         14    1    4    4    0    0  0.12622254108E+02  0.21026443924E+02  0.79673593095E+01  0.25785877089E+02  0.00000000000E+00 0. -1.
         -5    1    5    5    0  502  0.34633669715E+02 -0.28829295997E+02 -0.18083505836E+03  0.18642432169E+03  0.47000000000E+01 0.  1.
         13    1    6    6    0    0 -0.58141286519E+02  0.40586875223E+02 -0.30023703616E+03  0.30849632335E+03  0.00000000000E+00 0. -1.
        -14    1    6    6    0    0  0.13622693777E+02  0.75688381157E+02 -0.32722675450E+03  0.33614231761E+03  0.00000000000E+00 0.  1.
</event>
<event>
12    1  0.8462562E-002  0.1776880E+03  0.7818608E-02  0.1170172E+00
         21   -1    0    0  501  502  0.00000000000E+00  0.00000000000E+00  0.13881269915E+03  0.13881269915E+03  0.00000000000E+00 0.  1.
         21   -1    0    0  502  503 -0.00000000000E+00 -0.00000000000E+00 -0.47876735210E+03  0.47876735210E+03  0.00000000000E+00 0.  1.
         -6    2    1    2    0  503 -0.11508178040E+02 -0.39287442291E+02 -0.39406309022E+03  0.43227160176E+03  0.17290771336E+03 0.  0.
        -24    2    3    3    0    0 -0.30807745930E+02 -0.51670810170E+02 -0.39501290758E+03  0.40884483771E+03  0.86602045802E+02 0.  0.
          6    2    1    2  501    0  0.11508178040E+02  0.39287442291E+02  0.54108437261E+02  0.18530844949E+03  0.17244001040E+03 0.  0.
         24    2    5    5    0    0 -0.50604070797E+02  0.46295754114E+02  0.62544484531E+02  0.12206048680E+03  0.79264626810E+02 0.  0.
          5    1    5    5  501    0  0.62112248836E+02 -0.70083118234E+01 -0.84360472700E+01  0.63247962684E+02  0.47000000000E+01 0. -1.
        -13    1    6    6    0    0  0.48464324047E+01 -0.30895241380E+01  0.45517909488E+02  0.45879332500E+02  0.00000000000E+00 0.  1.
         14    1    6    6    0    0 -0.55450503201E+02  0.49385278252E+02  0.17026575043E+02  0.76181154304E+02  0.00000000000E+00 0. -1.
         -5    1    3    3    0  503  0.19299567891E+02  0.12383367879E+02  0.94981736653E+00  0.23426764049E+02  0.47000000000E+01 0.  1.
         11    1    4    4    0    0 -0.38565762817E+01 -0.43403518797E+02 -0.68946039496E+02  0.81561602405E+02  0.00000000000E+00 0. -1.
        -12    1    4    4    0    0 -0.26951169648E+02 -0.82672913728E+01 -0.32606686809E+03  0.32728323531E+03  0.00000000000E+00 0.  1.
</event>
<event>
12    1  0.8462562E-002  0.3802256E+03  0.7818608E-02  0.1050864E+00
         21   -1    0    0  501  502  0.00000000000E+00  0.00000000000E+00  0.17090788027E+03  0.17090788027E+03  0.00000000000E+00 0.  1.
         21   -1    0    0  502  503 -0.00000000000E+00 -0.00000000000E+00 -0.87429293345E+03  0.87429293345E+03  0.00000000000E+00 0. -1.
         -6    2    1    2    0  503  0.21041633330E+03  0.26577939342E+03 -0.25705255179E+03  0.45896351610E+03  0.17221432995E+03 0.  0.
        -24    2    3    3    0    0  0.13181955285E+03  0.93828192232E+02 -0.18436476957E+03  0.25635484607E+03  0.74480297211E+02 0.  0.
          6    2    1    2  501    0 -0.21041633330E+03 -0.26577939342E+03 -0.44633250139E+03  0.58623729763E+03  0.17189458411E+03 0.  0.
         24    2    5    5    0    0 -0.18900798485E+03 -0.16345459884E+03 -0.24365791661E+03  0.35814135666E+03  0.80340692097E+02 0.  0.
          5    1    5    5  501    0 -0.21408348448E+02 -0.10232479458E+03 -0.20267458478E+03  0.22809594096E+03  0.47000000000E+01 0. -1.
        -11    1    6    6    0    0 -0.30125940869E+02  0.76894915606E+00 -0.11112021693E+02  0.32119162850E+02  0.00000000000E+00 0.  1.
         12    1    6    6    0    0 -0.15888204398E+03 -0.16422354799E+03 -0.23254589492E+03  0.32602219381E+03  0.00000000000E+00 0. -1.
         -5    1    3    3    0  503  0.78596780448E+02  0.17195120119E+03 -0.72687782219E+02  0.20260867003E+03  0.47000000000E+01 0.  1.
         13    1    4    4    0    0 -0.77442907084E+01  0.17294952180E+02 -0.19921100171E+02  0.27494356539E+02  0.00000000000E+00 0. -1.
        -14    1    4    4    0    0  0.13956384356E+03  0.76533240052E+02 -0.16444366940E+03  0.22886048953E+03  0.00000000000E+00 0.  1.
</event>
<event>
12    1  0.8462562E-002  0.2066132E+03  0.7818608E-02  0.1144424E+00
         21   -1    0    0  503  502  0.00000000000E+00  0.00000000000E+00  0.23839248959E+03  0.23839248959E+03  0.00000000000E+00 0. -1.
         21   -1    0    0  501  503 -0.00000000000E+00 -0.00000000000E+00 -0.48576263604E+03  0.48576263604E+03  0.00000000000E+00 0.  1.
          6    2    1    2  501    0  0.10740230713E+03 -0.37634392205E+02 -0.41176167368E+03  0.46069151344E+03  0.17244532926E+03 0.  0.
         24    2    3    3    0    0  0.39544258661E+02 -0.46228432746E+02 -0.36192308762E+03  0.37592980666E+03  0.81449872899E+02 0.  0.
         -6    2    1    2    0  502 -0.10740230713E+03  0.37634392205E+02  0.16439152723E+03  0.26346361219E+03  0.17157184405E+03 0.  0.
        -24    2    5    5    0    0 -0.41864535869E+02  0.84235082571E+02  0.80848712347E+02  0.14741053932E+03  0.79656539685E+02 0.  0.
          5    1    3    3  501    0  0.67858048472E+02  0.85940405410E+01 -0.49838586065E+02  0.84761706779E+02  0.47000000000E+01 0. -1.
        -11    1    4    4    0    0  0.60323623448E+02 -0.13834365252E+02 -0.19310116836E+03  0.20277670090E+03  0.00000000000E+00 0.  1.
         12    1    4    4    0    0 -0.20779364787E+02 -0.32394067494E+02 -0.16882191926E+03  0.17315310576E+03  0.00000000000E+00 0. -1.
         -5    1    5    5    0  502 -0.65537771263E+02 -0.46600690366E+02  0.83542814887E+02  0.11605307288E+03  0.47000000000E+01 0.  1.
         11    1    6    6    0    0 -0.34060194648E+02 -0.43067016539E+01  0.24322596154E+02  0.42074139591E+02  0.00000000000E+00 0. -1.
        -12    1    6    6    0    0 -0.78043412204E+01  0.88541784225E+02  0.56526116193E+02  0.10533639973E+03  0.00000000000E+00 0.  1.
</event>
<event>
12    1  0.8462562E-002  0.2110394E+03  0.7818608E-02  0.1141085E+00
         21   -1    0    0  503  502  0.00000000000E+00  0.00000000000E+00  0.26226591854E+03  0.26226591854E+03  0.00000000000E+00 0. -1.
         21   -1    0    0  501  503 -0.00000000000E+00 -0.00000000000E+00 -0.18083741249E+03  0.18083741249E+03  0.00000000000E+00 0.  1.
          6    2    1    2  501    0  0.91056620794E+02 -0.77044502112E+02  0.98573351382E+02  0.23136861861E+03  0.17201037346E+03 0.  0.
         24    2    3    3    0    0  0.29576293728E+02 -0.12841486058E+02 -0.13342015044E+02  0.88368628646E+02  0.81187094100E+02 0.  0.
         -6    2    1    2    0  502 -0.91056620794E+02  0.77044502112E+02 -0.17144845332E+02  0.21173471243E+03  0.17409905005E+03 0.  0.
        -24    2    5    5    0    0 -0.34544047056E+02  0.99146343958E+02  0.29331822753E+02  0.13515577877E+03  0.79896432974E+02 0.  0.
          5    1    3    3  501    0  0.61480327065E+02 -0.64203016054E+02  0.11191536643E+03  0.14299998996E+03  0.47000000000E+01 0. -1.
        -11    1    4    4    0    0 -0.12919987384E+02 -0.36477703317E+02 -0.47579427101E+01  0.38989574660E+02  0.00000000000E+00 0.  1.
         12    1    4    4    0    0  0.42496281113E+02  0.23636217259E+02 -0.85840723339E+01  0.49379053986E+02  0.00000000000E+00 0. -1.
         -5    1    5    5    0  502 -0.56512573737E+02 -0.22101841845E+02 -0.46476668085E+02  0.76578933655E+02  0.47000000000E+01 0.  1.
         11    1    6    6    0    0  0.22168361975E+02  0.41456754348E+02 -0.49959802158E+01  0.47276406082E+02  0.00000000000E+00 0. -1.
        -12    1    6    6    0    0 -0.56712409031E+02  0.57689589609E+02  0.34327802969E+02  0.87879372688E+02  0.00000000000E+00 0.  1.
</event>
<event>
12    1  0.8462562E-002  0.2926215E+03  0.7818608E-02  0.1089314E+00
         21   -1    0    0  501  502  0.00000000000E+00  0.00000000000E+00  0.57028163934E+03  0.57028163934E+03  0.00000000000E+00 0.  1.
         21   -1    0    0  502  503 -0.00000000000E+00 -0.00000000000E+00 -0.14997748108E+03  0.14997748108E+03  0.00000000000E+00 0.  1.
         -6    2    1    2    0  503  0.14979149609E+02 -0.23372157056E+03  0.24032121034E+03  0.37671698482E+03  0.17120530087E+03 0.  0.
        -24    2    3    3    0    0  0.26020596932E+02 -0.15206704502E+03  0.69568506269E+02  0.18706480042E+03  0.79699465791E+02 0.  0.
          6    2    1    2  501    0 -0.14979149609E+02  0.23372157056E+03  0.17998294792E+03  0.34354213560E+03  0.17543428948E+03 0.  0.
         24    2    5    5    0    0  0.48195691986E+02  0.11593031400E+03  0.13505604413E+03  0.20245224433E+03  0.83571010228E+02 0.  0.
          5    1    5    5  501    0 -0.63174841595E+02  0.11779125656E+03  0.44926903784E+02  0.14108989126E+03  0.47000000000E+01 0. -1.
        -13    1    6    6    0    0  0.28376915427E+02  0.11067478360E+03  0.14064078155E+03  0.18120150797E+03  0.00000000000E+00 0.  1.
         14    1    6    6    0    0  0.19818776559E+02  0.52555303990E+01 -0.55847374232E+01  0.21250736367E+02  0.00000000000E+00 0. -1.
         -5    1    3    3    0  503 -0.11041447323E+02 -0.81654525540E+02  0.17075270407E+03  0.18965218440E+03  0.47000000000E+01 0.  1.
         13    1    4    4    0    0  0.42395654173E+02 -0.46543103699E+02  0.45282737282E+02  0.77551133393E+02  0.00000000000E+00 0. -1.
        -14    1    4    4    0    0 -0.16375057241E+02 -0.10552394132E+03  0.24285768987E+02  0.10951366703E+03  0.00000000000E+00 0.  1.
</event>
<event>
12    1  0.8462562E-002  0.1919299E+03  0.7818608E-02  0.1157736E+00
         21   -1    0    0  501  502  0.00000000000E+00  0.00000000000E+00  0.36145357926E+03  0.36145357926E+03  0.00000000000E+00 0. -1.
         21   -1    0    0  502  503 -0.00000000000E+00 -0.00000000000E+00 -0.32746029322E+03  0.32746029322E+03  0.00000000000E+00 0. -1.
         -6    2    1    2    0  503  0.54801843416E+02  0.66168785279E+02 -0.27041823498E+03  0.32904799364E+03  0.16662835930E+03 0.  0.
        -24    2    3    3    0    0  0.41335805616E+02  0.89332166490E+02 -0.11387745568E+03  0.17016129821E+03  0.79359357984E+02 0.  0.
          6    2    1    2  501    0 -0.54801843416E+02 -0.66168785279E+02  0.30441152101E+03  0.35986587884E+03  0.17162612401E+03 0.  0.
         24    2    5    5    0    0 -0.95996983456E+02 -0.29666971073E+02  0.25524714782E+03  0.28591557394E+03  0.80629144532E+02 0.  0.
          5    1    5    5  501    0  0.41195140041E+02 -0.36501814206E+02  0.49164373192E+02  0.73950304899E+02  0.47000000000E+01 0. -1.
        -13    1    6    6    0    0 -0.10486965309E+02  0.21295174253E+02  0.89307550915E+02  0.92408330460E+02  0.00000000000E+00 0.  1.
         14    1    6    6    0    0 -0.85510018148E+02 -0.50962145326E+02  0.16593959690E+03  0.19350724348E+03  0.00000000000E+00 0. -1.
         -5    1    3    3    0  503  0.13466037799E+02 -0.23163381211E+02 -0.15654077929E+03  0.15888669543E+03  0.47000000000E+01 0.  1.
         13    1    4    4    0    0  0.22113239641E+01  0.63297840790E+02 -0.10456734390E+03  0.12225316361E+03  0.00000000000E+00 0. -1.
        -14    1    4    4    0    0  0.39124481652E+02  0.26034325700E+02 -0.93101117807E+01  0.47908134597E+02  0.00000000000E+00 0.  1.
</event>
<event>
12    1  0.8462562E-002  0.2115695E+03  0.7818608E-02  0.1140390E+00
         21   -1    0    0  501  502  0.00000000000E+00  0.00000000000E+00  0.29690244076E+04  0.29690244076E+04  0.00000000000E+00 0.  1.
         21   -1    0    0  502  503 -0.00000000000E+00 -0.00000000000E+00 -0.15770996195E+02  0.15770996195E+02  0.00000000000E+00 0. -1.
         -6    2    1    2    0  503  0.96435816182E+02 -0.72709698404E+02  0.11574383046E+04  0.11765604712E+04  0.17333362777E+03 0.  0.
        -24    2    3    3    0    0  0.69147218072E+01 -0.57021556545E+01  0.73445917980E+03  0.73902479591E+03  0.81529345748E+02 0.  0.
          6    2    1    2  501    0 -0.96435816182E+02  0.72709698404E+02  0.17958151067E+04  0.18082349325E+04  0.17370983507E+03 0.  0.
         24    2    5    5    0    0 -0.42659228360E+02  0.50646686280E+02  0.47715064618E+03  0.48828161995E+03  0.79757787278E+02 0.  0.
          5    1    5    5  501    0 -0.53776587822E+02  0.22063012124E+02  0.13186644606E+04  0.13199533126E+04  0.47000000000E+01 0. -1.
        -13    1    6    6    0    0  0.19345486502E+02  0.71564990592E+01  0.19690599001E+03  0.19798341402E+03  0.00000000000E+00 0.  1.
         14    1    6    6    0    0 -0.62004714862E+02  0.43490187221E+02  0.28024465617E+03  0.29029820593E+03  0.00000000000E+00 0. -1.
         -5    1    3    3    0  503  0.89521094374E+02 -0.67007542749E+02  0.42297912482E+03  0.43753567530E+03  0.47000000000E+01 0.  1.
         11    1    4    4    0    0 -0.24609637650E+01 -0.11418591157E+01 -0.14265837642E+01  0.30651796243E+01  0.00000000000E+00 0. -1.
        -12    1    4    4    0    0  0.93756855722E+01 -0.45602965389E+01  0.73588576356E+03  0.73595961628E+03  0.00000000000E+00 0.  1.
</event>
<event>
12    1  0.8462562E-002  0.1930161E+03  0.7818608E-02  0.1155922E+00
         21   -1    0    0  501  502  0.00000000000E+00  0.00000000000E+00  0.54973941687E+03  0.54973941687E+03  0.00000000000E+00 0. -1.
         21   -1    0    0  502  503 -0.00000000000E+00 -0.00000000000E+00 -0.68626641378E+02  0.68626641378E+02  0.00000000000E+00 0. -1.
         -6    2    1    2    0  503 -0.65514636884E+02  0.54306103066E+02  0.27927889978E+03  0.33909533027E+03  0.17247497985E+03 0.  0.
        -24    2    3    3    0    0 -0.76272940787E+02  0.52512865405E+02  0.10197715145E+03  0.16139626792E+03  0.84108580709E+02 0.  0.
          6    2    1    2  501    0  0.65514636884E+02 -0.54306103066E+02  0.20183387572E+03  0.27927072798E+03  0.17324521824E+03 0.  0.
         24    2    5    5    0    0  0.93226958213E+02  0.37855623088E+01  0.99920883813E+02  0.15864335854E+03  0.80485625836E+02 0.  0.
          5    1    5    5  501    0 -0.27712321329E+02 -0.58091665375E+02  0.10191299191E+03  0.12062736944E+03  0.47000000000E+01 0. -1.
        -11    1    6    6    0    0  0.42251765556E+02  0.32598301104E+02  0.81204686016E+02  0.97170273018E+02  0.00000000000E+00 0.  1.
         12    1    6    6    0    0  0.50975192656E+02 -0.28812738795E+02  0.18716197797E+02  0.61473085519E+02  0.00000000000E+00 0. -1.
         -5    1    3    3    0  503  0.10758303904E+02  0.17932376616E+01  0.17730174832E+03  0.17769906236E+03  0.47000000000E+01 0.  1.
         13    1    4    4    0    0 -0.56151825827E+02  0.70089780049E+02  0.49591686888E+02  0.10259113129E+03  0.00000000000E+00 0. -1.
        -14    1    4    4    0    0 -0.20121114960E+02 -0.17576914644E+02  0.52385464566E+02  0.58805136625E+02  0.00000000000E+00 0.  1.
</event>
<event>
12    1  0.8462562E-002  0.1815871E+03  0.7818608E-02  0.1166297E+00
         21   -1    0    0  503  502  0.00000000000E+00  0.00000000000E+00  0.21922197221E+03  0.21922197221E+03  0.00000000000E+00 0.  1.
         21   -1    0    0  501  503 -0.00000000000E+00 -0.00000000000E+00 -0.18684596502E+03  0.18684596502E+03  0.00000000000E+00 0.  1.
          6    2    1    2  501    0  0.16889118172E+01 -0.59939066205E+02 -0.73560848841E+02  0.19583834215E+03  0.17130649051E+03 0.  0.
         24    2    3    3    0    0  0.18542165855E+02 -0.72374611777E+02 -0.10879997705E+03  0.15457623941E+03  0.80464168665E+02 0.  0.
         -6    2    1    2    0  502 -0.16889118172E+01  0.59939066205E+02  0.10593685603E+03  0.21022959508E+03  0.17140105339E+03 0.  0.
        -24    2    5    5    0    0  0.49252761060E+02 -0.81004929258E+01  0.75141910159E+02  0.11970416035E+03  0.78684985130E+02 0.  0.
          5    1    3    3  501    0 -0.16853254038E+02  0.12435545572E+02  0.35239128211E+02  0.41262102738E+02  0.47000000000E+01 0. -1.
        -11    1    4    4    0    0  0.60929603228E+01 -0.60082406029E+02 -0.19325503410E+02  0.63407371510E+02  0.00000000000E+00 0.  1.
         12    1    4    4    0    0  0.12449205532E+02 -0.12292205748E+02 -0.89474473642E+02  0.91168867899E+02  0.00000000000E+00 0. -1.
         -5    1    5    5    0  502 -0.50941672878E+02  0.68039559131E+02  0.30794945875E+02  0.90525434734E+02  0.47000000000E+01 0.  1.
         13    1    6    6    0    0 -0.11817852943E+02 -0.26286542890E+02  0.30087082849E+02  0.41663851714E+02  0.00000000000E+00 0. -1.
        -14    1    6    6    0    0  0.61070614003E+02  0.18186049964E+02  0.45054827310E+02  0.78040308635E+02  0.00000000000E+00 0.  1.
</event>
<event>
12    1  0.8462562E-002  0.1978226E+03  0.7818608E-02  0.1151865E+00
         21   -1    0    0  503  502  0.00000000000E+00  0.00000000000E+00  0.38399298351E+03  0.38399298351E+03  0.00000000000E+00 0. -1.
         21   -1    0    0  501  503 -0.00000000000E+00 -0.00000000000E+00 -0.10390420754E+03  0.10390420754E+03  0.00000000000E+00 0.  1.
          6    2    1    2  501    0  0.30118558300E+02 -0.91510301021E+02  0.10150634556E+03  0.22234505472E+03  0.17277882516E+03 0.  0.
         24    2    3    3    0    0  0.53459163784E+01 -0.38466596121E+02 -0.17180316659E+02  0.89921747841E+02  0.79262220605E+02 0.  0.
         -6    2    1    2    0  502 -0.30118558300E+02  0.91510301021E+02  0.17858243041E+03  0.26555213633E+03  0.17130379421E+03 0.  0.
        -24    2    5    5    0    0 -0.64290576949E+02  0.40367528009E+02  0.17145260181E+03  0.20345354902E+03  0.78959080170E+02 0.  0.
          5    1    3    3  501    0  0.24772641922E+02 -0.53043704900E+02  0.11868666221E+03  0.13242330688E+03  0.47000000000E+01 0. -1.
        -13    1    4    4    0    0  0.78823296079E+01 -0.15495596918E+02 -0.48199975097E+02  0.51239459826E+02  0.00000000000E+00 0.  1.
         14    1    4    4    0    0 -0.25364132295E+01 -0.22970999202E+02  0.31019658439E+02  0.38682288015E+02  0.00000000000E+00 0. -1.
         -5    1    5    5    0  502  0.34172018649E+02  0.51142773011E+02  0.71298286016E+01  0.62098587309E+02  0.47000000000E+01 0.  1.
         11    1    6    6    0    0 -0.37908953976E+02  0.62733666751E+02  0.99123993753E+02  0.12328084958E+03  0.00000000000E+00 0. -1.
        -12    1    6    6    0    0 -0.26381622973E+02 -0.22366138741E+02  0.72328608054E+02  0.80172699443E+02  0.00000000000E+00 0.  1.
</event>
<event>
12    1  0.8462562E-002  0.2738360E+03  0.7818608E-02  0.1099205E+00
         21   -1    0    0  503  502  0.00000000000E+00  0.00000000000E+00  0.65902103263E+03  0.65902103263E+03  0.00000000000E+00 0.  1.
         21   -1    0    0  501  503 -0.00000000000E+00 -0.00000000000E+00 -0.13112452594E+03  0.13112452594E+03  0.00000000000E+00 0.  1.
          6    2    1    2  501    0 -0.44038092164E+02  0.20997205214E+03  0.11874962246E+03  0.29781706309E+03  0.16901453781E+03 0.  0.
         24    2    3    3    0    0  0.32568115451E+02  0.79782726517E+02  0.72361376599E+02  0.13972933141E+03  0.82838104998E+02 0.  0.
         -6    2    1    2    0  502  0.44038092164E+02 -0.20997205214E+03  0.40914688423E+03  0.49232849548E+03  0.17017214327E+03 0.  0.
        -24    2    5    5    0    0  0.43180929862E+02 -0.14962058946E+03  0.15776396378E+03  0.23375839577E+03  0.74179551274E+02 0.  0.
          5    1    3    3  501    0 -0.76606207615E+02  0.13018932562E+03  0.46388245856E+02  0.15808773167E+03  0.47000000000E+01 0. -1.
        -11    1    4    4    0    0  0.42723394137E+02  0.88876655288E+02  0.43439661294E+02  0.10775598561E+03  0.00000000000E+00 0.  1.
         12    1    4    4    0    0 -0.10155278686E+02 -0.90939287706E+01  0.28921715304E+02  0.31973345803E+02  0.00000000000E+00 0. -1.
         -5    1    5    5    0  502  0.85716230143E+00 -0.60351462678E+02  0.25138292045E+03  0.25857009972E+03  0.47000000000E+01 0.  1.
         13    1    6    6    0    0  0.12358415511E+02 -0.64938953550E+02  0.19864765592E+02  0.69024684238E+02  0.00000000000E+00 0. -1.
        -14    1    6    6    0    0  0.30822514351E+02 -0.84681635914E+02  0.13789919819E+03  0.16473371153E+03  0.00000000000E+00 0.  1.
</event>
<event>
12    1  0.8462562E-002  0.1733703E+03  0.7818608E-02  0.1174548E+00
         21   -1    0    0  501  502  0.00000000000E+00  0.00000000000E+00  0.40848014662E+02  0.40848014662E+02  0.00000000000E+00 0.  1.
         21   -1    0    0  502  503 -0.00000000000E+00 -0.00000000000E+00 -0.74222568073E+03  0.74222568073E+03  0.00000000000E+00 0.  1.
         -6    2    1    2    0  503 -0.60847117169E+01 -0.69892186088E+01 -0.30771921652E+03  0.35319736151E+03  0.17312246263E+03 0.  0.
        -24    2    3    3    0    0  0.21672442035E+02 -0.47058980671E+02 -0.28259438504E+03  0.29815744351E+03  0.79712183884E+02 0.  0.
          6    2    1    2  501    0  0.60847117169E+01  0.69892186088E+01 -0.39365844955E+03  0.42987633388E+03  0.17245525402E+03 0.  0.
         24    2    5    5    0    0 -0.64393064770E+02  0.13758093776E+02 -0.25406580789E+03  0.27328409189E+03  0.76151219315E+02 0.  0.
          5    1    5    5  501    0  0.70477776487E+02 -0.67688751673E+01 -0.13959264165E+03  0.15659224200E+03  0.47000000000E+01 0. -1.
        -13    1    6    6    0    0 -0.17622919514E+02  0.29408461468E+01 -0.20074116021E+03  0.20153468503E+03  0.00000000000E+00 0.  1.
         14    1    6    6    0    0 -0.46770145256E+02  0.10817247629E+02 -0.53324647682E+02  0.71749406854E+02  0.00000000000E+00 0. -1.
         -5    1    3    3    0  503 -0.27757153752E+02  0.40069762063E+02 -0.25124831482E+02  0.55039917997E+02  0.47000000000E+01 0.  1.
         13    1    4    4    0    0  0.16298584644E+02  0.20017812609E+02 -0.10805158356E+03  0.11109231023E+03  0.00000000000E+00 0. -1.
        -14    1    4    4    0    0  0.53738573911E+01 -0.67076793281E+02 -0.17454280148E+03  0.18706513328E+03  0.00000000000E+00 0.  1.
</event>
<event>
12    1  0.8462562E-002  0.2008170E+03  0.7818608E-02  0.1149277E+00
         21   -1    0    0  501  502  0.00000000000E+00  0.00000000000E+00  0.12240716936E+03  0.12240716936E+03  0.00000000000E+00 0. -1.
         21   -1    0    0  502  503 -0.00000000000E+00 -0.00000000000E+00 -0.33231279160E+03  0.33231279160E+03  0.00000000000E+00 0. -1.
         -6    2    1    2    0  503 -0.82807676878E+02 -0.62008920203E+02 -0.78441370919E+02  0.21559336240E+03  0.17211981787E+03 0.  0.
        -24    2    3    3    0    0 -0.79624872174E+02  0.49673084798E+01 -0.41208783529E+01  0.11538572262E+03  0.83259167204E+02 0.  0.
          6    2    1    2  501    0  0.82807676878E+02  0.62008920203E+02 -0.13146425132E+03  0.23912659857E+03  0.17086972591E+03 0.  0.
         24    2    5    5    0    0  0.10183779588E+03  0.78904109131E+02 -0.64262027174E+02  0.16711394851E+03  0.84856753074E+02 0.  0.
          5    1    5    5  501    0 -0.19030118998E+02 -0.16895188928E+02 -0.67202224151E+02  0.72012650061E+02  0.47000000000E+01 0. -1.
        -13    1    6    6    0    0  0.11340878186E+03  0.57372815729E+02 -0.64806903103E+02  0.14266438405E+03  0.00000000000E+00 0.  1.
         14    1    6    6    0    0 -0.11570985983E+02  0.21531293401E+02  0.54487592905E+00  0.24449564453E+02  0.00000000000E+00 0. -1.
         -5    1    3    3    0  503 -0.31828047032E+01 -0.66976228683E+02 -0.74320492566E+02  0.10020763978E+03  0.47000000000E+01 0.  1.
         13    1    4    4    0    0  0.44667960529E+01 -0.23197149737E+02  0.98769511103E+01  0.25604964092E+02  0.00000000000E+00 0. -1.
        -14    1    4    4    0    0 -0.84091668227E+02  0.28164458217E+02 -0.13997829463E+02  0.89780758526E+02  0.00000000000E+00 0.  1.
</event>
<event>
12    1  0.8462562E-002  0.1871255E+03  0.7818608E-02  0.1161278E+00
         21   -1    0    0  501  502  0.00000000000E+00  0.00000000000E+00  0.97097264585E+03  0.97097264585E+03  0.00000000000E+00 0.  1.
         21   -1    0    0  502  503 -0.00000000000E+00 -0.00000000000E+00 -0.15709190498E+03  0.15709190498E+03  0.00000000000E+00 0. -1.
         -6    2    1    2    0  503 -0.75806475115E+02 -0.95119852470E+01 -0.88686546961E+02  0.20630338430E+03  0.16987843662E+03 0.  0.
        -24    2    3    3    0    0 -0.10146176049E+03  0.20720940328E+02 -0.94713780307E+02  0.16592218821E+03  0.88519072240E+02 0.  0.
          6    2    1    2  501    0  0.75806475115E+02  0.95119852470E+01  0.90256728783E+03  0.92176116653E+03  0.17081814753E+03 0.  0.
         24    2    5    5    0    0  0.35433634597E+02 -0.36116112697E+02  0.25384424731E+03  0.27016653574E+03  0.77415367226E+02 0.  0.
          5    1    5    5  501    0  0.40372840518E+02  0.45628097944E+02  0.64872304051E+03  0.65159463079E+03  0.47000000000E+01 0. -1.
        -13    1    6    6    0    0  0.13249691242E+02 -0.20629423920E+02  0.23706802308E+03  0.23833248838E+03  0.00000000000E+00 0.  1.
         14    1    6    6    0    0  0.22183943355E+02 -0.15486688776E+02  0.16776224236E+02  0.31834047365E+02  0.00000000000E+00 0. -1.
         -5    1    3    3    0  503  0.25655285371E+02 -0.30232925575E+02  0.60272333464E+01  0.40381196095E+02  0.47000000000E+01 0.  1.
         11    1    4    4    0    0 -0.31241411724E+02 -0.31697327307E+02 -0.51979616292E+02  0.68429722159E+02  0.00000000000E+00 0. -1.
        -12    1    4    4    0    0 -0.70220348762E+02  0.52418267634E+02 -0.42734164015E+02  0.97492466048E+02  0.00000000000E+00 0.  1.
</event>
<event>
12    1  0.8462562E-002  0.2044249E+03  0.7818608E-02  0.1146351E+00
         21   -1    0    0  501  502  0.00000000000E+00  0.00000000000E+00  0.65781967866E+03  0.65781967866E+03  0.00000000000E+00 0. -1.
         21   -1    0    0  502  503 -0.00000000000E+00 -0.00000000000E+00 -0.93515632483E+02  0.93515632483E+02  0.00000000000E+00 0. -1.
         -6    2    1    2    0  503  0.62148140743E+02  0.91922322760E+02  0.68525824056E+02  0.21560456600E+03  0.17168994000E+03 0.  0.
        -24    2    3    3    0    0 -0.25382243453E+02  0.59682963092E+02  0.70028070610E+01  0.10376487676E+03  0.80695699855E+02 0.  0.
          6    2    1    2  501    0 -0.62148140743E+02 -0.91922322760E+02  0.49577822212E+03  0.53573074515E+03  0.16999788512E+03 0.  0.
         24    2    5    5    0    0 -0.54272427376E+02 -0.11121873490E+03  0.49236099791E+03  0.51409406787E+03  0.80983053673E+02 0.  0.
          5    1    5    5  501    0 -0.78757133670E+01  0.19296412139E+02  0.34172242077E+01  0.21636677281E+02  0.47000000000E+01 0. -1.
        -11    1    6    6    0    0 -0.20508922375E+02 -0.57827268680E+02  0.10497333146E+03  0.12158951114E+03  0.00000000000E+00 0.  1.
         12    1    6    6    0    0 -0.33763505001E+02 -0.53391466219E+02  0.38738766645E+03  0.39250455673E+03  0.00000000000E+00 0. -1.
         -5    1    3    3    0  503  0.87530384196E+02  0.32239359669E+02  0.61523016995E+02  0.11183968924E+03  0.47000000000E+01 0.  1.
         11    1    4    4    0    0  0.20428543411E+02  0.53531465649E+02  0.45702540954E+01  0.57478956349E+02  0.00000000000E+00 0. -1.
        -12    1    4    4    0    0 -0.45810786865E+02  0.61514974425E+01  0.24325529656E+01  0.46285920406E+02  0.00000000000E+00 0.  1.
</event>
<event>
12    1  0.8462562E-002  0.2415651E+03  0.7818608E-02  0.1118810E+00
         21   -1    0    0  501  502  0.00000000000E+00  0.00000000000E+00  0.50705675815E+03  0.50705675815E+03  0.00000000000E+00 0.  1.
         21   -1    0    0  502  503 -0.00000000000E+00 -0.00000000000E+00 -0.16843257036E+03  0.16843257036E+03  0.00000000000E+00 0. -1.
         -6    2    1    2    0  503  0.50084190146E+02 -0.16120481103E+03 -0.21132193855E+02  0.24215534650E+03  0.17232882817E+03 0.  0.
        -24    2    3    3    0    0  0.12787313722E+02 -0.13400810789E+03 -0.78765538399E+02  0.16816609014E+03  0.62881916815E+02 0.  0.
          6    2    1    2  501    0 -0.50084190146E+02  0.16120481103E+03  0.35975638165E+03  0.43333398201E+03  0.17279545314E+03 0.  0.
         24    2    5    5    0    0 -0.82279700898E+02  0.10586280124E+03  0.16400940845E+03  0.22732850519E+03  0.82475944060E+02 0.  0.
          5    1    5    5  501    0  0.32195510752E+02  0.55342009791E+02  0.19574697320E+03  0.20600547681E+03  0.47000000000E+01 0. -1.
        -11    1    6    6    0    0 -0.88853168591E+02  0.11323615102E+03  0.16291424475E+03  0.21738988617E+03  0.00000000000E+00 0.  1.
         12    1    6    6    0    0  0.65734676930E+01 -0.73733497814E+01  0.10951636918E+01  0.99386190199E+01  0.00000000000E+00 0. -1.
         -5    1    3    3    0  503  0.37296876424E+02 -0.27196703141E+02  0.57633344544E+02  0.73989256355E+02  0.47000000000E+01 0.  1.
         13    1    4    4    0    0  0.94498156973E+01 -0.47560633729E+02 -0.64171440138E+02  0.80431875689E+02  0.00000000000E+00 0. -1.
        -14    1    4    4    0    0  0.33374980247E+01 -0.86447474161E+02 -0.14594098261E+02  0.87734214455E+02  0.00000000000E+00 0.  1.
</event>
<event>
12    1  0.8462562E-002  0.2445008E+03  0.7818608E-02  0.1119035E+00
         21   -1    0    0  503  502  0.00000000000E+00  0.00000000000E+00  0.29191553817E+03  0.29191553817E+03  0.00000000000E+00 0. -1.
         21   -1    0    0  501  503 -0.00000000000E+00 -0.00000000000E+00 -0.19614102118E+03  0.19614102118E+03  0.00000000000E+00 0.  1.
          6    2    1    2  501    0 -0.15733872922E+03  0.74169046413E+02  0.72595033136E+02  0.24245946306E+03  0.15251239042E+03 0.  0.
         24    2    3    3    0    0 -0.47463235964E+02 -0.64794118737E+01  0.11158712441E+02  0.92882361394E+02  0.78790066939E+02 0.  0.
         -6    2    1    2    0  502  0.15733872922E+03 -0.74169046413E+02  0.23179483848E+02  0.24559709630E+03  0.17182584811E+03 0.  0.
        -24    2    5    5    0    0  0.18146350379E+03 -0.86885523685E+02  0.14520414337E+02  0.21660083745E+03  0.78911234422E+02 0.  0.
          5    1    3    3  501    0 -0.10987549325E+03  0.80648458287E+02  0.61436320696E+02  0.14957710166E+03  0.47000000000E+01 0. -1.
        -11    1    4    4    0    0  0.11217615822E+02  0.23475133020E+02  0.65944381472E+01  0.26840331397E+02  0.00000000000E+00 0.  1.
         12    1    4    4    0    0 -0.58680851787E+02 -0.29954544894E+02  0.45642742936E+01  0.66042029996E+02  0.00000000000E+00 0. -1.
         -5    1    5    5    0  502 -0.24124774572E+02  0.12716477272E+02  0.86590695118E+01  0.28996258848E+02  0.47000000000E+01 0.  1.
         11    1    6    6    0    0  0.91909091951E+02 -0.27907281605E+02  0.43618064348E+02  0.10549233663E+03  0.00000000000E+00 0. -1.
        -12    1    6    6    0    0  0.89554411837E+02 -0.58978242080E+02 -0.29097650012E+02  0.11110850082E+03  0.00000000000E+00 0.  1.
</event>
<event>
12    1  0.8462562E-002  0.1734663E+03  0.7818608E-02  0.1174384E+00
         21   -1    0    0  501  502  0.00000000000E+00  0.00000000000E+00  0.20095440564E+02  0.20095440564E+02  0.00000000000E+00 0. -1.
         21   -1    0    0  502  503 -0.00000000000E+00 -0.00000000000E+00 -0.16201990211E+04  0.16201990211E+04  0.00000000000E+00 0. -1.
         -6    2    1    2    0  503 -0.17863498554E+02 -0.11843744605E+02 -0.10281883545E+04  0.10426511030E+04  0.17172842341E+03 0.  0.
        -24    2    3    3    0    0 -0.69823163530E+02 -0.14644205385E+02 -0.84795789026E+03  0.85500047123E+03  0.83087274828E+02 0.  0.
          6    2    1    2  501    0  0.17863498554E+02  0.11843744605E+02 -0.57191522602E+03  0.59764335864E+03  0.17213709509E+03 0.  0.
         24    2    5    5    0    0 -0.59949904439E+01 -0.14053679595E+02 -0.54974555070E+03  0.55576868155E+03  0.80157414246E+02 0.  0.
          5    1    5    5  501    0  0.23858488998E+02  0.25897424200E+02 -0.22169675319E+02  0.41874677088E+02  0.47000000000E+01 0. -1.
        -13    1    6    6    0    0 -0.34171780699E+02 -0.20644170845E+02 -0.15836488180E+03  0.16331971153E+03  0.00000000000E+00 0.  1.
         14    1    6    6    0    0  0.28176790255E+02  0.65904912506E+01 -0.39138066890E+03  0.39244897002E+03  0.00000000000E+00 0. -1.
         -5    1    3    3    0  503  0.51959664976E+02  0.28004607793E+01 -0.18023046421E+03  0.18765063174E+03  0.47000000000E+01 0.  1.
         13    1    4    4    0    0 -0.86242845243E+02 -0.17318695167E+02 -0.59166656525E+03  0.59816978358E+03  0.00000000000E+00 0. -1.
        -14    1    4    4    0    0  0.16419681713E+02  0.26744897821E+01 -0.25629132501E+03  0.25683068765E+03  0.00000000000E+00 0.  1.
</event>
<event>
12    1  0.8462562E-002  0.1773927E+03  0.7818608E-02  0.1175304E+00
         21   -1    0    0  503  502  0.00000000000E+00  0.00000000000E+00  0.34271861913E+03  0.34271861913E+03  0.00000000000E+00 0. -1.
         21   -1    0    0  501  503 -0.00000000000E+00 -0.00000000000E+00 -0.11343082199E+03  0.11343082199E+03  0.00000000000E+00 0.  1.
          6    2    1    2  501    0  0.39356774939E+02  0.21299311626E+02  0.22932410926E+03  0.27875675464E+03  0.15203014424E+03 0.  0.
         24    2    3    3    0    0  0.48030037813E+02  0.83034493364E+01  0.64389316630E+02  0.11301691711E+03  0.79063314204E+02 0.  0.
         -6    2    1    2    0  502 -0.39356774939E+02 -0.21299311626E+02 -0.36312113852E-01  0.17739268649E+03  0.17165531594E+03 0.  0.
        -24    2    5    5    0    0  0.42618404452E+02 -0.24716177410E+02  0.61945149103E+01  0.94975951454E+02  0.80961975740E+02 0.  0.
          5    1    3    3  501    0 -0.86732628734E+01  0.12995862289E+02  0.16493479263E+03  0.16573983753E+03  0.47000000000E+01 0. -1.
        -11    1    4    4    0    0 -0.61724776723E+01  0.25957872833E+02  0.45893913828E+02  0.53086363306E+02  0.00000000000E+00 0.  1.
         12    1    4    4    0    0  0.54202515485E+02 -0.17654423497E+02  0.18495402802E+02  0.59930553800E+02  0.00000000000E+00 0. -1.
         -5    1    5    5    0  502 -0.81975179391E+02  0.34168657848E+01 -0.62308270241E+01  0.82416735032E+02  0.47000000000E+01 0.  1.
         13    1    6    6    0    0  0.30754430086E+02 -0.28341387015E+02  0.40670104992E+02  0.58336323400E+02  0.00000000000E+00 0. -1.
        -14    1    6    6    0    0  0.11863974365E+02  0.36252096043E+01 -0.34475590081E+02  0.36639628053E+02  0.00000000000E+00 0.  1.
</event>
<event>
12    1  0.8462562E-002  0.1745737E+03  0.7818608E-02  0.1173447E+00
         21   -1    0    0  503  502  0.00000000000E+00  0.00000000000E+00  0.40537493492E+02  0.40537493492E+02  0.00000000000E+00 0.  1.
         21   -1    0    0  501  503 -0.00000000000E+00 -0.00000000000E+00 -0.80124895165E+03  0.80124895165E+03  0.00000000000E+00 0.  1.
          6    2    1    2  501    0 -0.17075128692E+02 -0.18810276399E+02 -0.49110927501E+03  0.52121425717E+03  0.17271535934E+03 0.  0.
         24    2    3    3    0    0 -0.95049938339E+01 -0.50667354818E+02 -0.14809191350E+03  0.17660552151E+03  0.81245120675E+02 0.  0.
         -6    2    1    2    0  502  0.17075128692E+02  0.18810276399E+02 -0.26960218314E+03  0.32057218797E+03  0.17156865689E+03 0.  0.
        -24    2    5    5    0    0  0.31358289292E+02 -0.47052370611E+02 -0.97900289640E+02  0.13605788723E+03  0.75696856455E+02 0.  0.
          5    1    3    3  501    0 -0.75701348579E+01  0.31857078418E+02 -0.34301736152E+03  0.34460873566E+03  0.47000000000E+01 0. -1.
        -13    1    4    4    0    0 -0.43746219335E+02 -0.26056510667E+02 -0.10281938327E+03  0.11473665077E+03  0.00000000000E+00 0.  1.
         14    1    4    4    0    0  0.34241225501E+02 -0.24610844151E+02 -0.45272530225E+02  0.61868870740E+02  0.00000000000E+00 0. -1.
         -5    1    5    5    0  502 -0.14283160600E+02  0.65862647011E+02 -0.17170189350E+03  0.18451430074E+03  0.47000000000E+01 0.  1.
         11    1    6    6    0    0 -0.63361105554E+01 -0.29258683677E+02 -0.31010609006E+00  0.29938487491E+02  0.00000000000E+00 0. -1.
        -12    1    6    6    0    0  0.37694399848E+02 -0.17793686934E+02 -0.97590183550E+02  0.10611939973E+03  0.00000000000E+00 0.  1.
</event>
<event>
12    1  0.8462562E-002  0.1753967E+03  0.7818608E-02  0.1172395E+00
         21   -1    0    0  501  502  0.00000000000E+00  0.00000000000E+00  0.16279602671E+03  0.16279602671E+03  0.00000000000E+00 0. -1.
         21   -1    0    0  502  503 -0.00000000000E+00 -0.00000000000E+00 -0.22677097421E+03  0.22677097421E+03  0.00000000000E+00 0. -1.
         -6    2    1    2    0  503 -0.35579514800E+02  0.55999094864E+01  0.47828441485E+02  0.18156699578E+03  0.17141106523E+03 0.  0.
        -24    2    3    3    0    0 -0.79469360823E+02  0.86811901984E+01  0.67810542152E+02  0.13301612327E+03  0.81879649787E+02 0.  0.
          6    2    1    2  501    0  0.35579514800E+02 -0.55999094864E+01 -0.11180338899E+03  0.20800000515E+03  0.17165879964E+03 0.  0.
         24    2    5    5    0    0 -0.17029250377E+02  0.22799139649E+02 -0.76058298206E+01  0.87777671526E+02  0.82687815512E+02 0.  0.
          5    1    5    5  501    0  0.52608765177E+02 -0.28399049135E+02 -0.10419755916E+03  0.12022233362E+03  0.47000000000E+01 0. -1.
        -11    1    6    6    0    0 -0.28934422717E+02 -0.89792334189E+01 -0.33443840864E+02  0.45125579691E+02  0.00000000000E+00 0.  1.
         12    1    6    6    0    0  0.11905172339E+02  0.31778373068E+02  0.25838011043E+02  0.42652091835E+02  0.00000000000E+00 0. -1.
         -5    1    3    3    0  503  0.43889846024E+02 -0.30812807119E+01 -0.19982100668E+02  0.48550872514E+02  0.47000000000E+01 0.  1.
         11    1    4    4    0    0  0.14770488341E+02 -0.87864059857E+01  0.18423919442E+02  0.25195417512E+02  0.00000000000E+00 0. -1.
        -12    1    4    4    0    0 -0.94239849165E+02  0.17467596184E+02  0.49386622710E+02  0.10782070576E+03  0.00000000000E+00 0.  1.
</event>
<event>
12    1  0.8462562E-002  0.1954648E+03  0.7818608E-02  0.1153712E+00
         21   -1    0    0  503  502  0.00000000000E+00  0.00000000000E+00  0.37019474570E+03  0.37019474570E+03  0.00000000000E+00 0. -1.
         21   -1    0    0  501  503 -0.00000000000E+00 -0.00000000000E+00 -0.10755396255E+03  0.10755396255E+03  0.00000000000E+00 0.  1.
          6    2    1    2  501    0 -0.77528610592E+02  0.51208939100E+02  0.81988630034E+02  0.21158772356E+03  0.17150565122E+03 0.  0.
         24    2    3    3    0    0 -0.46923388553E+02  0.35177257621E+01  0.11400248714E+03  0.14633353984E+03  0.78757596590E+02 0.  0.
         -6    2    1    2    0  502  0.77528610592E+02 -0.51208939100E+02  0.18065215312E+03  0.26616098469E+03  0.17196926598E+03 0.  0.
        -24    2    5    5    0    0  0.12043359840E+03 -0.34939530653E+02  0.15129350382E+03  0.21148418963E+03  0.78171706770E+02 0.  0.
          5    1    3    3  501    0 -0.30605222040E+02  0.47691213338E+02 -0.32013857103E+02  0.65254183716E+02  0.47000000000E+01 0. -1.
        -13    1    4    4    0    0  0.22619561497E+01  0.89687573448E+01 -0.95160286536E+01  0.13270638842E+02  0.00000000000E+00 0.  1.
         14    1    4    4    0    0 -0.49185344702E+02 -0.54510315827E+01  0.12351851579E+03  0.13306290100E+03  0.00000000000E+00 0. -1.
         -5    1    5    5    0  502 -0.42904987805E+02 -0.16269408448E+02  0.29358649298E+02  0.54676795063E+02  0.47000000000E+01 0.  1.
         11    1    6    6    0    0  0.10890433926E+03 -0.44552892089E+02  0.15631837576E+03  0.19565415892E+03  0.00000000000E+00 0. -1.
        -12    1    6    6    0    0  0.11529259140E+02  0.96133614358E+01 -0.50248719338E+01  0.15830030712E+02  0.00000000000E+00 0.  1.
</event>
<event>
12    1  0.8462562E-002  0.1842625E+03  0.7818608E-02  0.1164033E+00
         21   -1    0    0  503  502  0.00000000000E+00  0.00000000000E+00  0.64820389008E+03  0.64820389008E+03  0.00000000000E+00 0.  1.
         21   -1    0    0  501  503 -0.00000000000E+00 -0.00000000000E+00 -0.32189139695E+03  0.32189139695E+03  0.00000000000E+00 0.  1.
          6    2    1    2  501    0  0.61922065711E+02  0.14162438881E+02 -0.28087642526E+03  0.33592294022E+03  0.17296744955E+03 0.  0.
         24    2    3    3    0    0  0.18105904024E+02 -0.29190057945E+02 -0.25613824480E+03  0.26933943942E+03  0.75875226085E+02 0.  0.
         -6    2    1    2    0  502 -0.61922065711E+02 -0.14162438881E+02  0.60718891840E+03  0.63417234681E+03  0.17164284414E+03 0.  0.
        -24    2    5    5    0    0  0.63106229140E+01  0.25530633624E+02  0.16731356085E+03  0.18724544006E+03  0.79846039135E+02 0.  0.
          5    1    3    3  501    0  0.43816161687E+02  0.43352496826E+02 -0.24738180453E+02  0.66583500796E+02  0.47000000000E+01 0. -1.
        -13    1    4    4    0    0 -0.44122354055E+01  0.23571138765E+02 -0.10441939544E+03  0.10713765233E+03  0.00000000000E+00 0.  1.
         14    1    4    4    0    0  0.22518139429E+02 -0.52761196710E+02 -0.15171884937E+03  0.16220178709E+03  0.00000000000E+00 0. -1.
         -5    1    5    5    0  502 -0.68232688625E+02 -0.39693072505E+02  0.43987535755E+03  0.44692690675E+03  0.47000000000E+01 0.  1.
         13    1    6    6    0    0  0.37646207828E+02 -0.74946319806E+01  0.82225323591E+02  0.90743651635E+02  0.00000000000E+00 0. -1.
        -14    1    6    6    0    0 -0.31335584914E+02  0.33025265605E+02  0.85088237258E+02  0.96501788428E+02  0.00000000000E+00 0.  1.
</event>
<event>
12    1  0.8462562E-002  0.2796495E+03  0.7818608E-02  0.1095890E+00
         21   -1    0    0  503  502  0.00000000000E+00  0.00000000000E+00  0.53770333398E+02  0.53770333398E+02  0.00000000000E+00 0. -1.
         21   -1    0    0  501  503 -0.00000000000E+00 -0.00000000000E+00 -0.17295345580E+04  0.17295345580E+04  0.00000000000E+00 0.  1.
          6    2    1    2  501    0  0.21459662604E+03 -0.50236923136E+02 -0.11938322750E+04  0.12261481725E+04  0.17212896249E+03 0.  0.
         24    2    3    3    0    0  0.15314371183E+03  0.69066692433E+01 -0.54526500144E+03  0.57215776802E+03  0.80931397834E+02 0.  0.
         -6    2    1    2    0  502 -0.21459662604E+03  0.50236923136E+02 -0.48193194959E+03  0.55715671889E+03  0.17201669982E+03 0.  0.
        -24    2    5    5    0    0 -0.21764010032E+03  0.64975948147E+02 -0.35072726501E+03  0.42500808723E+03  0.77673500515E+02 0.  0.
          5    1    3    3  501    0  0.61452914211E+02 -0.57143592379E+02 -0.64856727355E+03  0.65399040446E+03  0.47000000000E+01 0. -1.
        -13    1    4    4    0    0  0.99014617880E+02 -0.31108322983E+02 -0.38586180005E+03  0.39957596406E+03  0.00000000000E+00 0.  1.
         14    1    4    4    0    0  0.54129093949E+02  0.38014992227E+02 -0.15940320139E+03  0.17258180396E+03  0.00000000000E+00 0. -1.
         -5    1    5    5    0  502  0.30434742849E+01 -0.14739025010E+02 -0.13120468458E+03  0.13214863166E+03  0.47000000000E+01 0.  1.
         11    1    6    6    0    0 -0.12279242546E+03  0.57090436075E+02 -0.14538132648E+03  0.19867820145E+03  0.00000000000E+00 0. -1.
        -12    1    6    6    0    0 -0.94847674868E+02  0.78855120714E+01 -0.20534593852E+03  0.22632988578E+03  0.00000000000E+00 0.  1.
</event>
<event>
12    1  0.8462562E-002  0.2858185E+03  0.7818608E-02  0.1093395E+00
         21   -1    0    0  503  502  0.00000000000E+00  0.00000000000E+00  0.61449689225E+03  0.61449689225E+03  0.00000000000E+00 0.  1.
         21   -1    0    0  501  503 -0.00000000000E+00 -0.00000000000E+00 -0.10078448480E+04  0.10078448480E+04  0.00000000000E+00 0. -1.
          6    2    1    2  501    0 -0.20933950328E+03  0.65786657720E+02 -0.95341649161E+03  0.99355803101E+03  0.17321559555E+03 0.  0.
         24    2    3    3    0    0 -0.59724048482E+02 -0.26515507448E+02 -0.38125112012E+03  0.39497656091E+03  0.79900143781E+02 0.  0.
         -6    2    1    2    0  502  0.20933950328E+03 -0.65786657720E+02  0.56006853584E+03  0.62878370926E+03  0.18314277554E+03 0.  0.
        -24    2    5    5    0    0  0.20237153552E+03 -0.47707544846E+02  0.33006953626E+03  0.39792219947E+03  0.78523434976E+02 0.  0.
          5    1    3    3  501    0 -0.14961545480E+03  0.92302165167E+02 -0.57216537149E+03  0.59858147010E+03  0.47000000000E+01 0. -1.
        -13    1    4    4    0    0 -0.32803220603E+02 -0.38689345079E+02 -0.99526805338E+02  0.11170721412E+03  0.00000000000E+00 0.  1.
         14    1    4    4    0    0 -0.26920827879E+02  0.12173837631E+02 -0.28172431478E+03  0.28326934680E+03  0.00000000000E+00 0. -1.
         -5    1    5    5    0  502  0.69679677595E+01 -0.18079112874E+02  0.22999899957E+03  0.23086150979E+03  0.47000000000E+01 0.  1.
         11    1    6    6    0    0  0.28947543768E+02  0.17914983860E+02  0.77024923399E+02  0.84212503594E+02  0.00000000000E+00 0. -1.
        -12    1    6    6    0    0  0.17342399175E+03 -0.65622528706E+02  0.25304461286E+03  0.31370969588E+03  0.00000000000E+00 0.  1.
</event>
<event>
12    1  0.8462562E-002  0.1909233E+03  0.7818608E-02  0.1157712E+00
         21   -1    0    0  501  502  0.00000000000E+00  0.00000000000E+00  0.78401078101E+03  0.78401078101E+03  0.00000000000E+00 0. -1.
         21   -1    0    0  502  503 -0.00000000000E+00 -0.00000000000E+00 -0.50318325094E+02  0.50318325094E+02  0.00000000000E+00 0. -1.
         -6    2    1    2    0  503  0.94390494585E+01  0.80873400281E+02  0.25019928434E+03  0.31450477580E+03  0.17229036418E+03 0.  0.
        -24    2    3    3    0    0  0.46254955439E+02  0.24487202994E+02  0.22248620572E+03  0.24153273386E+03  0.78094851171E+02 0.  0.
          6    2    1    2  501    0 -0.94390494585E+01 -0.80873400281E+02  0.48349317157E+03  0.51982433030E+03  0.17269072032E+03 0.  0.
         24    2    5    5    0    0  0.37727042104E+02 -0.49040177760E+02  0.42966508358E+03  0.44135428948E+03  0.79707314923E+02 0.  0.
          5    1    5    5  501    0 -0.47166091563E+02 -0.31833222522E+02  0.53828087991E+02  0.78470040819E+02  0.47000000000E+01 0. -1.
        -11    1    6    6    0    0  0.56567087708E+01 -0.27338323762E+00 -0.18129633404E+01  0.59464214941E+01  0.00000000000E+00 0.  1.
         12    1    6    6    0    0  0.32070333334E+02 -0.48766794522E+02  0.43147804692E+03  0.43540786799E+03  0.00000000000E+00 0. -1.
         -5    1    3    3    0  503 -0.36815905981E+02  0.56386197288E+02  0.27713078619E+02  0.72972041936E+02  0.47000000000E+01 0.  1.
         11    1    4    4    0    0  0.58140909299E+02  0.30529073298E+02  0.10890713921E+03  0.12717371828E+03  0.00000000000E+00 0. -1.
        -12    1    4    4    0    0 -0.11885953860E+02 -0.60418703037E+01  0.11357906651E+03  0.11435901558E+03  0.00000000000E+00 0.  1.
</event>
<event>
12    1  0.8462562E-002  0.3128882E+03  0.7818608E-02  0.1079053E+00
         21   -1    0    0  501  502  0.00000000000E+00  0.00000000000E+00  0.10903945406E+03  0.10903945406E+03  0.00000000000E+00 0. -1.
         21   -1    0    0  502  503 -0.00000000000E+00 -0.00000000000E+00 -0.11734408902E+04  0.11734408902E+04  0.00000000000E+00 0. -1.
         -6    2    1    2    0  503 -0.14081888096E+03 -0.21929641504E+03 -0.84455393994E+03  0.90064998794E+03  0.17314204700E+03 0.  0.
        -24    2    3    3    0    0 -0.79154725665E+02 -0.71097399702E+02 -0.54206210301E+03  0.55817543765E+03  0.80051138854E+02 0.  0.
          6    2    1    2  501    0  0.14081888096E+03  0.21929641504E+03 -0.21984749620E+03  0.38183035630E+03  0.17187386225E+03 0.  0.
         24    2    5    5    0    0  0.15716576651E+03  0.12036300745E+03 -0.15338417575E+03  0.26143723869E+03  0.75062591724E+02 0.  0.
          5    1    5    5  501    0 -0.16346885548E+02  0.98933407587E+02 -0.66463320448E+02  0.12039311761E+03  0.47000000000E+01 0. -1.
        -11    1    6    6    0    0  0.12865614771E+03  0.81314784841E+02 -0.14883328824E+03  0.21287518941E+03  0.00000000000E+00 0.  1.
         12    1    6    6    0    0  0.28509618797E+02  0.39048222611E+02 -0.45508875135E+01  0.48562049279E+02  0.00000000000E+00 0. -1.
         -5    1    3    3    0  503 -0.61664155297E+02 -0.14819901534E+03 -0.30249183692E+03  0.34247455030E+03  0.47000000000E+01 0.  1.
         11    1    4    4    0    0 -0.77344999345E+02 -0.86583221998E+02 -0.44635871528E+03  0.46121037061E+03  0.00000000000E+00 0. -1.
        -12    1    4    4    0    0 -0.18097263199E+01  0.15485822295E+02 -0.95703387735E+02  0.96965067037E+02  0.00000000000E+00 0.  1.
</event>
<event>
12    1  0.8462562E-002  0.1763108E+03  0.7818608E-02  0.1171464E+00
         21   -1    0    0  503  502  0.00000000000E+00  0.00000000000E+00  0.83843093141E+03  0.83843093141E+03  0.00000000000E+00 0. -1.
         21   -1    0    0  501  503 -0.00000000000E+00 -0.00000000000E+00 -0.38450616086E+02  0.38450616086E+02  0.00000000000E+00 0. -1.
          6    2    1    2  501    0 -0.17171766346E+01 -0.37555352266E+02  0.31585078260E+03  0.36164675101E+03  0.17208516050E+03 0.  0.
         24    2    3    3    0    0  0.60704717610E+02 -0.47300488004E+02  0.16849156564E+03  0.20124634772E+03  0.78665658792E+02 0.  0.
         -6    2    1    2    0  502  0.17171766346E+01  0.37555352266E+02  0.48412953272E+03  0.51523479649E+03  0.17225602421E+03 0.  0.
        -24    2    5    5    0    0 -0.34849172140E+02 -0.48203100157E+01  0.13293021881E+03  0.15957225600E+03  0.80963952615E+02 0.  0.
          5    1    3    3  501    0 -0.62421894245E+02  0.97451357381E+01  0.14735921696E+03  0.16040040329E+03  0.47000000000E+01 0. -1.
        -13    1    4    4    0    0  0.32772024483E+02  0.19134925135E+02  0.60386468218E+02  0.71320940070E+02  0.00000000000E+00 0.  1.
         14    1    4    4    0    0  0.27932693127E+02 -0.66435413139E+02  0.10810509742E+03  0.12992540765E+03  0.00000000000E+00 0. -1.
         -5    1    5    5    0  502  0.36566348774E+02  0.42375662282E+02  0.35119931391E+03  0.35566254049E+03  0.47000000000E+01 0.  1.
         13    1    6    6    0    0 -0.28923517017E+02 -0.41570378556E+02  0.84111424896E+02  0.98180435974E+02  0.00000000000E+00 0. -1.
        -14    1    6    6    0    0 -0.59256551228E+01  0.36750068541E+02  0.48818793918E+02  0.61391820025E+02  0.00000000000E+00 0.  1.
</event>
<event>
12    1  0.8462562E-002  0.1843307E+03  0.7818608E-02  0.1163831E+00
         21   -1    0    0  501  502  0.00000000000E+00  0.00000000000E+00  0.35194328381E+02  0.35194328381E+02  0.00000000000E+00 0.  1.
         21   -1    0    0  502  503 -0.00000000000E+00 -0.00000000000E+00 -0.10137705973E+04  0.10137705973E+04  0.00000000000E+00 0.  1.
         -6    2    1    2    0  503 -0.63840443193E+02 -0.18089226561E+02 -0.60699607427E+03  0.63417622538E+03  0.17126712573E+03 0.  0.
        -24    2    3    3    0    0 -0.31063872457E+02 -0.35934003431E+02 -0.58020149674E+03  0.58799420469E+03  0.82747756139E+02 0.  0.
          6    2    1    2  501    0  0.63840443193E+02  0.18089226561E+02 -0.37158019462E+03  0.41478870027E+03  0.17197384258E+03 0.  0.
         24    2    5    5    0    0  0.87977180167E+02 -0.67486482468E+01 -0.15505298187E+03  0.19545875257E+03  0.79857174294E+02 0.  0.
          5    1    5    5  501    0 -0.24136736974E+02  0.24837874808E+02 -0.21652721275E+03  0.21932994770E+03  0.47000000000E+01 0. -1.
        -13    1    6    6    0    0  0.53417071593E+02  0.33374074998E+02 -0.10585589734E+03  0.12317744689E+03  0.00000000000E+00 0.  1.
         14    1    6    6    0    0  0.34560108574E+02 -0.40122723245E+02 -0.49197084527E+02  0.72281305683E+02  0.00000000000E+00 0. -1.
         -5    1    3    3    0  503 -0.32776570736E+02  0.17844776869E+02 -0.26794577526E+02  0.46182020696E+02  0.47000000000E+01 0.  1.
         11    1    4    4    0    0  0.27836936082E+02 -0.10912719572E+02 -0.13930900941E+03  0.14248151656E+03  0.00000000000E+00 0. -1.
        -12    1    4    4    0    0 -0.58900808539E+02 -0.25021283859E+02 -0.44089248733E+03  0.44551268812E+03  0.00000000000E+00 0.  1.
</event>
<event>
12    1  0.8462562E-002  0.3308774E+03  0.7818608E-02  0.1071001E+00
         21   -1    0    0  501  502  0.00000000000E+00  0.00000000000E+00  0.50748813762E+03  0.50748813762E+03  0.00000000000E+00 0. -1.
         21   -1    0    0  502  503 -0.00000000000E+00 -0.00000000000E+00 -0.23709753941E+03  0.23709753941E+03  0.00000000000E+00 0.  1.
         -6    2    1    2    0  503 -0.15962836458E+03  0.23120925186E+03  0.25034066950E+03  0.41310131803E+03  0.17042099409E+03 0.  0.
        -24    2    3    3    0    0 -0.81057835514E+02  0.20684477970E+03  0.22812151831E+03  0.32776236900E+03  0.77676301608E+02 0.  0.
          6    2    1    2  501    0  0.15962836458E+03 -0.23120925186E+03  0.20049928717E+02  0.33148435900E+03  0.17475968556E+03 0.  0.
         24    2    5    5    0    0  0.11644222269E+03 -0.16590227279E+03  0.80936699074E+02  0.23219018409E+03  0.79241258122E+02 0.  0.
          5    1    5    5  501    0  0.43186141886E+02 -0.65306979072E+02 -0.60886770357E+02  0.99294174910E+02  0.47000000000E+01 0. -1.
        -11    1    6    6    0    0  0.10132707364E+03 -0.99522022728E+02  0.25288939023E+02  0.14426135760E+03  0.00000000000E+00 0.  1.
         12    1    6    6    0    0  0.15115149054E+02 -0.66380250061E+02  0.55647760051E+02  0.87928826489E+02  0.00000000000E+00 0. -1.
         -5    1    3    3    0  503 -0.78570529066E+02  0.24364472164E+02  0.22219151189E+02  0.85338949027E+02  0.47000000000E+01 0.  1.
         11    1    4    4    0    0 -0.18934548305E+02  0.14771450799E+03  0.15639622045E+03  0.21595803009E+03  0.00000000000E+00 0. -1.
        -12    1    4    4    0    0 -0.62123287209E+02  0.59130271703E+02  0.71725297860E+02  0.11180433891E+03  0.00000000000E+00 0.  1.
</event>
<event>
12    1  0.8462562E-002  0.1759081E+03  0.7818608E-02  0.1172785E+00
         21   -1    0    0  501  502  0.00000000000E+00  0.00000000000E+00  0.55523201428E+03  0.55523201428E+03  0.00000000000E+00 0.  1.
         21   -1    0    0  502  503 -0.00000000000E+00 -0.00000000000E+00 -0.13948836889E+03  0.13948836889E+03  0.00000000000E+00 0.  1.
         -6    2    1    2    0  503  0.35069167420E+02 -0.98258027201E+01 -0.64103174624E+02  0.18364639619E+03  0.16819747005E+03 0.  0.
        -24    2    3    3    0    0  0.18980315972E+02  0.58325032752E+02 -0.36194921435E+02  0.10811926124E+03  0.81348881211E+02 0.  0.
          6    2    1    2  501    0 -0.35069167420E+02  0.98258027201E+01  0.47984682001E+03  0.51107398698E+03  0.17209664901E+03 0.  0.
         24    2    5    5    0    0  0.19286677618E+02 -0.93011029791E+01  0.41839596605E+03  0.42670163450E+03  0.80997617435E+02 0.  0.
          5    1    5    5  501    0 -0.54355845038E+02  0.19126905699E+02  0.61450853959E+02  0.84372352485E+02  0.47000000000E+01 0. -1.
        -11    1    6    6    0    0  0.15984621378E+02  0.26275248888E+02  0.32893492214E+03  0.33036961093E+03  0.00000000000E+00 0.  1.
         12    1    6    6    0    0  0.33020562400E+01 -0.35576351867E+02  0.89461043908E+02  0.96332023567E+02  0.00000000000E+00 0. -1.
         -5    1    3    3    0  503  0.16088851449E+02 -0.68150835473E+02 -0.27908253188E+02  0.75527134942E+02  0.47000000000E+01 0.  1.
         13    1    4    4    0    0 -0.48282965297E+01 -0.12011127970E+02  0.13550418052E+02  0.18740156666E+02  0.00000000000E+00 0. -1.
        -14    1    4    4    0    0  0.23808612501E+02  0.70336160723E+02 -0.49745339487E+02  0.89379104578E+02  0.00000000000E+00 0.  1.
</event>
<event>
12    1  0.8462562E-002  0.2110124E+03  0.7818608E-02  0.1142066E+00
         21   -1    0    0  501  502  0.00000000000E+00  0.00000000000E+00  0.59902428724E+03  0.59902428724E+03  0.00000000000E+00 0. -1.
         21   -1    0    0  502  503 -0.00000000000E+00 -0.00000000000E+00 -0.90639204590E+02  0.90639204590E+02  0.00000000000E+00 0. -1.
         -6    2    1    2    0  503  0.78356344833E+02  0.92006833848E+02  0.94932845389E+02  0.22547711314E+03  0.16499305793E+03 0.  0.
        -24    2    3    3    0    0  0.52071046823E+02 -0.10802879598E+02  0.24823160616E+02  0.98204916769E+02  0.78739572324E+02 0.  0.
          6    2    1    2  501    0 -0.78356344833E+02 -0.92006833848E+02  0.41345223726E+03  0.46418637869E+03  0.17297765004E+03 0.  0.
         24    2    5    5    0    0 -0.11160210187E+03 -0.46460919209E+02  0.26210767200E+03  0.30260983914E+03  0.90877042556E+02 0.  0.
          5    1    5    5  501    0  0.33245757035E+02 -0.45545914639E+02  0.15134456526E+03  0.16157653956E+03  0.47000000000E+01 0. -1.
        -13    1    6    6    0    0 -0.16639798725E+02  0.19386912782E+02  0.14530803834E+02  0.29391827927E+02  0.00000000000E+00 0.  1.
         14    1    6    6    0    0 -0.94962303143E+02 -0.65847831992E+02  0.24757686817E+03  0.27321801121E+03  0.00000000000E+00 0. -1.
         -5    1    3    3    0  503  0.26285298010E+02  0.10280971345E+03  0.70109684773E+02  0.12727219637E+03  0.47000000000E+01 0.  1.
         11    1    4    4    0    0  0.50045450035E+02 -0.19261562854E+02 -0.16398566325E+02  0.56075554837E+02  0.00000000000E+00 0. -1.
        -12    1    4    4    0    0  0.20255967882E+01  0.84586832556E+01  0.41221726941E+02  0.42129361932E+02  0.00000000000E+00 0.  1.
</event>
<event>
12    1  0.8462562E-002  0.1744787E+03  0.7818608E-02  0.1173397E+00
         21   -1    0    0  503  502  0.00000000000E+00  0.00000000000E+00  0.15098167895E+03  0.15098167895E+03  0.00000000000E+00 0. -1.
         21   -1    0    0  501  503 -0.00000000000E+00 -0.00000000000E+00 -0.58465824158E+03  0.58465824158E+03  0.00000000000E+00 0. -1.
          6    2    1    2  501    0 -0.16734686998E+02 -0.20194470258E+02 -0.51491987046E+03  0.54367754608E+03  0.17249618759E+03 0.  0.
         24    2    3    3    0    0  0.60631726822E+02 -0.84480638738E+01 -0.30795788739E+03  0.32236579201E+03  0.73034699788E+02 0.  0.
         -6    2    1    2    0  502  0.16734686998E+02  0.20194470258E+02  0.81243307838E+02  0.19196237445E+03  0.17193374234E+03 0.  0.
        -24    2    5    5    0    0 -0.37832625467E+02  0.59798214986E+02  0.42294910038E+02  0.11395522171E+03  0.78675276140E+02 0.  0.
          5    1    3    3  501    0 -0.77366413820E+02 -0.11746406384E+02 -0.20696198308E+03  0.22131175407E+03  0.47000000000E+01 0. -1.
        -11    1    4    4    0    0  0.96187318412E+01  0.14895617074E+02 -0.12662104952E+02  0.21788260878E+02  0.00000000000E+00 0.  1.
         12    1    4    4    0    0  0.51012994980E+02 -0.23343680948E+02 -0.29529578243E+03  0.30057753113E+03  0.00000000000E+00 0. -1.
         -5    1    5    5    0  502  0.54567312465E+02 -0.39603744728E+02  0.38948397800E+02  0.78007152732E+02  0.47000000000E+01 0.  1.
         13    1    6    6    0    0 -0.36933824715E+02 -0.39293557193E+01  0.32733944371E+02  0.49508164565E+02  0.00000000000E+00 0. -1.
        -14    1    6    6    0    0 -0.89880075192E+00  0.63727570705E+02  0.95609656664E+01  0.64447057150E+02  0.00000000000E+00 0.  1.
</event>
<event>
12    1  0.8462562E-002  0.1737561E+03  0.7818608E-02  0.1174223E+00
         21   -1    0    0  503  502  0.00000000000E+00  0.00000000000E+00  0.59416066416E+03  0.59416066416E+03  0.00000000000E+00 0.  1.
         21   -1    0    0  501  503 -0.00000000000E+00 -0.00000000000E+00 -0.52997155933E+02  0.52997155933E+02  0.00000000000E+00 0.  1.
          6    2    1    2  501    0  0.25963586983E+01 -0.19004114239E+02  0.20162525296E+03  0.26616519051E+03  0.17269414747E+03 0.  0.
         24    2    3    3    0    0 -0.39800091506E+02 -0.19720556720E+01  0.20124470365E+03  0.22023279642E+03  0.80094429185E+02 0.  0.
         -6    2    1    2    0  502 -0.25963586983E+01  0.19004114239E+02  0.33953825527E+03  0.38099262959E+03  0.17175930709E+03 0.  0.
        -24    2    5    5    0    0  0.56609090462E+02 -0.12236846421E+02  0.14495196056E+03  0.17515969024E+03  0.79470225121E+02 0.  0.
          5    1    3    3  501    0  0.42396450204E+02 -0.17032058567E+02  0.38054931847E+00  0.45932394089E+02  0.47000000000E+01 0. -1.
        -13    1    4    4    0    0 -0.13739720039E+02  0.30159715834E+02  0.15359089552E+03  0.15712590987E+03  0.00000000000E+00 0.  1.
         14    1    4    4    0    0 -0.26060371467E+02 -0.32131771506E+02  0.47653808122E+02  0.63106886547E+02  0.00000000000E+00 0. -1.
         -5    1    5    5    0  502 -0.59205449160E+02  0.31240960660E+02  0.19458629471E+03  0.20583293935E+03  0.47000000000E+01 0.  1.
         11    1    6    6    0    0 -0.20195955578E+02 -0.52344203505E+01  0.37199624891E+02  0.42650766349E+02  0.00000000000E+00 0. -1.
        -12    1    6    6    0    0  0.76805046040E+02 -0.70024260704E+01  0.10775233567E+03  0.13250892389E+03  0.00000000000E+00 0.  1.
</event>
<event>
12    1  0.8462562E-002  0.2064932E+03  0.7818608E-02  0.1144601E+00
         21   -1    0    0  503  502  0.00000000000E+00  0.00000000000E+00  0.10550944250E+03  0.10550944250E+03  0.00000000000E+00 0. -1.
         21   -1    0    0  501  503 -0.00000000000E+00 -0.00000000000E+00 -0.51882219744E+03  0.51882219744E+03  0.00000000000E+00 0.  1.
          6    2    1    2  501    0 -0.27536553798E+02 -0.10998789463E+03 -0.35438676798E+03  0.40959525695E+03  0.17123870601E+03 0.  0.
         24    2    3    3    0    0  0.36697840570E+02 -0.26146144060E+02 -0.22332966867E+03  0.24121013339E+03  0.79220169070E+02 0.  0.
         -6    2    1    2    0  502  0.27536553798E+02  0.10998789463E+03 -0.58925986951E+02  0.21473638299E+03  0.17257996257E+03 0.  0.
        -24    2    5    5    0    0 -0.13606333233E+02  0.10923783537E+03 -0.82758173347E+02  0.16695183684E+03  0.94371412984E+02 0.  0.
          5    1    3    3  501    0 -0.64234394368E+02 -0.83841750566E+02 -0.13105709931E+03  0.16838512357E+03  0.47000000000E+01 0. -1.
        -11    1    4    4    0    0  0.32981518171E+01 -0.20259596728E+02 -0.19754063347E+03  0.19860420674E+03  0.00000000000E+00 0.  1.
         12    1    4    4    0    0  0.33399688753E+02 -0.58865473312E+01 -0.25789035200E+02  0.42605926640E+02  0.00000000000E+00 0. -1.
         -5    1    5    5    0  502  0.41142887031E+02  0.75005925442E+00  0.23832186395E+02  0.47784546147E+02  0.47000000000E+01 0.  1.
         11    1    6    6    0    0 -0.43809521389E+02  0.42129206094E+02 -0.67475059708E+01  0.61152865896E+02  0.00000000000E+00 0. -1.
        -12    1    6    6    0    0  0.30203188156E+02  0.67108629277E+02 -0.76010667376E+02  0.10579897095E+03  0.00000000000E+00 0.  1.
</event>
<event>
12    1  0.8462562E-002  0.1799558E+03  0.7818608E-02  0.1167879E+00
         21   -1    0    0  503  502  0.00000000000E+00  0.00000000000E+00  0.12941360817E+04  0.12941360817E+04  0.00000000000E+00 0.  1.
         21   -1    0    0  501  503 -0.00000000000E+00 -0.00000000000E+00 -0.35737236067E+02  0.35737236067E+02  0.00000000000E+00 0.  1.
          6    2    1    2  501    0  0.46896711498E+02 -0.23874848042E+02  0.26463522278E+03  0.31994745829E+03  0.17194552920E+03 0.  0.
         24    2    3    3    0    0  0.55656781406E+02 -0.62684439301E+02  0.11320343799E+03  0.16330583342E+03  0.82624213205E+02 0.  0.
         -6    2    1    2    0  502 -0.46896711498E+02  0.23874848042E+02  0.99376362282E+03  0.10099258594E+04  0.17208949305E+03 0.  0.
        -24    2    5    5    0    0  0.57793087878E+01  0.71097406712E+02  0.50201365380E+03  0.51309102251E+03  0.78463030326E+02 0.  0.
          5    1    3    3  501    0 -0.87600699073E+01  0.38809591260E+02  0.15143178479E+03  0.15664162487E+03  0.47000000000E+01 0. -1.
        -11    1    4    4    0    0  0.64572275725E+02 -0.15082077488E+02  0.82974567587E+02  0.10621594381E+03  0.00000000000E+00 0.  1.
         12    1    4    4    0    0 -0.89154943195E+01 -0.47602361813E+02  0.30228870407E+02  0.57089889606E+02  0.00000000000E+00 0. -1.
         -5    1    5    5    0  502 -0.52676020286E+02 -0.47222558670E+02  0.49174996902E+03  0.49683483693E+03  0.47000000000E+01 0.  1.
         11    1    6    6    0    0  0.22645042070E+02  0.30227922145E+02  0.76798615855E+02  0.85583600092E+02  0.00000000000E+00 0. -1.
        -12    1    6    6    0    0 -0.16865733282E+02  0.40869484567E+02  0.42521503794E+03  0.42750742242E+03  0.00000000000E+00 0.  1.
</event>
<event>
12    1  0.8462562E-002  0.2676203E+03  0.7818608E-02  0.1102654E+00
         21   -1    0    0  503  502  0.00000000000E+00  0.00000000000E+00  0.16575428115E+04  0.16575428115E+04  0.00000000000E+00 0.  1.
         21   -1    0    0  501  503 -0.00000000000E+00 -0.00000000000E+00 -0.54912515301E+02  0.54912515301E+02  0.00000000000E+00 0.  1.
          6    2    1    2  501    0 -0.17124098018E+03  0.11384273938E+03  0.40597377792E+03  0.48624615067E+03  0.17128037857E+03 0.  0.
         24    2    3    3    0    0 -0.17521037930E+03  0.10330690514E+03  0.25031764115E+03  0.33011260896E+03  0.70316566059E+02 0.  0.
         -6    2    1    2    0  502  0.17124098018E+03 -0.11384273938E+03  0.11966565183E+04  0.12262091761E+04  0.17122639481E+03 0.  0.
        -24    2    5    5    0    0  0.12218817219E+03 -0.52880471595E+02  0.46321460820E+03  0.48859023553E+03  0.80164526498E+02 0.  0.
          5    1    3    3  501    0  0.39693991199E+01  0.10535834237E+02  0.15565613677E+03  0.15613354171E+03  0.47000000000E+01 0. -1.
        -13    1    4    4    0    0 -0.13995148464E+03  0.92651074473E+02  0.23808814042E+03  0.29130156584E+03  0.00000000000E+00 0.  1.
         14    1    4    4    0    0 -0.35258894666E+02  0.10655830667E+02  0.12229500729E+02  0.38811043124E+02  0.00000000000E+00 0. -1.
         -5    1    5    5    0  502  0.49052807994E+02 -0.60962267782E+02  0.73344191010E+03  0.73761894062E+03  0.47000000000E+01 0.  1.
         11    1    6    6    0    0  0.59722122327E+02  0.61740469332E+01  0.27785429275E+03  0.28426723123E+03  0.00000000000E+00 0. -1.
        -12    1    6    6    0    0  0.62466049861E+02 -0.59054518528E+02  0.18536031545E+03  0.20432300430E+03  0.00000000000E+00 0.  1.
</event>
<event>
12    1  0.8462562E-002  0.1910048E+03  0.7818608E-02  0.1157584E+00
         21   -1    0    0  501  502  0.00000000000E+00  0.00000000000E+00  0.37277504513E+03  0.37277504513E+03  0.00000000000E+00 0. -1.
         21   -1    0    0  502  503 -0.00000000000E+00 -0.00000000000E+00 -0.98490103908E+02  0.98490103908E+02  0.00000000000E+00 0.  1.
         -6    2    1    2    0  503 -0.55912569213E+02  0.61772048525E+02  0.11751990525E+03  0.22416573183E+03  0.17174791359E+03 0.  0.
        -24    2    3    3    0    0  0.19001151900E+02 -0.12961388401E+02  0.34564390083E+02  0.89626296338E+02  0.79430060875E+02 0.  0.
          6    2    1    2  501    0  0.55912569213E+02 -0.61772048525E+02  0.15676503597E+03  0.24709941721E+03  0.17187450104E+03 0.  0.
         24    2    5    5    0    0  0.10402037803E+02 -0.98664739534E+02  0.12910612720E+03  0.18214262885E+03  0.81637074591E+02 0.  0.
          5    1    5    5  501    0  0.45510531410E+02  0.36892691009E+02  0.27658908776E+02  0.64956788358E+02  0.47000000000E+01 0. -1.
        -13    1    6    6    0    0  0.40249611642E+02 -0.87365758859E+02  0.10277795584E+03  0.14076972425E+03  0.00000000000E+00 0.  1.
         14    1    6    6    0    0 -0.29847573839E+02 -0.11298980675E+02  0.26328171358E+02  0.41372904605E+02  0.00000000000E+00 0. -1.
         -5    1    3    3    0  503 -0.74913721112E+02  0.74733436926E+02  0.82955515167E+02  0.13453943549E+03  0.47000000000E+01 0.  1.
         11    1    4    4    0    0  0.37054348849E+02 -0.62486238883E+01 -0.11827536145E+02  0.39394932166E+02  0.00000000000E+00 0. -1.
        -12    1    4    4    0    0 -0.18053196949E+02 -0.67127645124E+01  0.46391926228E+02  0.50231364172E+02  0.00000000000E+00 0.  1.
</event>
<event>
12    1  0.8462562E-002  0.2435981E+03  0.7818608E-02  0.1117661E+00
         21   -1    0    0  503  502  0.00000000000E+00  0.00000000000E+00  0.18130642988E+03  0.18130642988E+03  0.00000000000E+00 0.  1.
         21   -1    0    0  501  503 -0.00000000000E+00 -0.00000000000E+00 -0.33904347409E+03  0.33904347409E+03  0.00000000000E+00 0.  1.
          6    2    1    2  501    0 -0.12789428183E+03  0.11203048885E+03 -0.26276359342E+02  0.24354321752E+03  0.17238060791E+03 0.  0.
         24    2    3    3    0    0 -0.97609535246E+02  0.37671065982E+02 -0.79051158877E+02  0.14734675651E+03  0.67195612596E+02 0.  0.
         -6    2    1    2    0  502  0.12789428183E+03 -0.11203048885E+03 -0.13146068487E+03  0.27680668644E+03  0.17444842285E+03 0.  0.
        -24    2    5    5    0    0  0.53731036259E+02 -0.11078334176E+03 -0.13971946480E+03  0.20202674384E+03  0.78315409151E+02 0.  0.
          5    1    3    3  501    0 -0.30284746588E+02  0.74359422867E+02  0.52774799535E+02  0.96196461011E+02  0.47000000000E+01 0. -1.
        -11    1    4    4    0    0 -0.42781311406E+02  0.23083518360E+02  0.17182835447E+01  0.48641976973E+02  0.00000000000E+00 0.  1.
         12    1    4    4    0    0 -0.54828223840E+02  0.14587547622E+02 -0.80769442421E+02  0.98704779540E+02  0.00000000000E+00 0. -1.
         -5    1    5    5    0  502  0.74163245575E+02 -0.12471470863E+01  0.82587799329E+01  0.74779942606E+02  0.47000000000E+01 0.  1.
         13    1    6    6    0    0  0.29184309192E+02 -0.79003531067E+02 -0.13820127975E+03  0.16184213156E+03  0.00000000000E+00 0. -1.
        -14    1    6    6    0    0  0.24546727067E+02 -0.31779810696E+02 -0.15181850505E+01  0.40184612271E+02  0.00000000000E+00 0.  1.
</event>
<event>
12    1  0.8462562E-002  0.1978420E+03  0.7818608E-02  0.1153039E+00
         21   -1    0    0  501  502  0.00000000000E+00  0.00000000000E+00  0.32531440296E+03  0.32531440296E+03  0.00000000000E+00 0. -1.
         21   -1    0    0  502  503 -0.00000000000E+00 -0.00000000000E+00 -0.11864439354E+03  0.11864439354E+03  0.00000000000E+00 0.  1.
         -6    2    1    2    0  503  0.59380842317E+02  0.55363862703E+02  0.73635849087E+02  0.21110114258E+03  0.18041677416E+03 0.  0.
        -24    2    3    3    0    0  0.96210126992E+02 -0.17848594431E+02  0.36803283711E+02  0.12112788010E+03  0.61176145562E+02 0.  0.
          6    2    1    2  501    0 -0.59380842317E+02 -0.55363862703E+02  0.13303416033E+03  0.23285765392E+03  0.17301259332E+03 0.  0.
         24    2    5    5    0    0 -0.54311810107E+02 -0.38880198816E+02  0.44394169566E+01  0.10302659336E+03  0.78315566396E+02 0.  0.
          5    1    5    5  501    0 -0.50690322102E+01 -0.16483663887E+02  0.12859474337E+03  0.12983106056E+03  0.47000000000E+01 0. -1.
        -13    1    6    6    0    0 -0.39297342476E+02 -0.63152073817E+02  0.25687661866E+01  0.74424889068E+02  0.00000000000E+00 0.  1.
         14    1    6    6    0    0 -0.15014467631E+02  0.24271875000E+02  0.18706507700E+01  0.28601704295E+02  0.00000000000E+00 0. -1.
         -5    1    3    3    0  503 -0.36829284675E+02  0.73212457134E+02  0.36832565377E+02  0.89973262481E+02  0.47000000000E+01 0.  1.
         13    1    4    4    0    0  0.18652704716E+02 -0.12876229880E+02  0.37024136726E+02  0.43410913253E+02  0.00000000000E+00 0. -1.
        -14    1    4    4    0    0  0.77557422276E+02 -0.49723645510E+01 -0.22085301520E+00  0.77716966844E+02  0.00000000000E+00 0.  1.
</event>
<event>
12    1  0.8462562E-002  0.2016856E+03  0.7818608E-02  0.1149082E+00
         21   -1    0    0  503  502  0.00000000000E+00  0.00000000000E+00  0.48672532572E+03  0.48672532572E+03  0.00000000000E+00 0.  1.
         21   -1    0    0  501  503 -0.00000000000E+00 -0.00000000000E+00 -0.82707703822E+02  0.82707703822E+02  0.00000000000E+00 0.  1.
          6    2    1    2  501    0  0.58129869516E+02 -0.76972797528E+02  0.22482273143E+03  0.29964075380E+03  0.17301857553E+03 0.  0.
         24    2    3    3    0    0  0.51533555308E+02 -0.11060984195E+03  0.22137483080E+03  0.26487093733E+03  0.79117338613E+02 0.  0.
         -6    2    1    2    0  502 -0.58129869516E+02  0.76972797528E+02  0.17919489047E+03  0.26979227575E+03  0.17712473005E+03 0.  0.
        -24    2    5    5    0    0 -0.39170968607E+02 -0.21400607557E+01  0.19429379572E+02  0.90445146577E+02  0.79144672008E+02 0.  0.
          5    1    3    3  501    0  0.65963142084E+01  0.33637044422E+02  0.34479006303E+01  0.34769816469E+02  0.47000000000E+01 0. -1.
        -13    1    4    4    0    0  0.35045062712E+02 -0.37501178943E+02  0.15990774634E+03  0.16794338981E+03  0.00000000000E+00 0.  1.
         14    1    4    4    0    0  0.16488492596E+02 -0.73108663006E+02  0.61467084461E+02  0.96927547513E+02  0.00000000000E+00 0. -1.
         -5    1    5    5    0  502 -0.18958900909E+02  0.79112858284E+02  0.15976551090E+03  0.17934712917E+03  0.47000000000E+01 0.  1.
         13    1    6    6    0    0 -0.54486793951E+02  0.82708834033E+01  0.35807895625E+02  0.65722322056E+02  0.00000000000E+00 0. -1.
        -14    1    6    6    0    0  0.15315825344E+02 -0.10410944159E+02 -0.16378516053E+02  0.24722824522E+02  0.00000000000E+00 0.  1.
</event>
<event>
12    1  0.8462562E-002  0.2065729E+03  0.7818608E-02  0.1144478E+00
         21   -1    0    0  501  502  0.00000000000E+00  0.00000000000E+00  0.16987363047E+03  0.16987363047E+03  0.00000000000E+00 0. -1.
         21   -1    0    0  502  503 -0.00000000000E+00 -0.00000000000E+00 -0.25627367491E+03  0.25627367491E+03  0.00000000000E+00 0. -1.
         -6    2    1    2    0  503  0.80338864372E+02 -0.80685331031E+02 -0.76114666154E+02  0.22014948992E+03  0.17235979733E+03 0.  0.
        -24    2    3    3    0    0  0.10650656742E+03 -0.83323105138E+02 -0.99028311616E+02  0.18495244909E+03  0.78194713185E+02 0.  0.
          6    2    1    2  501    0 -0.80338864372E+02  0.80685331031E+02 -0.10285378289E+02  0.20599781546E+03  0.17136176701E+03 0.  0.
         24    2    5    5    0    0 -0.29548477957E+02  0.23561400182E+02 -0.68221276237E+02  0.10996935562E+03  0.77529765350E+02 0.  0.
          5    1    5    5  501    0 -0.50790386415E+02  0.57123930849E+02  0.57935897948E+02  0.96028459838E+02  0.47000000000E+01 0. -1.
        -11    1    6    6    0    0 -0.28345957338E+02 -0.21153618233E+02 -0.10401769835E+02  0.36866864221E+02  0.00000000000E+00 0.  1.
         12    1    6    6    0    0 -0.12025206192E+01  0.44715018415E+02 -0.57819506402E+02  0.73102491396E+02  0.00000000000E+00 0. -1.
         -5    1    3    3    0  503 -0.26167703044E+02  0.26377741071E+01  0.22913645462E+02  0.35197040830E+02  0.47000000000E+01 0.  1.
         11    1    4    4    0    0  0.62132087906E+02 -0.91709572763E+02 -0.65318484323E+02  0.12859839221E+03  0.00000000000E+00 0. -1.
        -12    1    4    4    0    0  0.44374479510E+02  0.83864676250E+01 -0.33709827294E+02  0.56354056883E+02  0.00000000000E+00 0.  1.
</event>
<event>
12    1  0.8462562E-002  0.2559897E+03  0.7818608E-02  0.1110216E+00
         21   -1    0    0  501  502  0.00000000000E+00  0.00000000000E+00  0.16160978283E+03  0.16160978283E+03  0.00000000000E+00 0. -1.
         21   -1    0    0  502  503 -0.00000000000E+00 -0.00000000000E+00 -0.46145316467E+03  0.46145316467E+03  0.00000000000E+00 0. -1.
         -6    2    1    2    0  503 -0.15156203846E+03  0.11401802283E+03 -0.34234472694E+02  0.25417430145E+03  0.16571486162E+03 0.  0.
        -24    2    3    3    0    0 -0.55642907679E+02  0.50850580117E+02 -0.73045149974E+02  0.13285256333E+03  0.81438903325E+02 0.  0.
          6    2    1    2  501    0  0.15156203846E+03 -0.11401802283E+03 -0.26560890915E+03  0.36888864605E+03  0.17192899561E+03 0.  0.
         24    2    5    5    0    0  0.14321220161E+03 -0.14798203140E+03 -0.22582817585E+03  0.31571092143E+03  0.79161888556E+02 0.  0.
          5    1    5    5  501    0  0.83498368520E+01  0.33964008563E+02 -0.39780733297E+02  0.53177724611E+02  0.47000000000E+01 0. -1.
        -13    1    6    6    0    0  0.68923918633E+02 -0.73535583116E+02 -0.54237457538E+02  0.11445387868E+03  0.00000000000E+00 0.  1.
         14    1    6    6    0    0  0.74288282976E+02 -0.74446448281E+02 -0.17159071831E+03  0.20125704276E+03  0.00000000000E+00 0. -1.
         -5    1    3    3    0  503 -0.95919130782E+02  0.63167442717E+02  0.38810677280E+02  0.12132173812E+03  0.47000000000E+01 0.  1.
         13    1    4    4    0    0 -0.63397616549E+02  0.65042439697E+02 -0.73240855021E+02  0.11667904520E+03  0.00000000000E+00 0. -1.
        -14    1    4    4    0    0  0.77547088703E+01 -0.14191859580E+02  0.19570504693E+00  0.16173518122E+02  0.00000000000E+00 0.  1.
</event>
<event>
12    1  0.8462562E-002  0.1909366E+03  0.7818608E-02  0.1158177E+00
         21   -1    0    0  503  502  0.00000000000E+00  0.00000000000E+00  0.51741159386E+02  0.51741159386E+02  0.00000000000E+00 0. -1.
         21   -1    0    0  501  503 -0.00000000000E+00 -0.00000000000E+00 -0.78448406417E+03  0.78448406417E+03  0.00000000000E+00 0. -1.
          6    2    1    2  501    0 -0.74175174790E+02  0.21210027801E+02 -0.50506478102E+03  0.53908198182E+03  0.17195094726E+03 0.  0.
         24    2    3    3    0    0 -0.73418895349E+02  0.10071986391E+02 -0.51307598185E+03  0.52455967953E+03  0.80150577879E+02 0.  0.
         -6    2    1    2    0  502  0.74175174790E+02 -0.21210027801E+02 -0.22767812377E+03  0.29714324174E+03  0.17465668104E+03 0.  0.
        -24    2    5    5    0    0  0.62886187584E+02 -0.77488857916E+02 -0.11795361251E+03  0.17322267717E+03  0.78318870604E+02 0.  0.
          5    1    3    3  501    0 -0.75627944100E+00  0.11138041410E+02  0.80112008309E+01  0.14522302290E+02  0.47000000000E+01 0. -1.
        -13    1    4    4    0    0  0.17628778358E+02  0.13618167025E+01 -0.86401356852E+02  0.88191965830E+02  0.00000000000E+00 0.  1.
         14    1    4    4    0    0 -0.91047673707E+02  0.87101696886E+01 -0.42667462500E+03  0.43636771370E+03  0.00000000000E+00 0. -1.
         -5    1    5    5    0  502  0.11288987207E+02  0.56278830114E+02 -0.10972451126E+03  0.12392056456E+03  0.47000000000E+01 0.  1.
         13    1    6    6    0    0  0.85292225514E+00 -0.61802188067E+02 -0.46778496799E+02  0.77514293450E+02  0.00000000000E+00 0. -1.
        -14    1    6    6    0    0  0.62033265328E+02 -0.15686669848E+02 -0.71175115710E+02  0.95708383721E+02  0.00000000000E+00 0.  1.
</event>
<event>
12    1  0.8462562E-002  0.1743654E+03  0.7818608E-02  0.1173879E+00
         21   -1    0    0  503  502  0.00000000000E+00  0.00000000000E+00  0.17712105033E+02  0.17712105033E+02  0.00000000000E+00 0.  1.
         21   -1    0    0  501  503 -0.00000000000E+00 -0.00000000000E+00 -0.18013528134E+04  0.18013528134E+04  0.00000000000E+00 0.  1.
          6    2    1    2  501    0 -0.31650487765E+02  0.48903130996E+01 -0.11157440619E+04  0.11292865516E+04  0.17139905296E+03 0.  0.
         24    2    3    3    0    0 -0.46612912676E+02  0.52981046816E+02 -0.95153967583E+03  0.95746756766E+03  0.79602974126E+02 0.  0.
         -6    2    1    2    0  502  0.31650487765E+02 -0.48903130996E+01 -0.66789664641E+03  0.68977836680E+03  0.16935937083E+03 0.  0.
        -24    2    5    5    0    0  0.57633780707E+02 -0.30406287557E+02 -0.24134856952E+03  0.26165274463E+03  0.77245270154E+02 0.  0.
          5    1    3    3  501    0  0.14962424911E+02 -0.48090733716E+02 -0.16420438612E+03  0.17181898396E+03  0.47000000000E+01 0. -1.
        -11    1    4    4    0    0 -0.55341910954E+02  0.52501414100E+02 -0.49493169874E+03  0.50077590997E+03  0.00000000000E+00 0.  1.
         12    1    4    4    0    0  0.87289982779E+01  0.47963271568E+00 -0.45660797709E+03  0.45669165768E+03  0.00000000000E+00 0. -1.
         -5    1    5    5    0  502 -0.25983292942E+02  0.25515974458E+02 -0.42654807689E+03  0.42812562218E+03  0.47000000000E+01 0.  1.
         11    1    6    6    0    0 -0.10508330638E+02 -0.21082157389E+02 -0.23779004892E+02  0.33471233121E+02  0.00000000000E+00 0. -1.
        -12    1    6    6    0    0  0.68142111346E+02 -0.93241301689E+01 -0.21756956463E+03  0.22818151151E+03  0.00000000000E+00 0.  1.
</event>
<event>
12    1  0.8462562E-002  0.1785186E+03  0.7818608E-02  0.1169844E+00
         21   -1    0    0  503  502  0.00000000000E+00  0.00000000000E+00  0.35613835287E+03  0.35613835287E+03  0.00000000000E+00 0. -1.
         21   -1    0    0  501  503 -0.00000000000E+00 -0.00000000000E+00 -0.15143730230E+03  0.15143730230E+03  0.00000000000E+00 0. -1.
          6    2    1    2  501    0 -0.40594879670E+02 -0.30577581163E+02 -0.61147883850E+02  0.18870072685E+03  0.17113143454E+03 0.  0.
         24    2    3    3    0    0  0.13062677569E+02 -0.35154072499E+01  0.24018866689E+02  0.84360130228E+02  0.79729128815E+02 0.  0.
         -6    2    1    2    0  502  0.40594879670E+02  0.30577581163E+02  0.26584893442E+03  0.31887492832E+03  0.16859012799E+03 0.  0.
        -24    2    5    5    0    0 -0.75235865538E+01  0.67474585156E+02  0.18131022789E+03  0.21473243653E+03  0.92882703245E+02 0.  0.
          5    1    3    3  501    0 -0.53657557240E+02 -0.27062173913E+02 -0.85166750540E+02  0.10434059662E+03  0.47000000000E+01 0. -1.
        -11    1    4    4    0    0  0.18483517561E+02 -0.77387005123E+01  0.51905608479E+02  0.55639195705E+02  0.00000000000E+00 0.  1.
         12    1    4    4    0    0 -0.54208399921E+01  0.42232932625E+01 -0.27886741790E+02  0.28720934523E+02  0.00000000000E+00 0. -1.
         -5    1    5    5    0  502  0.48118466224E+02 -0.36897003994E+02  0.84538706525E+02  0.10414249179E+03  0.47000000000E+01 0.  1.
         13    1    6    6    0    0  0.41486581910E+02  0.27897122859E+02  0.60489523459E+02  0.78475272479E+02  0.00000000000E+00 0. -1.
        -14    1    6    6    0    0 -0.49010168464E+02  0.39577462297E+02  0.12082070443E+03  0.13625716405E+03  0.00000000000E+00 0.  1.
</event>
<event>
12    1  0.8462562E-002  0.3931515E+03  0.7818608E-02  0.1046246E+00
         21   -1    0    0  503  502  0.00000000000E+00  0.00000000000E+00  0.12944414640E+03  0.12944414640E+03  0.00000000000E+00 0.  1.
         21   -1    0    0  501  503 -0.00000000000E+00 -0.00000000000E+00 -0.14661030098E+04  0.14661030098E+04  0.00000000000E+00 0. -1.
          6    2    1    2  501    0  0.15148670959E+03  0.31886963867E+03 -0.10139960124E+04  0.10875458631E+04  0.17303763073E+03 0.  0.
         24    2    3    3    0    0  0.14980528653E+03  0.15981972496E+03 -0.64260457434E+03  0.68349958796E+03  0.79038467951E+02 0.  0.
         -6    2    1    2    0  502 -0.15148670959E+03 -0.31886963867E+03 -0.32266285104E+03  0.50800129308E+03  0.17125398878E+03 0.  0.
        -24    2    5    5    0    0 -0.17806807918E+03 -0.30151356565E+03 -0.28080181098E+03  0.45525435805E+03  0.76080236440E+02 0.  0.
          5    1    3    3  501    0  0.16814230618E+01  0.15904991372E+03 -0.37139143801E+03  0.40404627515E+03  0.47000000000E+01 0. -1.
        -13    1    4    4    0    0  0.52966827676E+02  0.50450517871E+02 -0.11710190947E+03  0.13807098460E+03  0.00000000000E+00 0.  1.
         14    1    4    4    0    0  0.96838458855E+02  0.10936920709E+03 -0.52550266487E+03  0.54542860335E+03  0.00000000000E+00 0. -1.
         -5    1    5    5    0  502  0.26581369588E+02 -0.17356073023E+02 -0.41861040061E+02  0.52746935028E+02  0.47000000000E+01 0.  1.
         13    1    6    6    0    0 -0.53570869997E+02 -0.16438711453E+03 -0.14376274111E+03  0.22485703740E+03  0.00000000000E+00 0. -1.
        -14    1    6    6    0    0 -0.12449720918E+03 -0.13712645112E+03 -0.13703906987E+03  0.23039732065E+03  0.00000000000E+00 0.  1.
</event>
<event>
12    1  0.8462562E-002  0.3002686E+03  0.7818608E-02  0.1085165E+00
         21   -1    0    0  501  502  0.00000000000E+00  0.00000000000E+00  0.63708973290E+03  0.63708973290E+03  0.00000000000E+00 0.  1.
         21   -1    0    0  502  503 -0.00000000000E+00 -0.00000000000E+00 -0.16491279442E+03  0.16491279442E+03  0.00000000000E+00 0. -1.
         -6    2    1    2    0  503 -0.14576031771E+03  0.19808141626E+03  0.84190987866E+02  0.31139641428E+03  0.17145636967E+03 0.  0.
        -24    2    3    3    0    0 -0.37698982910E+02  0.26659201145E+02  0.47802550914E+02  0.10546187065E+03  0.81885261005E+02 0.  0.
          6    2    1    2  501    0  0.14576031771E+03 -0.19808141626E+03  0.38798595061E+03  0.49060611304E+03  0.17227577483E+03 0.  0.
         24    2    5    5    0    0  0.18984466430E+02 -0.13020727211E+03  0.17113388712E+03  0.23036406541E+03  0.80414250220E+02 0.  0.
          5    1    5    5  501    0  0.12677585128E+03 -0.67874144157E+02  0.21685206350E+03  0.26024204763E+03  0.47000000000E+01 0. -1.
        -13    1    6    6    0    0  0.42189033514E+02 -0.31090573448E+02  0.59132721786E+02  0.79014030982E+02  0.00000000000E+00 0.  1.
         14    1    6    6    0    0 -0.23204567084E+02 -0.99116698658E+02  0.11200116533E+03  0.15135003443E+03  0.00000000000E+00 0. -1.
         -5    1    3    3    0  503 -0.10806133480E+03  0.17142221512E+03  0.36388436952E+02  0.20593454363E+03  0.47000000000E+01 0.  1.
         11    1    4    4    0    0 -0.31482768320E+02  0.41931823744E+02 -0.25310390236E+01  0.52496177976E+02  0.00000000000E+00 0. -1.
        -12    1    4    4    0    0 -0.62162145902E+01 -0.15272622599E+02  0.50333589938E+02  0.52965692678E+02  0.00000000000E+00 0.  1.
</event>
<event>
12    1  0.8462562E-002  0.2869942E+03  0.7818608E-02  0.1092489E+00
         21   -1    0    0  503  502  0.00000000000E+00  0.00000000000E+00  0.31898332057E+03  0.31898332057E+03  0.00000000000E+00 0. -1.
         21   -1    0    0  501  503 -0.00000000000E+00 -0.00000000000E+00 -0.25488545785E+03  0.25488545785E+03  0.00000000000E+00 0. -1.
          6    2    1    2  501    0 -0.21565564218E+03  0.94270905585E+02  0.20388890875E+02  0.28771750678E+03  0.16422940417E+03 0.  0.
         24    2    3    3    0    0 -0.50722141006E+02  0.21540424299E+02  0.44850537484E+02  0.10574705623E+03  0.78320774526E+02 0.  0.
         -6    2    1    2    0  502  0.21565564218E+03 -0.94270905585E+02  0.43708971850E+02  0.28615127164E+03  0.15677281779E+03 0.  0.
        -24    2    5    5    0    0  0.91760535457E+02 -0.30059288774E+01 -0.11469989269E+02  0.12260891874E+03  0.80450946693E+02 0.  0.
          5    1    3    3  501    0 -0.16493350117E+03  0.72730481285E+02 -0.24461646609E+02  0.18197045055E+03  0.47000000000E+01 0. -1.
        -13    1    4    4    0    0 -0.50780324434E+02  0.47183702316E+02  0.26483570946E+02  0.74204599884E+02  0.00000000000E+00 0.  1.
         14    1    4    4    0    0  0.58183428301E-01 -0.25643278017E+02  0.18366966538E+02  0.31542456350E+02  0.00000000000E+00 0. -1.
         -5    1    5    5    0  502  0.12389510672E+03 -0.91264976707E+02  0.55178961119E+02  0.16354235290E+03  0.47000000000E+01 0.  1.
         11    1    6    6    0    0  0.69653860245E+02 -0.31257416722E+02 -0.30246812904E+02  0.82119157558E+02  0.00000000000E+00 0. -1.
        -12    1    6    6    0    0  0.22106675212E+02  0.28251487844E+02  0.18776823635E+02  0.40489761177E+02  0.00000000000E+00 0.  1.
</event>
<event>
12    1  0.8462562E-002  0.2355589E+03  0.7818608E-02  0.1123183E+00
         21   -1    0    0  503  502  0.00000000000E+00  0.00000000000E+00  0.22773631671E+03  0.22773631671E+03  0.00000000000E+00 0.  1.
         21   -1    0    0  501  503 -0.00000000000E+00 -0.00000000000E+00 -0.32493631564E+03  0.32493631564E+03  0.00000000000E+00 0. -1.
          6    2    1    2  501    0  0.91218478894E+02  0.12959678635E+03 -0.18899602963E+03  0.30200578963E+03  0.17427524160E+03 0.  0.
         24    2    3    3    0    0  0.46125036968E+02  0.14956548862E+03 -0.10514432641E+03  0.20461294746E+03  0.79459262960E+02 0.  0.
         -6    2    1    2    0  502 -0.91218478894E+02 -0.12959678635E+03  0.91796030698E+02  0.25066684272E+03  0.17114676994E+03 0.  0.
        -24    2    5    5    0    0 -0.53812643331E+02 -0.10289980876E+03  0.12841623634E+03  0.19171724893E+03  0.82344414247E+02 0.  0.
          5    1    3    3  501    0  0.45093441926E+02 -0.19968702266E+02 -0.83851703213E+02  0.97392842174E+02  0.47000000000E+01 0. -1.
        -13    1    4    4    0    0  0.33914044939E+02  0.53084307572E+02 -0.22505569989E+01  0.63033095762E+02  0.00000000000E+00 0.  1.
         14    1    4    4    0    0  0.12210992029E+02  0.96481181048E+02 -0.10289376941E+03  0.14157985170E+03  0.00000000000E+00 0. -1.
         -5    1    5    5    0  502 -0.37405835563E+02 -0.26696977589E+02 -0.36620205638E+02  0.58949593786E+02  0.47000000000E+01 0.  1.
         11    1    6    6    0    0  0.13626553198E+01  0.58818424083E+01 -0.71479390999E+01  0.93565983676E+01  0.00000000000E+00 0. -1.
        -12    1    6    6    0    0 -0.55175298651E+02 -0.10878165117E+03  0.13556417544E+03  0.18236065057E+03  0.00000000000E+00 0.  1.
</event>
<event>
12    1  0.8462562E-002  0.1764232E+03  0.7818608E-02  0.1171367E+00
         21   -1    0    0  501  502  0.00000000000E+00  0.00000000000E+00  0.22812182674E+03  0.22812182674E+03  0.00000000000E+00 0.  1.
         21   -1    0    0  502  503 -0.00000000000E+00 -0.00000000000E+00 -0.14242120622E+03  0.14242120622E+03  0.00000000000E+00 0. -1.
         -6    2    1    2    0  503 -0.38520374161E+02  0.38637590802E+01  0.43591884446E+01  0.17647703317E+03  0.17212319092E+03 0.  0.
        -24    2    3    3    0    0 -0.13422340553E+02  0.53400262461E+02 -0.41205413216E+02  0.10449092769E+03  0.78668422086E+02 0.  0.
          6    2    1    2  501    0  0.38520374161E+02 -0.38637590802E+01  0.81341432074E+02  0.19406599979E+03  0.17189076718E+03 0.  0.
         24    2    5    5    0    0  0.52227205351E+02 -0.46420086166E+02  0.10048282951E+03  0.14520495915E+03  0.78135624130E+02 0.  0.
          5    1    5    5  501    0 -0.13706831191E+02  0.42556327086E+02 -0.19141397435E+02  0.48861040637E+02  0.47000000000E+01 0. -1.
        -11    1    6    6    0    0 -0.15519958975E+01 -0.45314476104E+02  0.69930741359E+02  0.83343380198E+02  0.00000000000E+00 0.  1.
         12    1    6    6    0    0  0.53779201249E+02 -0.11056100624E+01  0.30552088151E+02  0.61861578956E+02  0.00000000000E+00 0. -1.
         -5    1    3    3    0  503 -0.25098033607E+02 -0.49536503380E+02  0.45564601661E+02  0.71986105483E+02  0.47000000000E+01 0.  1.
         11    1    4    4    0    0  0.22532529573E+02  0.36931747508E+01 -0.36382430568E+02  0.42953878553E+02  0.00000000000E+00 0. -1.
        -12    1    4    4    0    0 -0.35954870126E+02  0.49707087710E+02 -0.48229826478E+01  0.61537049133E+02  0.00000000000E+00 0.  1.
</event>
<event>
12    1  0.8462562E-002  0.2625908E+03  0.7818608E-02  0.1106096E+00
         21   -1    0    0  503  502  0.00000000000E+00  0.00000000000E+00  0.13893408171E+03  0.13893408171E+03  0.00000000000E+00 0. -1.
         21   -1    0    0  501  503 -0.00000000000E+00 -0.00000000000E+00 -0.16228140987E+04  0.16228140987E+04  0.00000000000E+00 0.  1.
          6    2    1    2  501    0 -0.11348433545E+02  0.19365579983E+03 -0.14793393526E+04  0.15024642523E+04  0.17698178864E+03 0.  0.
         24    2    3    3    0    0  0.12612212346E+02  0.17733306605E+03 -0.84271250513E+03  0.86516026116E+03  0.82047711574E+02 0.  0.
         -6    2    1    2    0  502  0.11348433545E+02 -0.19365579983E+03 -0.45406643163E+01  0.25928392805E+03  0.17197727164E+03 0.  0.
        -24    2    5    5    0    0 -0.26395950307E+02 -0.12686540041E+03  0.55199322855E+02  0.16193634444E+03  0.79905183770E+02 0.  0.
          5    1    3    3  501    0 -0.23960645890E+02  0.16322733773E+02 -0.63662684752E+03  0.63730399118E+03  0.47000000000E+01 0. -1.
        -13    1    4    4    0    0 -0.27158702290E+02  0.12305909693E+03 -0.61180014301E+03  0.62464433995E+03  0.00000000000E+00 0.  1.
         14    1    4    4    0    0  0.39770914635E+02  0.54273969121E+02 -0.23091236211E+03  0.24051592120E+03  0.00000000000E+00 0. -1.
         -5    1    5    5    0  502  0.37744383851E+02 -0.66790399411E+02 -0.59739987172E+02  0.97347583601E+02  0.47000000000E+01 0.  1.
         11    1    6    6    0    0 -0.29015729838E+02 -0.12042439440E+03  0.19294446116E+02  0.12536436095E+03  0.00000000000E+00 0. -1.
        -12    1    6    6    0    0  0.26197795313E+01 -0.64410060145E+01  0.35904876739E+02  0.36571983497E+02  0.00000000000E+00 0.  1.
</event>
<event>
12    1  0.8462562E-002  0.4484417E+03  0.7818608E-02  0.1028243E+00
         21   -1    0    0  501  502  0.00000000000E+00  0.00000000000E+00  0.19065406803E+04  0.19065406803E+04  0.00000000000E+00 0.  1.
         21   -1    0    0  502  503 -0.00000000000E+00 -0.00000000000E+00 -0.24630557787E+03  0.24630557787E+03  0.00000000000E+00 0. -1.
         -6    2    1    2    0  503  0.29628588988E+03  0.28900375072E+03  0.15976616110E+02  0.44872617950E+03  0.17260195664E+03 0.  0.
        -24    2    3    3    0    0  0.19686282230E+03  0.10697107211E+03 -0.18195942503E+02  0.23846278228E+03  0.79596640243E+02 0.  0.
          6    2    1    2  501    0 -0.29628588988E+03 -0.28900375072E+03  0.16442584863E+04  0.17041200787E+04  0.17067740400E+03 0.  0.
         24    2    5    5    0    0 -0.23303917210E+03 -0.28966943618E+03  0.13250260719E+04  0.13786480908E+04  0.82224261501E+02 0.  0.
          5    1    5    5  501    0 -0.63246717788E+02  0.66568545983E+00  0.31923241445E+03  0.32547198787E+03  0.47000000000E+01 0. -1.
        -11    1    6    6    0    0 -0.12620527692E+03 -0.16436238269E+03  0.88178701117E+03  0.90580963665E+03  0.00000000000E+00 0.  1.
         12    1    6    6    0    0 -0.10683389517E+03 -0.12530705349E+03  0.44323906071E+03  0.47283845418E+03  0.00000000000E+00 0. -1.
         -5    1    3    3    0  503  0.99423067582E+02  0.18203267861E+03  0.34172558613E+02  0.21026339722E+03  0.47000000000E+01 0.  1.
         13    1    4    4    0    0  0.15901885683E+03  0.11828842203E+03 -0.17440690760E+02  0.19895558626E+03  0.00000000000E+00 0. -1.
        -14    1    4    4    0    0  0.37843965477E+02 -0.11317349917E+02 -0.75525174320E+00  0.39507196020E+02  0.00000000000E+00 0.  1.
</event>
<event>
12    1  0.8462562E-002  0.1812842E+03  0.7818608E-02  0.1167060E+00
         21   -1    0    0  501  502  0.00000000000E+00  0.00000000000E+00  0.91281256085E+02  0.91281256085E+02  0.00000000000E+00 0.  1.
         21   -1    0    0  502  503 -0.00000000000E+00 -0.00000000000E+00 -0.39877915712E+03  0.39877915712E+03  0.00000000000E+00 0.  1.
         -6    2    1    2    0  503 -0.35348557711E+02  0.35254497178E+02 -0.23480682700E+03  0.29664493283E+03  0.17427441023E+03 0.  0.
        -24    2    3    3    0    0 -0.40150620422E+02 -0.19603867104E+02 -0.50088308439E+02  0.10383538680E+03  0.79224775062E+02 0.  0.
          6    2    1    2  501    0  0.35348557711E+02 -0.35254497178E+02 -0.72691074033E+02  0.19341548038E+03  0.17214283518E+03 0.  0.
         24    2    5    5    0    0  0.38010561853E+02 -0.84860254421E+02 -0.75479581468E+02  0.14343865384E+03  0.78939309620E+02 0.  0.
          5    1    5    5  501    0 -0.26620041426E+01  0.49605757244E+02  0.27885074348E+01  0.49976826545E+02  0.47000000000E+01 0. -1.
        -13    1    6    6    0    0  0.25660195987E+02 -0.43033975287E+02  0.65564540393E+01  0.50530740907E+02  0.00000000000E+00 0.  1.
         14    1    6    6    0    0  0.12350365866E+02 -0.41826279134E+02 -0.82036035508E+02  0.92907912930E+02  0.00000000000E+00 0. -1.
         -5    1    3    3    0  503  0.48020627112E+01  0.54858364282E+02 -0.18471851857E+03  0.19280954603E+03  0.47000000000E+01 0.  1.
         13    1    4    4    0    0 -0.57001950693E+02 -0.13066260837E+01 -0.54147793516E+02  0.78631502575E+02  0.00000000000E+00 0. -1.
        -14    1    4    4    0    0  0.16851330271E+02 -0.18297241021E+02  0.40594850775E+01  0.25203884224E+02  0.00000000000E+00 0.  1.
</event>
<event>
12    1  0.8462562E-002  0.1788537E+03  0.7818608E-02  0.1169372E+00
         21   -1    0    0  503  502  0.00000000000E+00  0.00000000000E+00  0.66873308991E+02  0.66873308991E+02  0.00000000000E+00 0. -1.
         21   -1    0    0  501  503 -0.00000000000E+00 -0.00000000000E+00 -0.52806781053E+03  0.52806781053E+03  0.00000000000E+00 0. -1.
          6    2    1    2  501    0  0.17014203918E+02  0.38314451604E+02 -0.13596283831E+03  0.22466540178E+03  0.17387112762E+03 0.  0.
         24    2    3    3    0    0 -0.91306066699E+01  0.30462384985E+02 -0.16417061640E+03  0.18513092549E+03  0.79436411079E+02 0.  0.
         -6    2    1    2    0  502 -0.17014203918E+02 -0.38314451604E+02 -0.32523166323E+03  0.37027571774E+03  0.17196218202E+03 0.  0.
        -24    2    5    5    0    0 -0.30736578856E+02 -0.53351516851E+01 -0.32335660589E+03  0.33419880494E+03  0.78461108381E+02 0.  0.
          5    1    3    3  501    0  0.26144810588E+02  0.78520666194E+01  0.28207778091E+02  0.39534476292E+02  0.47000000000E+01 0. -1.
        -11    1    4    4    0    0  0.30388306465E+02 -0.39489443464E+01 -0.40258843587E+02  0.50594642189E+02  0.00000000000E+00 0.  1.
         12    1    4    4    0    0 -0.39518913135E+02  0.34411329331E+02 -0.12391177282E+03  0.13453628330E+03  0.00000000000E+00 0. -1.
         -5    1    5    5    0  502  0.13722374938E+02 -0.32979299919E+02 -0.18750573369E+01  0.36076912799E+02  0.47000000000E+01 0.  1.
         11    1    6    6    0    0  0.22382232825E+02  0.14561664060E+02 -0.80793339033E+02  0.85091539172E+02  0.00000000000E+00 0. -1.
        -12    1    6    6    0    0 -0.53118811681E+02 -0.19896815745E+02 -0.24256326686E+03  0.24910726577E+03  0.00000000000E+00 0.  1.
</event>
<event>
12    1  0.8462562E-002  0.1962075E+03  0.7818608E-02  0.1153146E+00
         21   -1    0    0  503  502  0.00000000000E+00  0.00000000000E+00  0.67824161752E+02  0.67824161752E+02  0.00000000000E+00 0.  1.
         21   -1    0    0  501  503 -0.00000000000E+00 -0.00000000000E+00 -0.92611966101E+03  0.92611966101E+03  0.00000000000E+00 0. -1.
          6    2    1    2  501    0  0.93067029397E+02  0.15480521950E+02 -0.73879988885E+03  0.76421231263E+03  0.17115508902E+03 0.  0.
         24    2    3    3    0    0  0.10207135663E+03 -0.36325881397E+02 -0.41908615113E+03  0.44016918985E+03  0.79859765351E+02 0.  0.
         -6    2    1    2    0  502 -0.93067029397E+02 -0.15480521950E+02 -0.11949561041E+03  0.22973151013E+03  0.17203559898E+03 0.  0.
        -24    2    5    5    0    0 -0.20869191640E+02 -0.49196501905E+02 -0.13538100984E+02  0.97072628461E+02  0.79899912758E+02 0.  0.
          5    1    3    3  501    0 -0.90043272335E+01  0.51806403346E+02 -0.31971373772E+03  0.32404312279E+03  0.47000000000E+01 0. -1.
        -11    1    4    4    0    0 -0.60268686187E+01 -0.69066286262E+01 -0.36062044744E+01  0.98503489806E+01  0.00000000000E+00 0.  1.
         12    1    4    4    0    0  0.10809822525E+03 -0.29419252771E+02 -0.41547994665E+03  0.43031884087E+03  0.00000000000E+00 0. -1.
         -5    1    5    5    0  502 -0.72197837757E+02  0.33715979955E+02 -0.10595750942E+03  0.13265888167E+03  0.47000000000E+01 0.  1.
         11    1    6    6    0    0  0.24149481332E+02 -0.20248319944E+01 -0.20170381652E+02  0.31530012515E+02  0.00000000000E+00 0. -1.
        -12    1    6    6    0    0 -0.45018672971E+02 -0.47171669910E+02  0.66322806679E+01  0.65542615946E+02  0.00000000000E+00 0.  1.
</event>
<event>
12    1  0.8462562E-002  0.1793599E+03  0.7818608E-02  0.1168432E+00
         21   -1    0    0  503  502  0.00000000000E+00  0.00000000000E+00  0.12423806920E+04  0.12423806920E+04  0.00000000000E+00 0. -1.
         21   -1    0    0  501  503 -0.00000000000E+00 -0.00000000000E+00 -0.57649068115E+02  0.57649068115E+02  0.00000000000E+00 0. -1.
          6    2    1    2  501    0 -0.48272528284E+02 -0.16234313034E+02  0.10987713539E+03  0.21031322047E+03  0.17194439775E+03 0.  0.
         24    2    3    3    0    0 -0.34433563409E+01 -0.37149715121E+01  0.13376229313E+03  0.15778723329E+03  0.83539225579E+02 0.  0.
         -6    2    1    2    0  502  0.48272528284E+02  0.16234313034E+02  0.10748544885E+04  0.10897165397E+04  0.17197725266E+03 0.  0.
        -24    2    5    5    0    0 -0.22423276010E+02 -0.10751326437E+02  0.29579158307E+03  0.30697314485E+03  0.78239738740E+02 0.  0.
          5    1    3    3  501    0 -0.44829171943E+02 -0.12519341521E+02 -0.23885157736E+02  0.52525987181E+02  0.47000000000E+01 0. -1.
        -13    1    4    4    0    0  0.24671414337E+02  0.30389714420E+02  0.70051800254E+02  0.80246296779E+02  0.00000000000E+00 0.  1.
         14    1    4    4    0    0 -0.28114770678E+02 -0.34104685932E+02  0.63710492875E+02  0.77540936513E+02  0.00000000000E+00 0. -1.
         -5    1    5    5    0  502  0.70695804294E+02  0.26985639470E+02  0.77906290543E+03  0.78274339480E+03  0.47000000000E+01 0.  1.
         11    1    6    6    0    0  0.90757742699E+01 -0.28015724762E+02  0.23117986953E+03  0.23304802636E+03  0.00000000000E+00 0. -1.
        -12    1    6    6    0    0 -0.31499050280E+02  0.17264398325E+02  0.64611713539E+02  0.73925118495E+02  0.00000000000E+00 0.  1.
</event>
<event>
12    1  0.8462562E-002  0.1799566E+03  0.7818608E-02  0.1167878E+00
         21   -1    0    0  503  502  0.00000000000E+00  0.00000000000E+00  0.19850464524E+03  0.19850464524E+03  0.00000000000E+00 0.  1.
         21   -1    0    0  501  503 -0.00000000000E+00 -0.00000000000E+00 -0.16543007791E+03  0.16543007791E+03  0.00000000000E+00 0.  1.
          6    2    1    2  501    0  0.46743138422E+02  0.24318149212E+02  0.38511689754E+02  0.18403130036E+03  0.17206997383E+03 0.  0.
         24    2    3    3    0    0  0.85877958290E+02  0.40602980744E+02 -0.37194762238E+01  0.12401220970E+03  0.79633961887E+02 0.  0.
         -6    2    1    2    0  502 -0.46743138422E+02 -0.24318149212E+02 -0.54371224230E+01  0.17990342279E+03  0.17192843238E+03 0.  0.
        -24    2    5    5    0    0 -0.34144848944E+02  0.39830180208E+02  0.36264508215E+02  0.10221918331E+03  0.79883245525E+02 0.  0.
          5    1    3    3  501    0 -0.39134819868E+02 -0.16284831532E+02  0.42231165978E+02  0.60019090663E+02  0.47000000000E+01 0. -1.
        -11    1    4    4    0    0  0.93273117390E+02  0.41332820528E+02  0.15697756899E+02  0.10322158714E+03  0.00000000000E+00 0.  1.
         12    1    4    4    0    0 -0.73951590998E+01 -0.72983978387E+00 -0.19417233122E+02  0.20790622558E+02  0.00000000000E+00 0. -1.
         -5    1    5    5    0  502 -0.12598289478E+02 -0.64148329420E+02 -0.41701630638E+02  0.77684239476E+02  0.47000000000E+01 0.  1.
         13    1    6    6    0    0 -0.78010816916E+01  0.43487667643E+00  0.51769274375E+02  0.52355551402E+02  0.00000000000E+00 0. -1.
        -14    1    6    6    0    0 -0.26343767252E+02  0.39395303531E+02 -0.15504766160E+02  0.49863631908E+02  0.00000000000E+00 0.  1.
</event>
<event>
12    1  0.8462562E-002  0.2070831E+03  0.7818608E-02  0.1143914E+00
         21   -1    0    0  501  502  0.00000000000E+00  0.00000000000E+00  0.52851618291E+02  0.52851618291E+02  0.00000000000E+00 0. -1.
         21   -1    0    0  502  503 -0.00000000000E+00 -0.00000000000E+00 -0.10008947117E+04  0.10008947117E+04  0.00000000000E+00 0. -1.
         -6    2    1    2    0  503  0.11398472773E+03  0.13567793420E+02 -0.70340021947E+03  0.73322558155E+03  0.17225353845E+03 0.  0.
        -24    2    3    3    0    0  0.28669501419E+02  0.62161764918E+02 -0.39917420726E+03  0.41351380758E+03  0.83472127017E+02 0.  0.
          6    2    1    2  501    0 -0.11398472773E+03 -0.13567793420E+02 -0.24464287395E+03  0.32052074845E+03  0.17235663968E+03 0.  0.
         24    2    5    5    0    0 -0.56684568541E+02 -0.44652876911E+02 -0.23000534289E+03  0.25354360329E+03  0.78580412838E+02 0.  0.
          5    1    5    5  501    0 -0.57300159192E+02  0.31085083491E+02 -0.14637531053E+02  0.66977145165E+02  0.47000000000E+01 0. -1.
        -11    1    6    6    0    0  0.13738799797E+02  0.25183147434E+01 -0.80319272290E+02  0.81524732629E+02  0.00000000000E+00 0.  1.
         12    1    6    6    0    0 -0.70423368339E+02 -0.47171191655E+02 -0.14968607060E+03  0.17201887066E+03  0.00000000000E+00 0. -1.
         -5    1    3    3    0  503  0.85315226314E+02 -0.48593971498E+02 -0.30422601221E+03  0.31971177397E+03  0.47000000000E+01 0.  1.
         13    1    4    4    0    0  0.45038821785E+02  0.27120256136E+02 -0.33086022614E+03  0.33501118340E+03  0.00000000000E+00 0. -1.
        -14    1    4    4    0    0 -0.16369320366E+02  0.35041508782E+02 -0.68313981119E+02  0.78502624181E+02  0.00000000000E+00 0.  1.
</event>
<event>
12    1  0.8462562E-002  0.1722831E+03  0.7818608E-02  0.1175991E+00
         21   -1    0    0  501  502  0.00000000000E+00  0.00000000000E+00  0.59769048662E+02  0.59769048662E+02  0.00000000000E+00 0. -1.
         21   -1    0    0  502  503 -0.00000000000E+00 -0.00000000000E+00 -0.49109820327E+03  0.49109820327E+03  0.00000000000E+00 0. -1.
         -6    2    1    2    0  503 -0.31798391056E+01 -0.35401648806E+01 -0.22093052661E+03  0.28016381252E+03  0.17221736299E+03 0.  0.
        -24    2    3    3    0    0 -0.52589140390E+02 -0.57537292288E+01 -0.20771789492E+03  0.22875522805E+03  0.79896854781E+02 0.  0.
          6    2    1    2  501    0  0.31798391056E+01  0.35401648806E+01 -0.21039862800E+03  0.27070343941E+03  0.17026486808E+03 0.  0.
         24    2    5    5    0    0 -0.58635981872E+01  0.56959490664E+02 -0.71253735476E+02  0.12130866293E+03  0.79749178815E+02 0.  0.
          5    1    5    5  501    0  0.90434372928E+01 -0.53419325783E+02 -0.13914489252E+03  0.14939477648E+03  0.47000000000E+01 0. -1.
        -13    1    6    6    0    0  0.35695401982E+02  0.26575504441E+02 -0.45868298144E+02  0.63908684336E+02  0.00000000000E+00 0.  1.
         14    1    6    6    0    0 -0.41559000169E+02  0.30383986223E+02 -0.25385437332E+02  0.57399978592E+02  0.00000000000E+00 0. -1.
         -5    1    3    3    0  503  0.49409301284E+02  0.22135643482E+01 -0.13212631683E+02  0.51408584463E+02  0.47000000000E+01 0.  1.
         13    1    4    4    0    0  0.82604127146E+01  0.25016810796E+02 -0.42283202212E+02  0.49819117113E+02  0.00000000000E+00 0. -1.
        -14    1    4    4    0    0 -0.60849553104E+02 -0.30770540025E+02 -0.16543469271E+03  0.17893611094E+03  0.00000000000E+00 0.  1.
</event>
<event>
12    1  0.8462562E-002  0.1911239E+03  0.7818608E-02  0.1157562E+00
         21   -1    0    0  503  502  0.00000000000E+00  0.00000000000E+00  0.68076107777E+03  0.68076107777E+03  0.00000000000E+00 0.  1.
         21   -1    0    0  501  503 -0.00000000000E+00 -0.00000000000E+00 -0.12134236038E+03  0.12134236038E+03  0.00000000000E+00 0.  1.
          6    2    1    2  501    0  0.80793058305E+02 -0.18090288357E+02 -0.19964995340E+02  0.19216382121E+03  0.17226014147E+03 0.  0.
         24    2    3    3    0    0  0.18115124252E+01  0.49835672611E+02 -0.28925839223E+02  0.87500515865E+02  0.65823705913E+02 0.  0.
         -6    2    1    2    0  502 -0.80793058305E+02  0.18090288357E+02  0.57938371273E+03  0.60993961694E+03  0.17171509232E+03 0.  0.
        -24    2    5    5    0    0  0.12007193778E+02 -0.21436012207E+01  0.15902612346E+03  0.17895946666E+03  0.81169052212E+02 0.  0.
          5    1    3    3  501    0  0.78981545879E+02 -0.67925960968E+02  0.89608438827E+01  0.10466330535E+03  0.47000000000E+01 0. -1.
        -11    1    4    4    0    0  0.63795605762E+01  0.90570153975E+01 -0.42779986104E+02  0.44191125038E+02  0.00000000000E+00 0.  1.
         12    1    4    4    0    0 -0.45680481510E+01  0.40778657213E+02  0.13854146881E+02  0.43309390827E+02  0.00000000000E+00 0. -1.
         -5    1    5    5    0  502 -0.92800252082E+02  0.20233889578E+02  0.42035758928E+03  0.43098015028E+03  0.47000000000E+01 0.  1.
         11    1    6    6    0    0 -0.33094467954E+02 -0.26910302132E+01  0.41984513959E+02  0.53527421618E+02  0.00000000000E+00 0. -1.
        -12    1    6    6    0    0  0.45101661731E+02  0.54742899254E+00  0.11704160950E+03  0.12543204504E+03  0.00000000000E+00 0.  1.
</event>
<event>
12    1  0.8462562E-002  0.2198966E+03  0.7818608E-02  0.1134427E+00
         21   -1    0    0  503  502  0.00000000000E+00  0.00000000000E+00  0.74970712054E+02  0.74970712054E+02  0.00000000000E+00 0. -1.
         21   -1    0    0  501  503 -0.00000000000E+00 -0.00000000000E+00 -0.71599421181E+03  0.71599421181E+03  0.00000000000E+00 0. -1.
          6    2    1    2  501    0 -0.13402669282E+03  0.89008363184E+01 -0.19135665003E+03  0.29149939785E+03  0.17410385453E+03 0.  0.
         24    2    3    3    0    0 -0.11042171340E+03 -0.41536772506E+02 -0.18770949666E+03  0.23549458409E+03  0.79401421500E+02 0.  0.
         -6    2    1    2    0  502  0.13402669282E+03 -0.89008363184E+01 -0.44966684973E+03  0.49946552602E+03  0.17094781853E+03 0.  0.
        -24    2    5    5    0    0  0.16532435481E+03 -0.14334355887E+02 -0.36847058314E+03  0.41215006067E+03  0.80990652670E+02 0.  0.
          5    1    3    3  501    0 -0.23604979414E+02  0.50437608824E+02 -0.36471533700E+01  0.56004813764E+02  0.47000000000E+01 0. -1.
        -11    1    4    4    0    0 -0.40019180769E+02  0.51421396157E+01 -0.12192881495E+03  0.12843135266E+03  0.00000000000E+00 0.  1.
         12    1    4    4    0    0 -0.70402532635E+02 -0.46678912121E+02 -0.65780681705E+02  0.10706323143E+03  0.00000000000E+00 0. -1.
         -5    1    5    5    0  502 -0.31297661987E+02  0.54335195684E+01 -0.81196266586E+02  0.87315465344E+02  0.47000000000E+01 0.  1.
         11    1    6    6    0    0  0.17510553560E+02  0.60088659179E+01 -0.12669613334E+03  0.12804154075E+03  0.00000000000E+00 0. -1.
        -12    1    6    6    0    0  0.14781380125E+03 -0.20343221805E+02 -0.24177444980E+03  0.28410851992E+03  0.00000000000E+00 0.  1.
</event>
<event>
12    1  0.8462562E-002  0.3290678E+03  0.7818608E-02  0.1071578E+00
         21   -1    0    0  501  502  0.00000000000E+00  0.00000000000E+00  0.72803423211E+03  0.72803423211E+03  0.00000000000E+00 0. -1.
         21   -1    0    0  502  503 -0.00000000000E+00 -0.00000000000E+00 -0.38783090182E+03  0.38783090182E+03  0.00000000000E+00 0.  1.
         -6    2    1    2    0  503 -0.46845710865E+01 -0.28038441123E+03 -0.26804892640E+03  0.42442411515E+03  0.17218664093E+03 0.  0.
        -24    2    3    3    0    0  0.66377064578E+02 -0.16117149475E+03 -0.14703310510E+03  0.24022749596E+03  0.75553625970E+02 0.  0.
          6    2    1    2  501    0  0.46845710865E+01  0.28038441123E+03  0.60825225669E+03  0.69144101877E+03  0.17170472154E+03 0.  0.
         24    2    5    5    0    0  0.34623370958E+02  0.20472250913E+03  0.54414150200E+03  0.58774273511E+03  0.79002942436E+02 0.  0.
          5    1    5    5  501    0 -0.29938799871E+02  0.75661902099E+02  0.64110754691E+02  0.10369828366E+03  0.47000000000E+01 0. -1.
        -13    1    6    6    0    0 -0.20453933601E+02  0.23896728439E+02  0.55193159037E+02  0.63527173984E+02  0.00000000000E+00 0.  1.
         14    1    6    6    0    0  0.55077304559E+02  0.18082578069E+03  0.48894834296E+03  0.52421556112E+03  0.00000000000E+00 0. -1.
         -5    1    3    3    0  503 -0.71061635664E+02 -0.11921291647E+03 -0.12101582130E+03  0.18419661919E+03  0.47000000000E+01 0.  1.
         13    1    4    4    0    0  0.64663325758E+02 -0.60116008433E+02 -0.58958806614E+02  0.10616694893E+03  0.00000000000E+00 0. -1.
        -14    1    4    4    0    0  0.17137388205E+01 -0.10105548632E+03 -0.88074298487E+02  0.13406054703E+03  0.00000000000E+00 0.  1.
</event>
<event>
12    1  0.8462562E-002  0.2093233E+03  0.7818608E-02  0.1142305E+00
         21   -1    0    0  501  502  0.00000000000E+00  0.00000000000E+00  0.39758705793E+02  0.39758705793E+02  0.00000000000E+00 0. -1.
         21   -1    0    0  502  503 -0.00000000000E+00 -0.00000000000E+00 -0.16529578735E+04  0.16529578735E+04  0.00000000000E+00 0. -1.
         -6    2    1    2    0  503 -0.67749394839E+02  0.93615453605E+02 -0.12988693621E+04  0.13156283109E+04  0.17453480704E+03 0.  0.
        -24    2    3    3    0    0 -0.66220150397E+02  0.20606956005E+02 -0.40716084980E+03  0.42092235903E+03  0.81153679978E+02 0.  0.
          6    2    1    2  501    0  0.67749394839E+02 -0.93615453605E+02 -0.31432980561E+03  0.37708826844E+03  0.17331619037E+03 0.  0.
         24    2    5    5    0    0  0.13914398377E+02  0.18559899072E+02 -0.14657018549E+03  0.16816987113E+03  0.79121463239E+02 0.  0.
          5    1    5    5  501    0  0.53834996462E+02 -0.11217535268E+03 -0.16775962012E+03  0.20891839731E+03  0.47000000000E+01 0. -1.
        -13    1    6    6    0    0 -0.27208689677E+02 -0.10842816223E+02 -0.75258251519E+02  0.80756943226E+02  0.00000000000E+00 0.  1.
         14    1    6    6    0    0  0.41123088054E+02  0.29402715294E+02 -0.71311933974E+02  0.87412927905E+02  0.00000000000E+00 0. -1.
         -5    1    3    3    0  503 -0.15292444428E+01  0.73008497600E+02 -0.89170851232E+03  0.89470595184E+03  0.47000000000E+01 0.  1.
         13    1    4    4    0    0 -0.80201579946E+02  0.23025941016E+02 -0.38914208948E+03  0.39798750381E+03  0.00000000000E+00 0. -1.
        -14    1    4    4    0    0  0.13981429549E+02 -0.24189850114E+01 -0.18018760314E+02  0.22934855220E+02  0.00000000000E+00 0.  1.
</event>
<event>
12    1  0.8462562E-002  0.1733221E+03  0.7818608E-02  0.1174448E+00
         21   -1    0    0  501  502  0.00000000000E+00  0.00000000000E+00  0.51481689585E+02  0.51481689585E+02  0.00000000000E+00 0. -1.
         21   -1    0    0  502  503 -0.00000000000E+00 -0.00000000000E+00 -0.87372519679E+03  0.87372519679E+03  0.00000000000E+00 0. -1.
         -6    2    1    2    0  503 -0.11862793117E+02  0.17657218701E+02 -0.67779373315E+03  0.69958267445E+03  0.17192751512E+03 0.  0.
        -24    2    3    3    0    0  0.25652774757E+02 -0.22739248983E+02 -0.58604586298E+03  0.59244232670E+03  0.79768531723E+02 0.  0.
          6    2    1    2  501    0  0.11862793117E+02 -0.17657218701E+02 -0.14444977405E+03  0.22562421193E+03  0.17201175701E+03 0.  0.
         24    2    5    5    0    0 -0.27433500401E+02  0.38742008554E+02 -0.91663171797E+02  0.13882797412E+03  0.92830647765E+02 0.  0.
          5    1    5    5  501    0  0.39296293517E+02 -0.56399227255E+02 -0.52786602258E+02  0.86796237805E+02  0.47000000000E+01 0. -1.
        -13    1    6    6    0    0  0.18061666972E+02  0.18481034587E+02 -0.84683465170E+02  0.88538475966E+02  0.00000000000E+00 0.  1.
         14    1    6    6    0    0 -0.45495167373E+02  0.20260973967E+02 -0.69797066273E+01  0.50289498158E+02  0.00000000000E+00 0. -1.
         -5    1    3    3    0  503 -0.37515567874E+02  0.40396467684E+02 -0.91747870171E+02  0.10714034775E+03  0.47000000000E+01 0.  1.
         11    1    4    4    0    0  0.32833267457E+02 -0.48144229260E+02 -0.45884663975E+03  0.46253230058E+03  0.00000000000E+00 0. -1.
        -12    1    4    4    0    0 -0.71804926994E+01  0.25404980277E+02 -0.12719922323E+03  0.12991002613E+03  0.00000000000E+00 0.  1.
</event>
<event>
12    1  0.8462562E-002  0.2041331E+03  0.7818608E-02  0.1146761E+00
         21   -1    0    0  503  502  0.00000000000E+00  0.00000000000E+00  0.16082750934E+02  0.16082750934E+02  0.00000000000E+00 0. -1.
         21   -1    0    0  501  503 -0.00000000000E+00 -0.00000000000E+00 -0.25737502789E+04  0.25737502789E+04  0.00000000000E+00 0. -1.
          6    2    1    2  501    0  0.99676923505E+02 -0.36263705869E+02 -0.13710841002E+04  0.13861969270E+04  0.17441262906E+03 0.  0.
         24    2    3    3    0    0  0.89660533649E+02 -0.22304146738E+02 -0.48781919504E+03  0.50275242958E+03  0.79094577161E+02 0.  0.
         -6    2    1    2    0  502 -0.99676923505E+02  0.36263705869E+02 -0.11865834277E+04  0.12036361028E+04  0.17178210482E+03 0.  0.
        -24    2    5    5    0    0 -0.13654752987E+03  0.18380188419E+02 -0.99718727584E+03  0.10098004658E+04  0.79570462040E+02 0.  0.
          5    1    3    3  501    0  0.10016389856E+02 -0.13959559131E+02 -0.88326490517E+03  0.88344449744E+03  0.47000000000E+01 0. -1.
        -13    1    4    4    0    0  0.26913613373E+02  0.20436849409E+02 -0.65927121596E+02  0.74083687546E+02  0.00000000000E+00 0.  1.
         14    1    4    4    0    0  0.62746920276E+02 -0.42740996147E+02 -0.42189207345E+03  0.42866874203E+03  0.00000000000E+00 0. -1.
         -5    1    5    5    0  502  0.36870606367E+02  0.17883517450E+02 -0.18939615190E+03  0.19383563698E+03  0.47000000000E+01 0.  1.
         11    1    6    6    0    0 -0.89556184797E+02  0.49790885549E+02 -0.66090893364E+03  0.66880494996E+03  0.00000000000E+00 0. -1.
        -12    1    6    6    0    0 -0.46991345075E+02 -0.31410697130E+02 -0.33627834220E+03  0.34099551586E+03  0.00000000000E+00 0.  1.
</event>
<event>
12    1  0.8462562E-002  0.1804590E+03  0.7818608E-02  0.1168494E+00
         21   -1    0    0  503  502  0.00000000000E+00  0.00000000000E+00  0.23255681198E+04  0.23255681198E+04  0.00000000000E+00 0.  1.
         21   -1    0    0  501  503 -0.00000000000E+00 -0.00000000000E+00 -0.79003195001E+02  0.79003195001E+02  0.00000000000E+00 0.  1.
          6    2    1    2  501    0  0.23238278317E+02  0.25527256861E+02  0.32287587637E+02  0.18332470466E+03  0.17712651016E+03 0.  0.
         24    2    3    3    0    0  0.37185422030E+00  0.20290940936E+02  0.89064479881E+02  0.12171303492E+03  0.80434574242E+02 0.  0.
         -6    2    1    2    0  502 -0.23238278317E+02 -0.25527256861E+02  0.22142773372E+04  0.22212466102E+04  0.17239698014E+03 0.  0.
        -24    2    5    5    0    0 -0.15768421010E+02 -0.61158444090E+02  0.79030071160E+03  0.79679692678E+03  0.79505530544E+02 0.  0.
          5    1    3    3  501    0  0.22866424097E+02  0.52363159256E+01 -0.56776892244E+02  0.61611669741E+02  0.47000000000E+01 0. -1.
        -13    1    4    4    0    0  0.40276179017E+01  0.42809594528E+02  0.17194464567E+02  0.46309099552E+02  0.00000000000E+00 0.  1.
         14    1    4    4    0    0 -0.36557636814E+01 -0.22518653592E+02  0.71870015314E+02  0.75403935368E+02  0.00000000000E+00 0. -1.
         -5    1    5    5    0  502 -0.74698573073E+01  0.35631187229E+02  0.14239766256E+04  0.14244496834E+04  0.47000000000E+01 0.  1.
         11    1    6    6    0    0  0.50138239632E+01  0.22953407843E+01  0.23037332493E+01  0.59761364554E+01  0.00000000000E+00 0. -1.
        -12    1    6    6    0    0 -0.20782244973E+02 -0.63453784874E+02  0.78799697835E+03  0.79082079033E+03  0.00000000000E+00 0.  1.
</event>
<event>
12    1  0.8462562E-002  0.2024382E+03  0.7818608E-02  0.1147889E+00
         21   -1    0    0  501  502  0.00000000000E+00  0.00000000000E+00  0.95894879992E+03  0.95894879992E+03  0.00000000000E+00 0.  1.
         21   -1    0    0  502  503 -0.00000000000E+00 -0.00000000000E+00 -0.87135421619E+02  0.87135421619E+02  0.00000000000E+00 0.  1.
         -6    2    1    2    0  503  0.77489353174E+02  0.70957060096E+02  0.62216794429E+02  0.21178329938E+03  0.17303679423E+03 0.  0.
        -24    2    3    3    0    0  0.11465515259E+03  0.72335889661E+02  0.22939291526E+02  0.15748771898E+03  0.76797692565E+02 0.  0.
          6    2    1    2  501    0 -0.77489353174E+02 -0.70957060096E+02  0.80959658388E+03  0.83430092216E+03  0.17196480994E+03 0.  0.
         24    2    5    5    0    0 -0.96549940268E+02 -0.50981029223E+02  0.78638575577E+03  0.79792537638E+03  0.79758341721E+02 0.  0.
          5    1    5    5  501    0  0.19060587094E+02 -0.19976030873E+02  0.23210828102E+02  0.36375545782E+02  0.47000000000E+01 0. -1.
        -13    1    6    6    0    0 -0.54002030427E+02  0.11243397944E+02  0.23362644124E+03  0.24004988509E+03  0.00000000000E+00 0.  1.
         14    1    6    6    0    0 -0.42547909841E+02 -0.62224427167E+02  0.55275931454E+03  0.55787549128E+03  0.00000000000E+00 0. -1.
         -5    1    3    3    0  503 -0.37165799420E+02 -0.13788295649E+01  0.39277502903E+02  0.54295580408E+02  0.47000000000E+01 0.  1.
         13    1    4    4    0    0 -0.58233623489E+01  0.78236808337E+01 -0.12929599420E+02  0.16195557169E+02  0.00000000000E+00 0. -1.
        -14    1    4    4    0    0  0.12047851494E+03  0.64512208828E+02  0.35868890947E+02  0.14129216181E+03  0.00000000000E+00 0.  1.
</event>
<event>
12    1  0.8462562E-002  0.1906115E+03  0.7818608E-02  0.1158119E+00
         21   -1    0    0  501  502  0.00000000000E+00  0.00000000000E+00  0.18651289163E+03  0.18651289163E+03  0.00000000000E+00 0. -1.
         21   -1    0    0  502  503 -0.00000000000E+00 -0.00000000000E+00 -0.16172322691E+04  0.16172322691E+04  0.00000000000E+00 0.  1.
         -6    2    1    2    0  503 -0.66162771647E+02 -0.44737803775E+02 -0.15616631030E+04  0.15732528073E+04  0.17307156068E+03 0.  0.
        -24    2    3    3    0    0 -0.93861027698E+02 -0.40683582605E+02 -0.73790396184E+03  0.74900476049E+03  0.77722763261E+02 0.  0.
          6    2    1    2  501    0  0.66162771647E+02  0.44737803775E+02  0.13094372554E+03  0.23049235337E+03  0.17205081304E+03 0.  0.
         24    2    5    5    0    0 -0.11207272775E+02  0.36110223680E+02  0.14900483718E+02  0.90675748907E+02  0.81058718270E+02 0.  0.
          5    1    5    5  501    0  0.77370044422E+02  0.86275800951E+01  0.11604324182E+03  0.13981660447E+03  0.47000000000E+01 0. -1.
        -13    1    6    6    0    0 -0.36148512744E+02  0.48536062029E+02  0.16615758977E+02  0.62757850005E+02  0.00000000000E+00 0.  1.
         14    1    6    6    0    0  0.24941239969E+02 -0.12425838349E+02 -0.17152752587E+01  0.27917898902E+02  0.00000000000E+00 0. -1.
         -5    1    3    3    0  503  0.27698256052E+02 -0.40542211699E+01 -0.82375914115E+03  0.82424804684E+03  0.47000000000E+01 0.  1.
         11    1    4    4    0    0 -0.37934827682E+02 -0.24122995404E+02 -0.11655360608E+03  0.12492282877E+03  0.00000000000E+00 0. -1.
        -12    1    4    4    0    0 -0.55926200017E+02 -0.16560587201E+02 -0.62135035576E+03  0.62408193172E+03  0.00000000000E+00 0.  1.
</event>
<event>
12    1  0.8462562E-002  0.2254761E+03  0.7818608E-02  0.1130048E+00
         21   -1    0    0  503  502  0.00000000000E+00  0.00000000000E+00  0.77798210187E+02  0.77798210187E+02  0.00000000000E+00 0. -1.
         21   -1    0    0  501  503 -0.00000000000E+00 -0.00000000000E+00 -0.85849613709E+03  0.85849613709E+03  0.00000000000E+00 0.  1.
          6    2    1    2  501    0 -0.10600071444E+03 -0.95906496046E+02 -0.62008543004E+03  0.65946252673E+03  0.17306263655E+03 0.  0.
         24    2    3    3    0    0 -0.12336127236E+03 -0.30821189618E+02 -0.50609552801E+03  0.52697375797E+03  0.73489515349E+02 0.  0.
         -6    2    1    2    0  502  0.10600071444E+03  0.95906496046E+02 -0.16061249687E+03  0.27683182055E+03  0.17437108497E+03 0.  0.
        -24    2    5    5    0    0  0.90584997627E+02  0.19998333077E+02 -0.15771819671E+03  0.19917771246E+03  0.78683902076E+02 0.  0.
          5    1    3    3  501    0  0.17360557921E+02 -0.65085306428E+02 -0.11398990202E+03  0.13248876876E+03  0.47000000000E+01 0. -1.
        -13    1    4    4    0    0 -0.81041896126E+02 -0.24830492772E+01 -0.18673877530E+03  0.20358124830E+03  0.00000000000E+00 0.  1.
         14    1    4    4    0    0 -0.42319376232E+02 -0.28338140341E+02 -0.31935675272E+03  0.32339250967E+03  0.00000000000E+00 0. -1.
         -5    1    5    5    0  502  0.15415716810E+02  0.75908162969E+02 -0.28943001601E+01  0.77654108092E+02  0.47000000000E+01 0.  1.
         11    1    6    6    0    0  0.92097879894E+02 -0.87679239521E+01 -0.11388726886E+03  0.14672834075E+03  0.00000000000E+00 0. -1.
        -12    1    6    6    0    0 -0.15128822678E+01  0.28766257029E+02 -0.43830927851E+02  0.52449371707E+02  0.00000000000E+00 0.  1.
</event>
<event>
12    1  0.8462562E-002  0.1904792E+03  0.7818608E-02  0.1158066E+00
         21   -1    0    0  501  502  0.00000000000E+00  0.00000000000E+00  0.20689003281E+02  0.20689003281E+02  0.00000000000E+00 0.  1.
         21   -1    0    0  502  503 -0.00000000000E+00 -0.00000000000E+00 -0.19124612947E+04  0.19124612947E+04  0.00000000000E+00 0.  1.
         -6    2    1    2    0  503  0.78439529986E+02 -0.16460591211E+02 -0.12253115816E+04  0.12400037135E+04  0.17261815277E+03 0.  0.
        -24    2    3    3    0    0  0.32359765020E+02 -0.33566248406E+02 -0.33610767437E+03  0.34942995080E+03  0.83421066418E+02 0.  0.
          6    2    1    2  501    0 -0.78439529986E+02  0.16460591211E+02 -0.66646070980E+03  0.69314658442E+03  0.17279640870E+03 0.  0.
         24    2    5    5    0    0 -0.58057281736E+02 -0.20915447816E+02 -0.62708031073E+03  0.63496316610E+03  0.78360718962E+02 0.  0.
          5    1    5    5  501    0 -0.20382248250E+02  0.37376039027E+02 -0.39380399076E+02  0.58183418329E+02  0.47000000000E+01 0. -1.
        -13    1    6    6    0    0  0.16279820125E+02 -0.93539122626E+00 -0.45963204029E+02  0.48770109951E+02  0.00000000000E+00 0.  1.
         14    1    6    6    0    0 -0.74337101861E+02 -0.19980056589E+02 -0.58111710670E+03  0.58619305614E+03  0.00000000000E+00 0. -1.
         -5    1    3    3    0  503  0.46079764966E+02  0.17105657195E+02 -0.88920390721E+03  0.89057376272E+03  0.47000000000E+01 0.  1.
         11    1    4    4    0    0  0.32913386808E+02  0.21572487893E+02 -0.11486705776E+03  0.12142118523E+03  0.00000000000E+00 0. -1.
        -12    1    4    4    0    0 -0.55362178815E+00 -0.55138736299E+02 -0.22124061661E+03  0.22800876557E+03  0.00000000000E+00 0.  1.
</event>
<event>
12    1  0.8462562E-002  0.1800007E+03  0.7818608E-02  0.1169051E+00
         21   -1    0    0  503  502  0.00000000000E+00  0.00000000000E+00  0.16474409066E+03  0.16474409066E+03  0.00000000000E+00 0.  1.
         21   -1    0    0  501  503 -0.00000000000E+00 -0.00000000000E+00 -0.21125987802E+03  0.21125987802E+03  0.00000000000E+00 0.  1.
          6    2    1    2  501    0  0.32410502782E+02 -0.40421838806E+02  0.35031961034E+02  0.17839250373E+03  0.16706969010E+03 0.  0.
         24    2    3    3    0    0  0.45296623802E+02 -0.84906390773E+02  0.32637302830E+02  0.13177971721E+03  0.83903641226E+02 0.  0.
         -6    2    1    2    0  502 -0.32410502782E+02  0.40421838806E+02 -0.81547748400E+02  0.19761146495E+03  0.17238297500E+03 0.  0.
        -24    2    5    5    0    0 -0.16877569714E+02  0.92139340321E+02 -0.56727729241E+02  0.13799523123E+03  0.83965100978E+02 0.  0.
          5    1    3    3  501    0 -0.12886121020E+02  0.44484551967E+02  0.23946582041E+01  0.46612786514E+02  0.47000000000E+01 0. -1.
        -13    1    4    4    0    0  0.17690922967E+01 -0.61925531290E+02  0.49973586281E+02  0.79594349289E+02  0.00000000000E+00 0.  1.
         14    1    4    4    0    0  0.43527531505E+02 -0.22980859484E+02 -0.17336283451E+02  0.52185367925E+02  0.00000000000E+00 0. -1.
         -5    1    5    5    0  502 -0.15532933067E+02 -0.51717501515E+02 -0.24820019159E+02  0.59616233726E+02  0.47000000000E+01 0.  1.
         13    1    6    6    0    0 -0.88903432698E+01  0.54776195628E+02  0.14333105445E+02  0.57314114515E+02  0.00000000000E+00 0. -1.
        -14    1    6    6    0    0 -0.79872264447E+01  0.37363144693E+02 -0.71060834686E+02  0.80681116712E+02  0.00000000000E+00 0.  1.
</event>
<event>
12    1  0.8462562E-002  0.1925902E+03  0.7818608E-02  0.1156159E+00
         21   -1    0    0  503  502  0.00000000000E+00  0.00000000000E+00  0.36229390106E+03  0.36229390106E+03  0.00000000000E+00 0. -1.
         21   -1    0    0  501  503 -0.00000000000E+00 -0.00000000000E+00 -0.19139052155E+03  0.19139052155E+03  0.00000000000E+00 0.  1.
          6    2    1    2  501    0 -0.12275704034E+02  0.86125145783E+02 -0.10338680406E+03  0.21853357633E+03  0.17175523014E+03 0.  0.
         24    2    3    3    0    0  0.29771043146E+02  0.55174041778E+02 -0.12560360722E+03  0.16159873524E+03  0.80046206583E+02 0.  0.
         -6    2    1    2    0  502  0.12275704034E+02 -0.86125145783E+02  0.27429018358E+03  0.33515084628E+03  0.17182185923E+03 0.  0.
        -24    2    5    5    0    0 -0.95808353374E+01 -0.12065839215E+03  0.17493844591E+03  0.22761893848E+03  0.80973336928E+02 0.  0.
          5    1    3    3  501    0 -0.42046747180E+02  0.30951104004E+02  0.22216803153E+02  0.56934841089E+02  0.47000000000E+01 0. -1.
        -13    1    4    4    0    0 -0.69743113596E+01  0.74099938816E+01 -0.92076727332E+02  0.92637318314E+02  0.00000000000E+00 0.  1.
         14    1    4    4    0    0  0.36745354506E+02  0.47764047897E+02 -0.33526879884E+02  0.68961416922E+02  0.00000000000E+00 0. -1.
         -5    1    5    5    0  502  0.21856539371E+02  0.34533246371E+02  0.99351737671E+02  0.10753190781E+03  0.47000000000E+01 0.  1.
         13    1    6    6    0    0 -0.37690874091E+02 -0.70019030078E+02  0.13692402007E+03  0.15833967865E+03  0.00000000000E+00 0. -1.
        -14    1    6    6    0    0  0.28110038754E+02 -0.50639362075E+02  0.38014425836E+02  0.69279259824E+02  0.00000000000E+00 0.  1.
</event>
<event>
12    1  0.8462562E-002  0.3122927E+03  0.7818608E-02  0.1080460E+00
         21   -1    0    0  503  502  0.00000000000E+00  0.00000000000E+00  0.82037774262E+03  0.82037774262E+03  0.00000000000E+00 0. -1.
         21   -1    0    0  501  503 -0.00000000000E+00 -0.00000000000E+00 -0.15738519171E+03  0.15738519171E+03  0.00000000000E+00 0. -1.
          6    2    1    2  501    0  0.23918821205E+03  0.10265723708E+03  0.82073240170E+02  0.32289739762E+03  0.17256072419E+03 0.  0.
         24    2    3    3    0    0  0.19823530563E+03  0.11969437467E+03  0.11185967527E+03  0.26926227557E+03  0.79784750213E+02 0.  0.
         -6    2    1    2    0  502 -0.23918821205E+03 -0.10265723708E+03  0.58091931073E+03  0.65486553670E+03  0.15372740962E+03 0.  0.
        -24    2    5    5    0    0 -0.23556168309E+03 -0.57620391667E+02  0.46685076059E+03  0.53208445800E+03  0.79717135541E+02 0.  0.
          5    1    3    3  501    0  0.40952906419E+02 -0.17037137594E+02 -0.29786435102E+02  0.53635122053E+02  0.47000000000E+01 0. -1.
        -13    1    4    4    0    0  0.15474187327E+02  0.43375834010E+02  0.12712772142E+02  0.47775810041E+02  0.00000000000E+00 0.  1.
         14    1    4    4    0    0  0.18276111831E+03  0.76318540660E+02  0.99146903130E+02  0.22148646553E+03  0.00000000000E+00 0. -1.
         -5    1    5    5    0  502 -0.36265289610E+01 -0.45036845410E+02  0.11406855014E+03  0.12278107870E+03  0.47000000000E+01 0.  1.
         13    1    6    6    0    0 -0.43716501961E+02  0.81668400410E+01  0.41372373109E+02  0.60741279840E+02  0.00000000000E+00 0. -1.
        -14    1    6    6    0    0 -0.19184518113E+03 -0.65787231708E+02  0.42547838749E+03  0.47134317816E+03  0.00000000000E+00 0.  1.
</event>
<event>
12    1  0.8462562E-002  0.2037378E+03  0.7818608E-02  0.1147026E+00
         21   -1    0    0  503  502  0.00000000000E+00  0.00000000000E+00  0.79728603473E+02  0.79728603473E+02  0.00000000000E+00 0.  1.
         21   -1    0    0  501  503 -0.00000000000E+00 -0.00000000000E+00 -0.91940699798E+03  0.91940699798E+03  0.00000000000E+00 0.  1.
          6    2    1    2  501    0  0.19351519432E+01  0.10589948409E+03 -0.74975550688E+03  0.77643572410E+03  0.17175758507E+03 0.  0.
         24    2    3    3    0    0  0.97210194901E+01  0.13759872776E+03 -0.69175542249E+03  0.70971570033E+03  0.78376671623E+02 0.  0.
         -6    2    1    2    0  502 -0.19351519432E+01 -0.10589948409E+03 -0.89922887627E+02  0.22269987735E+03  0.17404213314E+03 0.  0.
        -24    2    5    5    0    0  0.33697399269E+02 -0.10847757564E+03 -0.13360822704E+02  0.13808211888E+03  0.77364467541E+02 0.  0.
          5    1    3    3  501    0 -0.77858675470E+01 -0.31699243673E+02 -0.58000084392E+02  0.66720023774E+02  0.47000000000E+01 0. -1.
        -13    1    4    4    0    0 -0.13216095268E+02  0.15554099730E+02 -0.25017849952E+03  0.25100971458E+03  0.00000000000E+00 0.  1.
         14    1    4    4    0    0  0.22937114758E+02  0.12204462803E+03 -0.44157692297E+03  0.45870598575E+03  0.00000000000E+00 0. -1.
         -5    1    5    5    0  502 -0.35632551212E+02  0.25780915505E+01 -0.76562064923E+02  0.84617758462E+02  0.47000000000E+01 0.  1.
         11    1    6    6    0    0  0.17906918964E+02  0.16163486093E+01  0.14872833188E+02  0.23333913016E+02  0.00000000000E+00 0. -1.
        -12    1    6    6    0    0  0.15790480305E+02 -0.11009392425E+03 -0.28233655892E+02  0.11474820587E+03  0.00000000000E+00 0.  1.
</event>
<event>
12    1  0.8462562E-002  0.2060320E+03  0.7818608E-02  0.1145032E+00
         21   -1    0    0  503  502  0.00000000000E+00  0.00000000000E+00  0.11834121683E+04  0.11834121683E+04  0.00000000000E+00 0. -1.
         21   -1    0    0  501  503 -0.00000000000E+00 -0.00000000000E+00 -0.54233314415E+02  0.54233314415E+02  0.00000000000E+00 0. -1.
          6    2    1    2  501    0 -0.21928796575E+02  0.10980887018E+03  0.20339390148E+03  0.28951386905E+03  0.17294606421E+03 0.  0.
         24    2    3    3    0    0  0.51218442235E+02  0.79952596792E+02  0.12944327268E+03  0.18119627535E+03  0.84028464216E+02 0.  0.
         -6    2    1    2    0  502  0.21928796575E+02 -0.10980887018E+03  0.92578495245E+03  0.94813161371E+03  0.17128023424E+03 0.  0.
        -24    2    5    5    0    0 -0.48372387706E+02 -0.66126719108E+02  0.65343255495E+03  0.66344177325E+03  0.80425442231E+02 0.  0.
          5    1    3    3  501    0 -0.73147238810E+02  0.29856273383E+02  0.73950628793E+02  0.10831759370E+03  0.47000000000E+01 0. -1.
        -11    1    4    4    0    0  0.19068180509E+02  0.82329431252E+02  0.12148997161E+03  0.14799170233E+03  0.00000000000E+00 0.  1.
         12    1    4    4    0    0  0.32150261727E+02 -0.23768344597E+01  0.79533010747E+01  0.33204573015E+02  0.00000000000E+00 0. -1.
         -5    1    5    5    0  502  0.70301184281E+02 -0.43682151068E+02  0.27235239750E+03  0.28468984045E+03  0.47000000000E+01 0.  1.
         11    1    6    6    0    0 -0.21872053417E+01 -0.57308369210E+02  0.49108367555E+03  0.49442108515E+03  0.00000000000E+00 0. -1.
        -12    1    6    6    0    0 -0.46185182365E+02 -0.88183498980E+01  0.16234887940E+03  0.16902068810E+03  0.00000000000E+00 0.  1.
</event>
<event>
12    1  0.8462562E-002  0.2020848E+03  0.7818608E-02  0.1147993E+00
         21   -1    0    0  503  502  0.00000000000E+00  0.00000000000E+00  0.13621978876E+03  0.13621978876E+03  0.00000000000E+00 0. -1.
         21   -1    0    0  501  503 -0.00000000000E+00 -0.00000000000E+00 -0.50249542908E+03  0.50249542908E+03  0.00000000000E+00 0. -1.
          6    2    1    2  501    0 -0.72789662993E+02 -0.75789824821E+02 -0.38597686258E+03  0.43567924614E+03  0.17261469952E+03 0.  0.
         24    2    3    3    0    0  0.20145937296E+02 -0.30683551757E+02 -0.24216454018E+03  0.25854744283E+03  0.82799616764E+02 0.  0.
         -6    2    1    2    0  502  0.72789662993E+02  0.75789824821E+02  0.19701222258E+02  0.20303597170E+03  0.17260659043E+03 0.  0.
        -24    2    5    5    0    0 -0.24699670729E+02  0.32544336816E+02  0.34174787323E+02  0.95305212355E+02  0.79031385035E+02 0.  0.
          5    1    3    3  501    0 -0.92935600289E+02 -0.45106273064E+02 -0.14381232240E+03  0.17713180331E+03  0.47000000000E+01 0. -1.
        -13    1    4    4    0    0  0.41900020835E+01  0.23744815448E+02 -0.27769081687E+02  0.36776273273E+02  0.00000000000E+00 0.  1.
         14    1    4    4    0    0  0.15955935212E+02 -0.54428367205E+02 -0.21439545849E+03  0.22177116956E+03  0.00000000000E+00 0. -1.
         -5    1    5    5    0  502  0.97489333722E+02  0.43245488005E+02 -0.14473565065E+02  0.10773075934E+03  0.47000000000E+01 0.  1.
         13    1    6    6    0    0  0.21756121851E+02  0.23850283266E+02 -0.65230562996E+01  0.32935013487E+02  0.00000000000E+00 0. -1.
        -14    1    6    6    0    0 -0.46455792580E+02  0.86940535494E+01  0.40697843623E+02  0.62370198868E+02  0.00000000000E+00 0.  1.
</event>
<event>
12    1  0.8462562E-002  0.1915002E+03  0.7818608E-02  0.1157969E+00
         21   -1    0    0  501  502  0.00000000000E+00  0.00000000000E+00  0.36318609209E+02  0.36318609209E+02  0.00000000000E+00 0. -1.
         21   -1    0    0  502  503 -0.00000000000E+00 -0.00000000000E+00 -0.10847045873E+04  0.10847045873E+04  0.00000000000E+00 0. -1.
         -6    2    1    2    0  503  0.82514930361E+02  0.94029624782E+00 -0.36325136122E+03  0.41063836115E+03  0.17280831672E+03 0.  0.
        -24    2    3    3    0    0  0.26242914976E+02  0.56690205824E+02 -0.26943193700E+03  0.28776132304E+03  0.79438909474E+02 0.  0.
          6    2    1    2  501    0 -0.82514930361E+02 -0.94029624782E+00 -0.68513461688E+03  0.71038483537E+03  0.16860478401E+03 0.  0.
         24    2    5    5    0    0  0.14909358087E+02  0.27829422099E+02 -0.34573152811E+03  0.35607461065E+03  0.79133261847E+02 0.  0.
          5    1    5    5  501    0 -0.97424288447E+02 -0.28769718347E+02 -0.33940308877E+03  0.35431022472E+03  0.47000000000E+01 0. -1.
        -13    1    6    6    0    0 -0.24986405603E+01 -0.12440287526E+02 -0.25477281337E+03  0.25508859322E+03  0.00000000000E+00 0.  1.
         14    1    6    6    0    0  0.17407998647E+02  0.40269709625E+02 -0.90958714742E+02  0.10098601744E+03  0.00000000000E+00 0. -1.
         -5    1    3    3    0  503  0.56272015385E+02 -0.55749909576E+02 -0.93819424225E+02  0.12287703811E+03  0.47000000000E+01 0.  1.
         13    1    4    4    0    0  0.44069536984E+02  0.20451250459E+02 -0.21235143517E+03  0.21783826513E+03  0.00000000000E+00 0. -1.
        -14    1    4    4    0    0 -0.17826622009E+02  0.36238955366E+02 -0.57080501825E+02  0.69923057906E+02  0.00000000000E+00 0.  1.
</event>
<event>
12    1  0.8462562E-002  0.2010090E+03  0.7818608E-02  0.1149145E+00
         21   -1    0    0  501  502  0.00000000000E+00  0.00000000000E+00  0.43472389192E+03  0.43472389192E+03  0.00000000000E+00 0. -1.
         21   -1    0    0  502  503 -0.00000000000E+00 -0.00000000000E+00 -0.11604177174E+03  0.11604177174E+03  0.00000000000E+00 0. -1.
         -6    2    1    2    0  503  0.89851904097E+02 -0.48233326490E+02  0.28329911260E+03  0.34666620238E+03  0.17181167078E+03 0.  0.
        -24    2    3    3    0    0 -0.21308499912E+02 -0.33956967734E+02  0.12418870972E+03  0.15199042026E+03  0.77917420404E+02 0.  0.
          6    2    1    2  501    0 -0.89851904097E+02  0.48233326490E+02  0.35383007578E+02  0.20409946128E+03  0.17321897822E+03 0.  0.
         24    2    5    5    0    0 -0.44470718613E+02  0.73728121478E+02  0.74823840443E+02  0.13862346671E+03  0.78767872342E+02 0.  0.
          5    1    5    5  501    0 -0.45381185484E+02 -0.25494794989E+02 -0.39440832865E+02  0.65475994567E+02  0.47000000000E+01 0. -1.
        -13    1    6    6    0    0  0.20021378035E+02  0.14094020954E+02  0.33648318934E+02  0.41613776231E+02  0.00000000000E+00 0.  1.
         14    1    6    6    0    0 -0.64492096648E+02  0.59634100524E+02  0.41175521509E+02  0.97009690479E+02  0.00000000000E+00 0. -1.
         -5    1    3    3    0  503  0.11116040401E+03 -0.14276358755E+02  0.15911040289E+03  0.19467578213E+03  0.47000000000E+01 0.  1.
         11    1    4    4    0    0 -0.28401221263E+02  0.17755925788E+02  0.64645460400E+02  0.72807539583E+02  0.00000000000E+00 0. -1.
        -12    1    4    4    0    0  0.70927213507E+01 -0.51712893522E+02  0.59543249316E+02  0.79182880673E+02  0.00000000000E+00 0.  1.
</event>
<event>
12    1  0.8462562E-002  0.1873200E+03  0.7818608E-02  0.1161393E+00
         21   -1    0    0  503  502  0.00000000000E+00  0.00000000000E+00  0.17053667610E+04  0.17053667610E+04  0.00000000000E+00 0. -1.
         21   -1    0    0  501  503 -0.00000000000E+00 -0.00000000000E+00 -0.22992980591E+02  0.22992980591E+02  0.00000000000E+00 0. -1.
          6    2    1    2  501    0  0.67120912841E+02 -0.19532608832E+02  0.55202177877E+03  0.58293809331E+03  0.17378733166E+03 0.  0.
         24    2    3    3    0    0  0.36767696104E+02  0.50519036576E+02  0.40115729379E+03  0.41379101642E+03  0.79948698422E+02 0.  0.
         -6    2    1    2    0  502 -0.67120912841E+02  0.19532608832E+02  0.11303520016E+04  0.11454216483E+04  0.17148867308E+03 0.  0.
        -24    2    5    5    0    0 -0.38861454730E+02 -0.33071815297E+02  0.35149301466E+03  0.36426274382E+03  0.80845838205E+02 0.  0.
          5    1    3    3  501    0  0.30353216737E+02 -0.70051645409E+02  0.15086448498E+03  0.16914707689E+03  0.47000000000E+01 0. -1.
        -11    1    4    4    0    0  0.89612337778E+01 -0.66048638255E+00  0.27153607179E+03  0.27168470372E+03  0.00000000000E+00 0.  1.
         12    1    4    4    0    0  0.27806462326E+02  0.51179522959E+02  0.12962122200E+03  0.14210631271E+03  0.00000000000E+00 0. -1.
         -5    1    5    5    0  502 -0.28259458111E+02  0.52604424129E+02  0.77885898699E+03  0.78115890447E+03  0.47000000000E+01 0.  1.
         11    1    6    6    0    0 -0.30952972916E+02  0.44795865191E+01  0.29065485571E+03  0.29233268441E+03  0.00000000000E+00 0. -1.
        -12    1    6    6    0    0 -0.79084818135E+01 -0.37551401816E+02  0.60838158944E+02  0.71930059409E+02  0.00000000000E+00 0.  1.
</event>
<event>
12    1  0.8462562E-002  0.1810310E+03  0.7818608E-02  0.1167263E+00
         21   -1    0    0  503  502  0.00000000000E+00  0.00000000000E+00  0.54615930278E+02  0.54615930278E+02  0.00000000000E+00 0. -1.
         21   -1    0    0  501  503 -0.00000000000E+00 -0.00000000000E+00 -0.84948870828E+03  0.84948870828E+03  0.00000000000E+00 0. -1.
          6    2    1    2  501    0 -0.17426709024E+02  0.48766024315E+02 -0.64687355490E+03  0.67172735168E+03  0.17346591497E+03 0.  0.
         24    2    3    3    0    0 -0.25148298425E+02  0.75264362073E+02 -0.25503123447E+03  0.27888606194E+03  0.80245522475E+02 0.  0.
         -6    2    1    2    0  502  0.17426709024E+02 -0.48766024315E+02 -0.14799922310E+03  0.23237728687E+03  0.17150398859E+03 0.  0.
        -24    2    5    5    0    0 -0.30499540481E+01 -0.48216339228E+02 -0.10646575604E+02  0.93426088036E+02  0.79252550529E+02 0.  0.
          5    1    3    3  501    0  0.77215894006E+01 -0.26498337758E+02 -0.39184232043E+03  0.39284128974E+03  0.47000000000E+01 0. -1.
        -13    1    4    4    0    0  0.11487351059E+02  0.47285922602E+02 -0.54230154586E+02  0.72861700345E+02  0.00000000000E+00 0.  1.
         14    1    4    4    0    0 -0.36635649484E+02  0.27978439471E+02 -0.20080107988E+03  0.20602436160E+03  0.00000000000E+00 0. -1.
         -5    1    5    5    0  502  0.20476663072E+02 -0.54968508690E+00 -0.13735264750E+03  0.13895119884E+03  0.47000000000E+01 0.  1.
         13    1    6    6    0    0  0.33803338827E+02 -0.32859353657E+02 -0.21848786907E+02  0.51959333405E+02  0.00000000000E+00 0. -1.
        -14    1    6    6    0    0 -0.36853292875E+02 -0.15356985571E+02  0.11202211302E+02  0.41466754631E+02  0.00000000000E+00 0.  1.
</event>
<event>
12    1  0.8462562E-002  0.1776589E+03  0.7818608E-02  0.1170192E+00
         21   -1    0    0  501  502  0.00000000000E+00  0.00000000000E+00  0.76687919600E+03  0.76687919600E+03  0.00000000000E+00 0. -1.
         21   -1    0    0  502  503 -0.00000000000E+00 -0.00000000000E+00 -0.83063199107E+02  0.83063199107E+02  0.00000000000E+00 0. -1.
         -6    2    1    2    0  503 -0.40051602409E+02 -0.20521048812E+02  0.39906817637E+02  0.18208576075E+03  0.17186455677E+03 0.  0.
        -24    2    3    3    0    0 -0.22580191851E+02 -0.28664076464E+02  0.91466978529E+02  0.12683995297E+03  0.79941673520E+02 0.  0.
          6    2    1    2  501    0  0.40051602409E+02  0.20521048812E+02  0.64390917925E+03  0.66785663435E+03  0.17142989419E+03 0.  0.
         24    2    5    5    0    0  0.69495413203E+02  0.44414031513E+02  0.29674617832E+03  0.31859734409E+03  0.81509230537E+02 0.  0.
          5    1    5    5  501    0 -0.29443810794E+02 -0.23892982701E+02  0.34716300093E+03  0.34925929026E+03  0.47000000000E+01 0. -1.
        -13    1    6    6    0    0  0.37536099536E+01  0.49246896195E+02  0.11069739018E+03  0.12121575213E+03  0.00000000000E+00 0.  1.
         14    1    6    6    0    0  0.65741803249E+02 -0.48328646815E+01  0.18604878815E+03  0.19738159196E+03  0.00000000000E+00 0. -1.
         -5    1    3    3    0  503 -0.17471410558E+02  0.81430276513E+01 -0.51560160892E+02  0.55245807782E+02  0.47000000000E+01 0.  1.
         11    1    4    4    0    0  0.34380012152E+01  0.70062548853E+01 -0.12018256267E+02  0.14329896845E+02  0.00000000000E+00 0. -1.
        -12    1    4    4    0    0 -0.26018193066E+02 -0.35670331349E+02  0.10348523480E+03  0.11251005613E+03  0.00000000000E+00 0.  1.
</event>
<event>
12    1  0.8462562E-002  0.2221139E+03  0.7818608E-02  0.1132940E+00
         21   -1    0    0  503  502  0.00000000000E+00  0.00000000000E+00  0.84026972662E+03  0.84026972662E+03  0.00000000000E+00 0.  1.
         21   -1    0    0  501  503 -0.00000000000E+00 -0.00000000000E+00 -0.68448850677E+02  0.68448850677E+02  0.00000000000E+00 0.  1.
          6    2    1    2  501    0 -0.13340055997E+03 -0.35563910718E+02  0.56736292081E+03  0.60929078851E+03  0.17399448242E+03 0.  0.
         24    2    3    3    0    0 -0.12506029707E+03  0.25816437046E+02  0.47356001579E+03  0.49678220188E+03  0.78910716780E+02 0.  0.
         -6    2    1    2    0  502  0.13340055997E+03  0.35563910718E+02  0.20445795514E+03  0.29942778879E+03  0.16968631098E+03 0.  0.
        -24    2    5    5    0    0  0.11626831097E+03  0.82844933443E+02  0.12639874027E+03  0.20645284543E+03  0.79148801082E+02 0.  0.
          5    1    3    3  501    0 -0.83402628992E+01 -0.61380347764E+02  0.93802905017E+02  0.11250858663E+03  0.47000000000E+01 0. -1.
        -11    1    4    4    0    0 -0.31789414433E+02  0.29819769427E+02  0.26114110146E+03  0.26475358428E+03  0.00000000000E+00 0.  1.
         12    1    4    4    0    0 -0.93270882638E+02 -0.40033323805E+01  0.21241891433E+03  0.23202861759E+03  0.00000000000E+00 0. -1.
         -5    1    5    5    0  502  0.17132249002E+02 -0.47281022726E+02  0.78059214870E+02  0.92974943356E+02  0.47000000000E+01 0.  1.
         11    1    6    6    0    0  0.36409239261E+02  0.37094967104E+01  0.73701818592E+02  0.82288219893E+02  0.00000000000E+00 0. -1.
        -12    1    6    6    0    0  0.79859071706E+02  0.79135436733E+02  0.52696921674E+02  0.12416462554E+03  0.00000000000E+00 0.  1.
</event>
<event>
12    1  0.8462562E-002  0.2204354E+03  0.7818608E-02  0.1133968E+00
         21   -1    0    0  501  502  0.00000000000E+00  0.00000000000E+00  0.33812473468E+03  0.33812473468E+03  0.00000000000E+00 0. -1.
         21   -1    0    0  502  503 -0.00000000000E+00 -0.00000000000E+00 -0.14959560877E+03  0.14959560877E+03  0.00000000000E+00 0. -1.
         -6    2    1    2    0  503  0.26336694414E+02  0.13299570006E+03  0.40809882509E+02  0.22418117013E+03  0.17381102618E+03 0.  0.
        -24    2    3    3    0    0 -0.69371867896E+01  0.11226597664E+03 -0.31806607006E+02  0.14152454817E+03  0.79785734411E+02 0.  0.
          6    2    1    2  501    0 -0.26336694414E+02 -0.13299570006E+03  0.14771924340E+03  0.26353917332E+03  0.17102760974E+03 0.  0.
         24    2    5    5    0    0  0.35548990172E+02 -0.38028122401E+02  0.28935200822E+02  0.99282004416E+02  0.79434260610E+02 0.  0.
          5    1    5    5  501    0 -0.61885684586E+02 -0.94967577663E+02  0.11878404258E+03  0.16425716890E+03  0.47000000000E+01 0. -1.
        -13    1    6    6    0    0 -0.15644000139E+02  0.10928723235E+02 -0.63942412820E+01  0.20126054096E+02  0.00000000000E+00 0.  1.
         14    1    6    6    0    0  0.51192990311E+02 -0.48956845636E+02  0.35329442104E+02  0.79155950320E+02  0.00000000000E+00 0. -1.
         -5    1    3    3    0  503  0.33273881204E+02  0.20729723427E+02  0.72616489515E+02  0.82656621956E+02  0.47000000000E+01 0.  1.
         11    1    4    4    0    0  0.30198146652E+02  0.60928790694E+02  0.51107371442E+01  0.68193586435E+02  0.00000000000E+00 0. -1.
        -12    1    4    4    0    0 -0.37135333442E+02  0.51337185943E+02 -0.36917344150E+02  0.73330961739E+02  0.00000000000E+00 0.  1.
</event>
<event>
12    1  0.8462562E-002  0.1870345E+03  0.7818608E-02  0.1161280E+00
         21   -1    0    0  501  502  0.00000000000E+00  0.00000000000E+00  0.63524779505E+02  0.63524779505E+02  0.00000000000E+00 0. -1.
         21   -1    0    0  502  503 -0.00000000000E+00 -0.00000000000E+00 -0.56366814258E+03  0.56366814258E+03  0.00000000000E+00 0.  1.
         -6    2    1    2    0  503 -0.16936676054E+02  0.71666426885E+02 -0.19948533661E+03  0.27310654334E+03  0.17137635996E+03 0.  0.
        -24    2    3    3    0    0  0.27563168484E+02  0.50599368700E+02 -0.20050575309E+03  0.22363747872E+03  0.80567614425E+02 0.  0.
          6    2    1    2  501    0  0.16936676054E+02 -0.71666426885E+02 -0.30065802647E+03  0.35408637875E+03  0.17192727241E+03 0.  0.
         24    2    5    5    0    0 -0.12297238851E+02 -0.71113684406E+02 -0.85304213495E+02  0.13670587809E+03  0.78761094912E+02 0.  0.
          5    1    5    5  501    0  0.29233914905E+02 -0.55274247850E+00 -0.21535381297E+03  0.21738050066E+03  0.47000000000E+01 0. -1.
        -13    1    6    6    0    0  0.13688019926E+02  0.19874780420E+01 -0.49249624125E+02  0.51155033329E+02  0.00000000000E+00 0.  1.
         14    1    6    6    0    0 -0.25985258777E+02 -0.73101162448E+02 -0.36054589371E+02  0.85550844763E+02  0.00000000000E+00 0. -1.
         -5    1    3    3    0  503 -0.44499844538E+02  0.21067058184E+02  0.10204164837E+01  0.49469064619E+02  0.47000000000E+01 0.  1.
         13    1    4    4    0    0  0.27305032565E+02  0.16388223010E+02 -0.15358153872E+02  0.35355502360E+02  0.00000000000E+00 0. -1.
        -14    1    4    4    0    0  0.25813591899E+00  0.34211145690E+02 -0.18514759922E+03  0.18828197636E+03  0.00000000000E+00 0.  1.
</event>
<event>
12    1  0.8462562E-002  0.2941942E+03  0.7818608E-02  0.1088384E+00
         21   -1    0    0  503  502  0.00000000000E+00  0.00000000000E+00  0.53332406284E+03  0.53332406284E+03  0.00000000000E+00 0.  1.
         21   -1    0    0  501  503 -0.00000000000E+00 -0.00000000000E+00 -0.16713896594E+03  0.16713896594E+03  0.00000000000E+00 0. -1.
          6    2    1    2  501    0  0.16359169495E+03  0.17139754116E+03  0.11774560771E+03  0.31540144535E+03  0.17168192631E+03 0.  0.
         24    2    3    3    0    0  0.18501084130E+03  0.11946479396E+03  0.80610643680E+02  0.24789673725E+03  0.80335969974E+02 0.  0.
         -6    2    1    2    0  502 -0.16359169495E+03 -0.17139754116E+03  0.24843948918E+03  0.38506158343E+03  0.17438716546E+03 0.  0.
        -24    2    5    5    0    0 -0.26670345181E+02 -0.57959910031E+02  0.66061138878E+02  0.13030777121E+03  0.92441239099E+02 0.  0.
          5    1    3    3  501    0 -0.21419146349E+02  0.51932747200E+02  0.37134964030E+02  0.67504708100E+02  0.47000000000E+01 0. -1.
        -11    1    4    4    0    0  0.13011716698E+03  0.77997740707E+02  0.93075810234E+02  0.17798098536E+03  0.00000000000E+00 0.  1.
         12    1    4    4    0    0  0.54893674311E+02  0.41467053252E+02 -0.12465166554E+02  0.69915751888E+02  0.00000000000E+00 0. -1.
         -5    1    5    5    0  502 -0.13692134977E+03 -0.11343763113E+03  0.18237835030E+03  0.25475381221E+03  0.47000000000E+01 0.  1.
         13    1    6    6    0    0 -0.10899810353E+02  0.24555028309E+02  0.74677486696E+01  0.27884091364E+02  0.00000000000E+00 0. -1.
        -14    1    6    6    0    0 -0.15770534828E+02 -0.82514938340E+02  0.58593390209E+02  0.10242367985E+03  0.00000000000E+00 0.  1.
</event>
<event>
12    1  0.8462562E-002  0.1733622E+03  0.7818608E-02  0.1174796E+00
         21   -1    0    0  503  502  0.00000000000E+00  0.00000000000E+00  0.20548512614E+03  0.20548512614E+03  0.00000000000E+00 0. -1.
         21   -1    0    0  501  503 -0.00000000000E+00 -0.00000000000E+00 -0.18081869976E+03  0.18081869976E+03  0.00000000000E+00 0. -1.
          6    2    1    2  501    0  0.19890379101E+02  0.20999703139E+02 -0.73786893214E+02  0.18693603694E+03  0.16930434602E+03 0.  0.
         24    2    3    3    0    0  0.66853460069E+01  0.53751977052E+02  0.84828715733E+01  0.97283995445E+02  0.80363223998E+02 0.  0.
         -6    2    1    2    0  502 -0.19890379101E+02 -0.20999703139E+02  0.98453319600E+02  0.19936778897E+03  0.17093228023E+03 0.  0.
        -24    2    5    5    0    0  0.28245558584E+02 -0.42966473207E+02  0.23205875624E+02  0.10725983432E+03  0.91226257162E+02 0.  0.
          5    1    3    3  501    0  0.13205033095E+02 -0.32752273913E+02 -0.82269764787E+02  0.89652041492E+02  0.47000000000E+01 0. -1.
        -11    1    4    4    0    0  0.79035721301E+01  0.61531705081E+02 -0.21982976347E+02  0.65816931193E+02  0.00000000000E+00 0.  1.
         12    1    4    4    0    0 -0.12182261232E+01 -0.77797280289E+01  0.30465847921E+02  0.31467064252E+02  0.00000000000E+00 0. -1.
         -5    1    5    5    0  502 -0.48135937686E+02  0.21966770068E+02  0.75247443975E+02  0.92107954645E+02  0.47000000000E+01 0.  1.
         11    1    6    6    0    0 -0.16152677339E+02  0.20641878852E+02 -0.27839748646E+00  0.26212089824E+02  0.00000000000E+00 0. -1.
        -12    1    6    6    0    0  0.44398235923E+02 -0.63608352059E+02  0.23484273111E+02  0.81047744498E+02  0.00000000000E+00 0.  1.
</event>
<event>
12    1  0.8462562E-002  0.1985811E+03  0.7818608E-02  0.1150944E+00
         21   -1    0    0  501  502  0.00000000000E+00  0.00000000000E+00  0.24288394108E+03  0.24288394108E+03  0.00000000000E+00 0.  1.
         21   -1    0    0  502  503 -0.00000000000E+00 -0.00000000000E+00 -0.18685389718E+03  0.18685389718E+03  0.00000000000E+00 0. -1.
         -6    2    1    2    0  503  0.28998709065E+02 -0.93233362996E+02 -0.49795702006E+02  0.20471886104E+03  0.17290695482E+03 0.  0.
        -24    2    3    3    0    0 -0.32937749050E+02 -0.43439594562E+01 -0.27314210051E+01  0.86504701771E+02  0.79823790135E+02 0.  0.
          6    2    1    2  501    0 -0.28998709065E+02  0.93233362996E+02  0.10582574591E+03  0.22501897721E+03  0.17291924851E+03 0.  0.
         24    2    5    5    0    0  0.23590073683E+02  0.74457265526E+02  0.12360497761E+03  0.16622856144E+03  0.79078240885E+02 0.  0.
          5    1    5    5  501    0 -0.52588782748E+02  0.18776097470E+02 -0.17779231703E+02  0.58790415776E+02  0.47000000000E+01 0. -1.
        -13    1    6    6    0    0 -0.22764220203E+02 -0.77178827984E+00  0.26059872497E+02  0.34611014621E+02  0.00000000000E+00 0.  1.
         14    1    6    6    0    0  0.46354293885E+02  0.75229053806E+02  0.97545105115E+02  0.13161754682E+03  0.00000000000E+00 0. -1.
         -5    1    3    3    0  503  0.61936458115E+02 -0.88889403540E+02 -0.47064281001E+02  0.11821415927E+03  0.47000000000E+01 0.  1.
         13    1    4    4    0    0 -0.35038954923E+02 -0.33185042797E+02 -0.20643179552E+02  0.52489201648E+02  0.00000000000E+00 0. -1.
        -14    1    4    4    0    0  0.21012058729E+01  0.28841083341E+02  0.17911758547E+02  0.34015500124E+02  0.00000000000E+00 0.  1.
</event>
<event>
12    1  0.8462562E-002  0.1890511E+03  0.7818608E-02  0.1159784E+00
         21   -1    0    0  503  502  0.00000000000E+00  0.00000000000E+00  0.62585443866E+03  0.62585443866E+03  0.00000000000E+00 0. -1.
         21   -1    0    0  501  503 -0.00000000000E+00 -0.00000000000E+00 -0.18074318727E+03  0.18074318727E+03  0.00000000000E+00 0.  1.
          6    2    1    2  501    0 -0.21959519986E+02 -0.73131022472E+02 -0.11144862288E+03  0.21945639751E+03  0.17294492736E+03 0.  0.
         24    2    3    3    0    0 -0.43202922933E+02 -0.82488568592E+02 -0.19269321283E+02  0.12428308465E+03  0.80025757656E+02 0.  0.
         -6    2    1    2    0  502  0.21959519986E+02  0.73131022472E+02  0.55655987427E+03  0.58714122842E+03  0.17072071197E+03 0.  0.
        -24    2    5    5    0    0  0.40723764034E+01  0.79785850393E+02  0.55626468625E+03  0.56748381821E+03  0.78899408037E+02 0.  0.
          5    1    3    3  501    0  0.21243402947E+02  0.93575461198E+01 -0.92179301594E+02  0.95173312859E+02  0.47000000000E+01 0. -1.
        -11    1    4    4    0    0  0.90865970856E+01  0.44033658191E+01 -0.20512923261E+02  0.22863418333E+02  0.00000000000E+00 0.  1.
         12    1    4    4    0    0 -0.52289520019E+02 -0.86891934411E+02  0.12436019781E+01  0.10141966631E+03  0.00000000000E+00 0. -1.
         -5    1    5    5    0  502  0.17887143583E+02 -0.66548279208E+01  0.29518802141E+00  0.19657410210E+02  0.47000000000E+01 0.  1.
         13    1    6    6    0    0 -0.21460430000E+01  0.58824040869E+02  0.15782502046E+03  0.16844468043E+03  0.00000000000E+00 0. -1.
        -14    1    6    6    0    0  0.62184194034E+01  0.20961809524E+02  0.39843966580E+03  0.39903913778E+03  0.00000000000E+00 0.  1.
</event>
<event>
12    1  0.8462562E-002  0.1752678E+03  0.7818608E-02  0.1172524E+00
         21   -1    0    0  501  502  0.00000000000E+00  0.00000000000E+00  0.10797202952E+04  0.10797202952E+04  0.00000000000E+00 0. -1.
         21   -1    0    0  502  503 -0.00000000000E+00 -0.00000000000E+00 -0.34387526512E+02  0.34387526512E+02  0.00000000000E+00 0. -1.
         -6    2    1    2    0  503 -0.28882658574E+02  0.69898119837E+01  0.29013825321E+03  0.33884171058E+03  0.17248313951E+03 0.  0.
        -24    2    3    3    0    0  0.46171676424E+01 -0.47361806555E+02  0.90279835102E+02  0.12898029420E+03  0.78873371361E+02 0.  0.
          6    2    1    2  501    0  0.28882658574E+02 -0.69898119837E+01  0.75519451548E+03  0.77526611114E+03  0.17273019836E+03 0.  0.
         24    2    5    5    0    0 -0.28460056703E+02 -0.51476517584E+02  0.49325602349E+03  0.50341851127E+03  0.81663248050E+02 0.  0.
          5    1    5    5  501    0  0.57342715277E+02  0.44486705600E+02  0.26193849199E+03  0.27184759987E+03  0.47000000000E+01 0. -1.
        -11    1    6    6    0    0 -0.24102200641E+02 -0.63548342128E+01  0.35238204067E+02  0.43162843042E+02  0.00000000000E+00 0.  1.
         12    1    6    6    0    0 -0.43578560623E+01 -0.45121683371E+02  0.45801781943E+03  0.46025566822E+03  0.00000000000E+00 0. -1.
         -5    1    3    3    0  503 -0.33499826216E+02  0.54351618538E+02  0.19985841811E+03  0.20986141637E+03  0.47000000000E+01 0.  1.
         13    1    4    4    0    0  0.88465088367E-01  0.92656297123E+01 -0.10058828620E+02  0.13676247777E+02  0.00000000000E+00 0. -1.
        -14    1    4    4    0    0  0.45287025540E+01 -0.56627436267E+02  0.10033866372E+03  0.11530404643E+03  0.00000000000E+00 0.  1.
</event>
<event>
12    1  0.8462562E-002  0.2240707E+03  0.7818608E-02  0.1131008E+00
         21   -1    0    0  503  502  0.00000000000E+00  0.00000000000E+00  0.32681921314E+03  0.32681921314E+03  0.00000000000E+00 0.  1.
         21   -1    0    0  501  503 -0.00000000000E+00 -0.00000000000E+00 -0.59863883496E+03  0.59863883496E+03  0.00000000000E+00 0. -1.
          6    2    1    2  501    0  0.34907113899E+02  0.14095983327E+03 -0.53502705403E+03  0.57979083626E+03  0.16975065262E+03 0.  0.
         24    2    3    3    0    0  0.48270140324E+02  0.16988247210E+03 -0.46700952098E+03  0.50453417997E+03  0.72572620912E+02 0.  0.
         -6    2    1    2    0  502 -0.34907113899E+02 -0.14095983327E+03  0.26320743222E+03  0.34566721184E+03  0.17064433118E+03 0.  0.
        -24    2    5    5    0    0 -0.61749904389E+02 -0.64394751521E+02  0.77676733358E+02  0.14311727388E+03  0.80555226166E+02 0.  0.
          5    1    3    3  501    0 -0.13363026425E+02 -0.28922638829E+02 -0.68017533059E+02  0.75256656287E+02  0.47000000000E+01 0. -1.
        -13    1    4    4    0    0  0.12121676241E+02  0.68785399736E+01 -0.79298799890E+01  0.16035346697E+02  0.00000000000E+00 0.  1.
         14    1    4    4    0    0  0.36148464083E+02  0.16300393213E+03 -0.45907964099E+03  0.48849883328E+03  0.00000000000E+00 0. -1.
         -5    1    5    5    0  502  0.26842790489E+02 -0.76565081752E+02  0.18553069886E+03  0.20254993796E+03  0.47000000000E+01 0.  1.
         13    1    6    6    0    0 -0.13885701112E+02 -0.17584365738E+01  0.60943496383E+02  0.62530109115E+02  0.00000000000E+00 0. -1.
        -14    1    6    6    0    0 -0.47864203277E+02 -0.62636314947E+02  0.16733236975E+02  0.80587164766E+02  0.00000000000E+00 0.  1.
</event>
<event>
12    1  0.8462562E-002  0.1767014E+03  0.7818608E-02  0.1171245E+00
         21   -1    0    0  501  502  0.00000000000E+00  0.00000000000E+00  0.89622823467E+02  0.89622823467E+02  0.00000000000E+00 0.  1.
         21   -1    0    0  502  503 -0.00000000000E+00 -0.00000000000E+00 -0.35104705450E+03  0.35104705450E+03  0.00000000000E+00 0.  1.
         -6    2    1    2    0  503  0.31093478670E+02  0.20628774530E+02 -0.15488517643E+03  0.23433532942E+03  0.17184666998E+03 0.  0.
        -24    2    3    3    0    0  0.53821983848E+02  0.64665302623E+02 -0.73511053506E+02  0.13894330336E+03  0.82601206117E+02 0.  0.
          6    2    1    2  501    0 -0.31093478670E+02 -0.20628774530E+02 -0.10653905460E+03  0.20633454855E+03  0.17271660318E+03 0.  0.
         24    2    5    5    0    0 -0.28358504616E+02 -0.33959617040E+01  0.12063067979E+02  0.86363704582E+02  0.80606665482E+02 0.  0.
          5    1    5    5  501    0 -0.27349740540E+01 -0.17232812826E+02 -0.11860212258E+03  0.11997084396E+03  0.47000000000E+01 0. -1.
        -11    1    6    6    0    0 -0.79483634889E+00  0.36578787758E+02  0.91808472229E+01  0.37721710385E+02  0.00000000000E+00 0.  1.
         12    1    6    6    0    0 -0.27563668267E+02 -0.39974749462E+02  0.28822207564E+01  0.48641994196E+02  0.00000000000E+00 0. -1.
         -5    1    3    3    0  503 -0.22728505177E+02 -0.44036528094E+02 -0.81374122929E+02  0.95392026064E+02  0.47000000000E+01 0.  1.
         11    1    4    4    0    0  0.14693940808E+02 -0.19886332080E+02 -0.14629449777E+02  0.28729756366E+02  0.00000000000E+00 0. -1.
        -12    1    4    4    0    0  0.39128043039E+02  0.84551634703E+02 -0.58881603729E+02  0.11021354699E+03  0.00000000000E+00 0.  1.
</event>
<event>
12    1  0.8462562E-002  0.1786284E+03  0.7818608E-02  0.1169272E+00
         21   -1    0    0  501  502  0.00000000000E+00  0.00000000000E+00  0.63752589049E+02  0.63752589049E+02  0.00000000000E+00 0. -1.
         21   -1    0    0  502  503 -0.00000000000E+00 -0.00000000000E+00 -0.65258476729E+03  0.65258476729E+03  0.00000000000E+00 0. -1.
         -6    2    1    2    0  503 -0.12562490896E+01 -0.46284662727E+02 -0.46854282783E+03  0.50143842934E+03  0.17252324116E+03 0.  0.
        -24    2    3    3    0    0  0.75279018284E+01 -0.21752276852E+02 -0.46763113121E+03  0.47494464790E+03  0.79772882858E+02 0.  0.
          6    2    1    2  501    0  0.12562490896E+01  0.46284662727E+02 -0.12028935041E+03  0.21489892700E+03  0.17195398465E+03 0.  0.
         24    2    5    5    0    0 -0.55138394919E+02  0.71922247637E+01 -0.29498321804E+02  0.10099688376E+03  0.78982585730E+02 0.  0.
          5    1    5    5  501    0  0.56394644009E+02  0.39092437963E+02 -0.90791028608E+02  0.11390204324E+03  0.47000000000E+01 0. -1.
        -13    1    6    6    0    0 -0.10310868145E+02 -0.15919224147E+02 -0.44504215332E+02  0.48377276501E+02  0.00000000000E+00 0.  1.
         14    1    6    6    0    0 -0.44827526774E+02  0.23111448910E+02  0.15005893529E+02  0.52619607258E+02  0.00000000000E+00 0. -1.
         -5    1    3    3    0  503 -0.87841509180E+01 -0.24532385875E+02 -0.91169661912E+00  0.26493781436E+02  0.47000000000E+01 0.  1.
         11    1    4    4    0    0 -0.18054256493E+02 -0.43005535649E+02 -0.33379829259E+03  0.33704114350E+03  0.00000000000E+00 0. -1.
        -12    1    4    4    0    0  0.25582158321E+02  0.21253258797E+02 -0.13383283862E+03  0.13790350440E+03  0.00000000000E+00 0.  1.
</event>
<event>
12    1  0.8462562E-002  0.1873444E+03  0.7818608E-02  0.1161405E+00
         21   -1    0    0  501  502  0.00000000000E+00  0.00000000000E+00  0.48257135560E+03  0.48257135560E+03  0.00000000000E+00 0. -1.
         21   -1    0    0  502  503 -0.00000000000E+00 -0.00000000000E+00 -0.16994528190E+03  0.16994528190E+03  0.00000000000E+00 0. -1.
         -6    2    1    2    0  503 -0.33430650373E+02  0.58324164393E+02 -0.91964097670E+02  0.20665663772E+03  0.17242463315E+03 0.  0.
        -24    2    3    3    0    0 -0.11650317019E+02 -0.25905613591E+02  0.56456285056E+01  0.75817854999E+02  0.70068846953E+02 0.  0.
          6    2    1    2  501    0  0.33430650373E+02 -0.58324164393E+02  0.40459017137E+03  0.44585999977E+03  0.17486742432E+03 0.  0.
         24    2    5    5    0    0  0.68587628428E+02 -0.66134484002E+02  0.18400128626E+03  0.22230114749E+03  0.80518905127E+02 0.  0.
          5    1    5    5  501    0 -0.35156978055E+02  0.78103196085E+01  0.22058888511E+03  0.22355885228E+03  0.47000000000E+01 0. -1.
        -11    1    6    6    0    0  0.29282119899E+02 -0.70415233876E+02  0.77640145575E+02  0.10882894795E+03  0.00000000000E+00 0.  1.
         12    1    6    6    0    0  0.39305508529E+02  0.42807498745E+01  0.10636114068E+03  0.11347219954E+03  0.00000000000E+00 0. -1.
         -5    1    3    3    0  503 -0.21780333354E+02  0.84229777984E+02 -0.97609726175E+02  0.13083878272E+03  0.47000000000E+01 0.  1.
         13    1    4    4    0    0  0.34519484891E+01 -0.39410597832E+02 -0.19021809157E+02  0.43896929203E+02  0.00000000000E+00 0. -1.
        -14    1    4    4    0    0 -0.15102265508E+02  0.13504984242E+02  0.24667437662E+02  0.31920925796E+02  0.00000000000E+00 0.  1.
</event>
<event>
12    1  0.8462562E-002  0.2057034E+03  0.7818608E-02  0.1145168E+00
         21   -1    0    0  501  502  0.00000000000E+00  0.00000000000E+00  0.40443105688E+03  0.40443105688E+03  0.00000000000E+00 0.  1.
         21   -1    0    0  502  503 -0.00000000000E+00 -0.00000000000E+00 -0.15514037696E+03  0.15514037696E+03  0.00000000000E+00 0. -1.
         -6    2    1    2    0  503 -0.82399164311E+02 -0.76454634691E+02 -0.35455757575E+02  0.20873667194E+03  0.17227580800E+03 0.  0.
        -24    2    3    3    0    0 -0.78944512134E+02 -0.43220981937E+02 -0.87642232212E+02  0.14659225600E+03  0.75550244060E+02 0.  0.
          6    2    1    2  501    0  0.82399164311E+02  0.76454634691E+02  0.28474643749E+03  0.35083476190E+03  0.17137550306E+03 0.  0.
         24    2    5    5    0    0  0.11663985167E+02  0.46372169415E+02  0.24879103446E+03  0.26584475489E+03  0.80560711418E+02 0.  0.
          5    1    5    5  501    0  0.70735179144E+02  0.30082465276E+02  0.35955403026E+02  0.84990007014E+02  0.47000000000E+01 0. -1.
        -11    1    6    6    0    0  0.39272423138E+02  0.50135043045E+00  0.87783040655E+02  0.96168793264E+02  0.00000000000E+00 0.  1.
         12    1    6    6    0    0 -0.27608437970E+02  0.45870818985E+02  0.16100799381E+03  0.16967596162E+03  0.00000000000E+00 0. -1.
         -5    1    3    3    0  503 -0.34546521766E+01 -0.33233652754E+02  0.52186474637E+02  0.62144415936E+02  0.47000000000E+01 0.  1.
         11    1    4    4    0    0 -0.80965554665E+02 -0.54322148034E+02 -0.92417015513E+02  0.13433994776E+03  0.00000000000E+00 0. -1.
        -12    1    4    4    0    0  0.20210425306E+01  0.11101166097E+02  0.47747833004E+01  0.12252308239E+02  0.00000000000E+00 0.  1.
</event>
<event>
12    1  0.8462562E-002  0.2064209E+03  0.7818608E-02  0.1147905E+00
         21   -1    0    0  503  502  0.00000000000E+00  0.00000000000E+00  0.38947223976E+03  0.38947223976E+03  0.00000000000E+00 0.  1.
         21   -1    0    0  501  503 -0.00000000000E+00 -0.00000000000E+00 -0.50374353997E+03  0.50374353997E+03  0.00000000000E+00 0.  1.
          6    2    1    2  501    0  0.78994092281E+02 -0.13589477353E+02 -0.45693490978E+03  0.50139714348E+03  0.19022314058E+03 0.  0.
         24    2    3    3    0    0  0.11863967047E+03 -0.16326287083E+02 -0.24108928157E+03  0.28187336980E+03  0.83586098451E+02 0.  0.
         -6    2    1    2    0  502 -0.78994092281E+02  0.13589477353E+02  0.34266360957E+03  0.39181863625E+03  0.17227522713E+03 0.  0.
        -24    2    5    5    0    0 -0.70598548418E+02 -0.25877995116E+02  0.33159016500E+03  0.34971308181E+03  0.81813057606E+02 0.  0.
          5    1    3    3  501    0 -0.39645578190E+02  0.27368097304E+01 -0.21584562820E+03  0.21952377368E+03  0.47000000000E+01 0. -1.
        -11    1    4    4    0    0  0.74450687703E+01  0.17038660479E+02 -0.86894796462E+02  0.88861975288E+02  0.00000000000E+00 0.  1.
         12    1    4    4    0    0  0.11119460170E+03 -0.33364947563E+02 -0.15419448511E+03  0.19301139451E+03  0.00000000000E+00 0. -1.
         -5    1    5    5    0  502 -0.83955438636E+01  0.39467472469E+02  0.11073444561E+02  0.42105554436E+02  0.47000000000E+01 0.  1.
         11    1    6    6    0    0 -0.83743464266E+02 -0.13971392744E+02  0.20498415476E+03  0.22187084380E+03  0.00000000000E+00 0. -1.
        -12    1    6    6    0    0  0.13144915848E+02 -0.11906602373E+02  0.12660601024E+03  0.12784223802E+03  0.00000000000E+00 0.  1.
</event>
<event>
12    1  0.8462562E-002  0.2681314E+03  0.7818608E-02  0.1102412E+00
         21   -1    0    0  501  502  0.00000000000E+00  0.00000000000E+00  0.34916663574E+02  0.34916663574E+02  0.00000000000E+00 0.  1.
         21   -1    0    0  502  503 -0.00000000000E+00 -0.00000000000E+00 -0.22859435736E+04  0.22859435736E+04  0.00000000000E+00 0. -1.
         -6    2    1    2    0  503 -0.14588542298E+03 -0.14561962333E+03 -0.14928420069E+04  0.15166595325E+04  0.17085446626E+03 0.  0.
        -24    2    3    3    0    0 -0.22582291616E+02 -0.28080070829E+02 -0.34121272459E+03  0.35248974142E+03  0.80774031169E+02 0.  0.
          6    2    1    2  501    0  0.14588542298E+03  0.14561962333E+03 -0.75818490305E+03  0.80420070459E+03  0.17148409465E+03 0.  0.
         24    2    5    5    0    0  0.18600786204E+02  0.11234327022E+03 -0.38851310772E+03  0.41178763052E+03  0.75230433822E+02 0.  0.
          5    1    5    5  501    0  0.12728463677E+03  0.33276353108E+02 -0.36967179534E+03  0.39241307407E+03  0.47000000000E+01 0. -1.
        -11    1    6    6    0    0  0.24058328910E+02  0.11524940588E+03 -0.38812905290E+03  0.40559264102E+03  0.00000000000E+00 0.  1.
         12    1    6    6    0    0 -0.54575427058E+01 -0.29061356614E+01 -0.38405482097E+00  0.61949895055E+01  0.00000000000E+00 0. -1.
         -5    1    3    3    0  503 -0.12330313136E+03 -0.11753955250E+03 -0.11516292823E+04  0.11641697911E+04  0.47000000000E+01 0.  1.
         11    1    4    4    0    0 -0.32486866939E+02 -0.97944412504E+01 -0.32320367456E+03  0.32497991146E+03  0.00000000000E+00 0. -1.
        -12    1    4    4    0    0  0.99045753228E+01 -0.18285629579E+02 -0.18009050028E+02  0.27509829958E+02  0.00000000000E+00 0.  1.
</event>
<event>
12    1  0.8462562E-002  0.1804045E+03  0.7818608E-02  0.1167674E+00
         21   -1    0    0  503  502  0.00000000000E+00  0.00000000000E+00  0.17561596328E+03  0.17561596328E+03  0.00000000000E+00 0. -1.
         21   -1    0    0  501  503 -0.00000000000E+00 -0.00000000000E+00 -0.28779611518E+03  0.28779611518E+03  0.00000000000E+00 0. -1.
          6    2    1    2  501    0  0.33126129180E+02  0.39114273745E+02 -0.19498943812E+03  0.26490978110E+03  0.17184017080E+03 0.  0.
         24    2    3    3    0    0 -0.26672670491E+02 -0.39972801335E+01 -0.39554054541E+02  0.92814601076E+02  0.79514887554E+02 0.  0.
         -6    2    1    2    0  502 -0.33126129180E+02 -0.39114273745E+02  0.82809286226E+02  0.19850229736E+03  0.17296970060E+03 0.  0.
        -24    2    5    5    0    0 -0.56160628302E+02 -0.20967503110E+02  0.11815478627E+03  0.15233642460E+03  0.75180984182E+02 0.  0.
          5    1    3    3  501    0  0.59798799670E+02  0.43111553879E+02 -0.15543538358E+03  0.17209518002E+03  0.47000000000E+01 0. -1.
        -13    1    4    4    0    0  0.24084117098E+02 -0.18446987557E+02 -0.20907505888E+02  0.36843721973E+02  0.00000000000E+00 0.  1.
         14    1    4    4    0    0 -0.50756787589E+02  0.14449707424E+02 -0.18646548653E+02  0.55970879104E+02  0.00000000000E+00 0. -1.
         -5    1    5    5    0  502  0.23034499122E+02 -0.18146770635E+02 -0.35345500046E+02  0.46165872762E+02  0.47000000000E+01 0.  1.
         11    1    6    6    0    0 -0.15915839350E+02 -0.37545774528E+02  0.20982460516E+02  0.45861342942E+02  0.00000000000E+00 0. -1.
        -12    1    6    6    0    0 -0.40244788952E+02  0.16578271418E+02  0.97172325756E+02  0.10647508166E+03  0.00000000000E+00 0.  1.
</event>
<event>
12    1  0.8462562E-002  0.1966590E+03  0.7818608E-02  0.1153220E+00
         21   -1    0    0  503  502  0.00000000000E+00  0.00000000000E+00  0.89942901586E+02  0.89942901586E+02  0.00000000000E+00 0. -1.
         21   -1    0    0  501  503 -0.00000000000E+00 -0.00000000000E+00 -0.58848493476E+03  0.58848493476E+03  0.00000000000E+00 0.  1.
          6    2    1    2  501    0  0.86622479235E+02 -0.26151360071E+02 -0.42745290773E+03  0.46931443863E+03  0.17132631568E+03 0.  0.
         24    2    3    3    0    0  0.83981729977E+02 -0.11797595145E+02 -0.43583884710E+03  0.45183822327E+03  0.83726728977E+02 0.  0.
         -6    2    1    2    0  502 -0.86622479235E+02  0.26151360071E+02 -0.71089125446E+02  0.20911339771E+03  0.17460641971E+03 0.  0.
        -24    2    5    5    0    0 -0.72716845043E+02 -0.32362491188E+02 -0.92948550271E+02  0.14494828332E+03  0.77688489816E+02 0.  0.
          5    1    3    3  501    0  0.26407492578E+01 -0.14353764926E+02  0.83859393766E+01  0.17476215363E+02  0.47000000000E+01 0. -1.
        -13    1    4    4    0    0  0.64059349073E+02  0.23554825763E+02 -0.17459610452E+03  0.18746260889E+03  0.00000000000E+00 0.  1.
         14    1    4    4    0    0  0.19922380904E+02 -0.35352420908E+02 -0.26124274259E+03  0.26437561438E+03  0.00000000000E+00 0. -1.
         -5    1    5    5    0  502 -0.13905634192E+02  0.58513851259E+02  0.21859424825E+02  0.64165114393E+02  0.47000000000E+01 0.  1.
         13    1    6    6    0    0 -0.26257638488E+02 -0.48601644365E+01  0.10151102579E+02  0.28567983143E+02  0.00000000000E+00 0. -1.
        -14    1    6    6    0    0 -0.46459206555E+02 -0.27502326751E+02 -0.10309965285E+03  0.11638030017E+03  0.00000000000E+00 0.  1.
</event>
<event>
12    1  0.8462562E-002  0.1911289E+03  0.7818608E-02  0.1159175E+00
         21   -1    0    0  503  502  0.00000000000E+00  0.00000000000E+00  0.59927531588E+03  0.59927531588E+03  0.00000000000E+00 0. -1.
         21   -1    0    0  501  503 -0.00000000000E+00 -0.00000000000E+00 -0.84621317941E+02  0.84621317941E+02  0.00000000000E+00 0.  1.
          6    2    1    2  501    0  0.34723403949E+01  0.81155713675E+02  0.64031844200E+02  0.19441674105E+03  0.16461921249E+03 0.  0.
         24    2    3    3    0    0 -0.18830732827E+01 -0.17878367748E+02  0.17365739436E+02  0.84706918918E+02  0.80935228473E+02 0.  0.
         -6    2    1    2    0  502 -0.34723403949E+01 -0.81155713675E+02  0.45062215374E+03  0.48947989277E+03  0.17300847660E+03 0.  0.
        -24    2    5    5    0    0 -0.19935717244E+02 -0.97909690969E+02  0.44733620143E+03  0.46530085195E+03  0.80071626074E+02 0.  0.
          5    1    3    3  501    0  0.53554136777E+01  0.99034081423E+02  0.46666104764E+02  0.10970982213E+03  0.47000000000E+01 0. -1.
        -11    1    4    4    0    0 -0.17157488614E+02 -0.27853297408E+02 -0.23282264426E+02  0.40152825913E+02  0.00000000000E+00 0.  1.
         12    1    4    4    0    0  0.15274415331E+02  0.99749296598E+01  0.40648003863E+02  0.44554093004E+02  0.00000000000E+00 0. -1.
         -5    1    5    5    0  502  0.16463376849E+02  0.16753977294E+02  0.32859523048E+01  0.24179040820E+02  0.47000000000E+01 0.  1.
         11    1    6    6    0    0 -0.31498434742E+02 -0.28137315793E+02  0.28657192476E+03  0.28966761641E+03  0.00000000000E+00 0. -1.
        -12    1    6    6    0    0  0.11562717498E+02 -0.69772375176E+02  0.16076427667E+03  0.17563323554E+03  0.00000000000E+00 0.  1.
</event>
<event>
12    1  0.8462562E-002  0.6032350E+03  0.7818608E-02  0.9899025E-01
         21   -1    0    0  503  502  0.00000000000E+00  0.00000000000E+00  0.96095072258E+03  0.96095072258E+03  0.00000000000E+00 0. -1.
         21   -1    0    0  501  503 -0.00000000000E+00 -0.00000000000E+00 -0.71360113355E+03  0.71360113355E+03  0.00000000000E+00 0.  1.
          6    2    1    2  501    0 -0.10929592752E+03  0.56758807553E+03 -0.45021828409E+03  0.75272101906E+03  0.17259955371E+03 0.  0.
         24    2    3    3    0    0 -0.27179659973E+02  0.13221243672E+03 -0.15684194192E+03  0.22132023206E+03  0.78513616892E+02 0.  0.
         -6    2    1    2    0  502  0.10929592752E+03 -0.56758807553E+03  0.69756787313E+03  0.92183083707E+03  0.17049730580E+03 0.  0.
        -24    2    5    5    0    0  0.14314598100E+03 -0.41394622049E+03  0.52964653465E+03  0.69167586393E+03  0.77767626597E+02 0.  0.
          5    1    3    3  501    0 -0.82116267550E+02  0.43537563881E+03 -0.29337634218E+03  0.53140078700E+03  0.47000000000E+01 0. -1.
        -13    1    4    4    0    0 -0.31700093732E+02  0.13241553863E+03 -0.11214608525E+03  0.17639590486E+03  0.00000000000E+00 0.  1.
         14    1    4    4    0    0  0.45204337584E+01 -0.20310191467E+00 -0.44695856664E+02  0.44924327203E+02  0.00000000000E+00 0. -1.
         -5    1    5    5    0  502 -0.33850053477E+02 -0.15364185505E+03  0.16792133848E+03  0.23015497314E+03  0.47000000000E+01 0.  1.
         13    1    6    6    0    0  0.12192444003E+03 -0.35977137582E+03  0.49499464758E+03  0.62395569800E+03  0.00000000000E+00 0. -1.
        -14    1    6    6    0    0  0.21221540970E+02 -0.54174844669E+02  0.34651887067E+02  0.67720165928E+02  0.00000000000E+00 0.  1.
</event>
<event>
12    1  0.8462562E-002  0.2079361E+03  0.7818608E-02  0.1143486E+00
         21   -1    0    0  503  502  0.00000000000E+00  0.00000000000E+00  0.29449209335E+03  0.29449209335E+03  0.00000000000E+00 0.  1.
         21   -1    0    0  501  503 -0.00000000000E+00 -0.00000000000E+00 -0.15956494830E+03  0.15956494830E+03  0.00000000000E+00 0.  1.
          6    2    1    2  501    0 -0.43237306943E+02 -0.10588936354E+03  0.11266950869E+01  0.20793912397E+03  0.17365306738E+03 0.  0.
         24    2    3    3    0    0  0.47350384435E+01 -0.53785939147E+02  0.62001242060E+02  0.11443023014E+03  0.79591304261E+02 0.  0.
         -6    2    1    2    0  502  0.43237306943E+02  0.10588936354E+03  0.13380044997E+03  0.24611791768E+03  0.17201583349E+03 0.  0.
        -24    2    5    5    0    0  0.21284082858E+02 -0.11475257798E+02  0.74328067253E+02  0.11264337818E+03  0.81112115873E+02 0.  0.
          5    1    3    3  501    0 -0.47972345386E+02 -0.52103424394E+02 -0.60874546973E+02  0.93508893826E+02  0.47000000000E+01 0. -1.
        -13    1    4    4    0    0 -0.36998112843E+02 -0.29305414359E+02  0.36980215973E+02  0.59960020331E+02  0.00000000000E+00 0.  1.
         14    1    4    4    0    0  0.41733151286E+02 -0.24480524788E+02  0.25021026088E+02  0.54470209809E+02  0.00000000000E+00 0. -1.
         -5    1    5    5    0  502  0.21953224084E+02  0.11736462134E+03  0.59472382718E+02  0.13347453950E+03  0.47000000000E+01 0.  1.
         13    1    6    6    0    0 -0.28781512912E+02  0.70182003879E+01  0.37538602955E+02  0.47820260707E+02  0.00000000000E+00 0. -1.
        -14    1    6    6    0    0  0.50065595770E+02 -0.18493458186E+02  0.36789464297E+02  0.64823117472E+02  0.00000000000E+00 0.  1.
</event>
<event>
12    1  0.8462562E-002  0.1892823E+03  0.7818608E-02  0.1159670E+00
         21   -1    0    0  501  502  0.00000000000E+00  0.00000000000E+00  0.59536374826E+03  0.59536374826E+03  0.00000000000E+00 0.  1.
         21   -1    0    0  502  503 -0.00000000000E+00 -0.00000000000E+00 -0.64902258730E+02  0.64902258730E+02  0.00000000000E+00 0.  1.
         -6    2    1    2    0  503 -0.63907999887E+02  0.40829116502E+02  0.16753747721E+03  0.25094753419E+03  0.17074720918E+03 0.  0.
        -24    2    3    3    0    0 -0.56218684128E+02 -0.35788292222E+02  0.67243602841E+02  0.12441570368E+03  0.80723124901E+02 0.  0.
          6    2    1    2  501    0  0.63907999887E+02 -0.40829116502E+02  0.36292401231E+03  0.40931847280E+03  0.17342584656E+03 0.  0.
         24    2    5    5    0    0  0.59123323989E+02 -0.76899703530E+02  0.16145343806E+03  0.20453453138E+03  0.79737256176E+02 0.  0.
          5    1    5    5  501    0  0.47846758989E+01  0.36070587028E+02  0.20147057425E+03  0.20478394142E+03  0.47000000000E+01 0. -1.
        -13    1    6    6    0    0  0.60635613216E+02 -0.69630412778E+02  0.16985132836E+03  0.19332497438E+03  0.00000000000E+00 0.  1.
         14    1    6    6    0    0 -0.15122892276E+01 -0.72692907520E+01 -0.83978902960E+01  0.11209557001E+02  0.00000000000E+00 0. -1.
         -5    1    3    3    0  503 -0.76893157600E+01  0.76617408723E+02  0.10029387437E+03  0.12653183051E+03  0.47000000000E+01 0.  1.
         11    1    4    4    0    0 -0.16551130707E+02 -0.55221251874E+02  0.52149540994E+02  0.77736099800E+02  0.00000000000E+00 0. -1.
        -12    1    4    4    0    0 -0.39667553421E+02  0.19432959653E+02  0.15094061847E+02  0.46679603879E+02  0.00000000000E+00 0.  1.
</event>
<event>
12    1  0.8462562E-002  0.1970852E+03  0.7818608E-02  0.1152937E+00
         21   -1    0    0  503  502  0.00000000000E+00  0.00000000000E+00  0.36609030018E+03  0.36609030018E+03  0.00000000000E+00 0. -1.
         21   -1    0    0  501  503 -0.00000000000E+00 -0.00000000000E+00 -0.21975718012E+03  0.21975718012E+03  0.00000000000E+00 0.  1.
          6    2    1    2  501    0  0.59572191121E+02  0.72076035807E+02 -0.13941330823E+03  0.23872559695E+03  0.16973520329E+03 0.  0.
         24    2    3    3    0    0  0.84402729566E+02  0.46163174977E+02 -0.15210417879E+03  0.20036963012E+03  0.88076375876E+02 0.  0.
         -6    2    1    2    0  502 -0.59572191121E+02 -0.72076035807E+02  0.28574642829E+03  0.34712188335E+03  0.17348999892E+03 0.  0.
        -24    2    5    5    0    0  0.20077936310E+02 -0.74962235472E+02  0.19718533556E+03  0.22788417919E+03  0.83825308161E+02 0.  0.
          5    1    3    3  501    0 -0.24830538445E+02  0.25912860830E+02  0.12690870559E+02  0.38355966829E+02  0.47000000000E+01 0. -1.
        -11    1    4    4    0    0  0.59721450053E+02  0.17560475094E+02 -0.23842094906E+02  0.66659338216E+02  0.00000000000E+00 0.  1.
         12    1    4    4    0    0  0.24681279513E+02  0.28602699882E+02 -0.12826208388E+03  0.13371029191E+03  0.00000000000E+00 0. -1.
         -5    1    5    5    0  502 -0.79650127431E+02  0.28861996651E+01  0.88561092725E+02  0.11923770416E+03  0.47000000000E+01 0.  1.
         11    1    6    6    0    0 -0.42988149218E+01 -0.55409644532E+02  0.18689625671E+03  0.19498440781E+03  0.00000000000E+00 0. -1.
        -12    1    6    6    0    0  0.24376751232E+02 -0.19552590939E+02  0.10289078858E+02  0.32899771379E+02  0.00000000000E+00 0.  1.
</event>
<event>
12    1  0.8462562E-002  0.1807989E+03  0.7818608E-02  0.1167557E+00
         21   -1    0    0  503  502  0.00000000000E+00  0.00000000000E+00  0.31364209506E+02  0.31364209506E+02  0.00000000000E+00 0. -1.
         21   -1    0    0  501  503 -0.00000000000E+00 -0.00000000000E+00 -0.10610784279E+04  0.10610784279E+04  0.00000000000E+00 0. -1.
          6    2    1    2  501    0 -0.53581061586E+02  0.57331110049E+01 -0.60570291488E+03  0.63149380169E+03  0.17030737436E+03 0.  0.
         24    2    3    3    0    0  0.14992227710E+02  0.31665522193E+02 -0.45902080206E+03  0.46744344913E+03  0.81091363429E+02 0.  0.
         -6    2    1    2    0  502  0.53581061586E+02 -0.57331110049E+01 -0.42401130352E+03  0.46094883572E+03  0.17258170504E+03 0.  0.
        -24    2    5    5    0    0  0.19982080579E+02  0.11540302793E+02 -0.41245046798E+03  0.42116183700E+03  0.82033177883E+02 0.  0.
          5    1    3    3  501    0 -0.68573289297E+02 -0.25932411188E+02 -0.14668211282E+03  0.16405035256E+03  0.47000000000E+01 0. -1.
        -11    1    4    4    0    0  0.39000028478E+02 -0.80946593511E+01 -0.16269952835E+03  0.16750421564E+03  0.00000000000E+00 0.  1.
         12    1    4    4    0    0 -0.24007800768E+02  0.39760181544E+02 -0.29632127371E+03  0.29993923349E+03  0.00000000000E+00 0. -1.
         -5    1    5    5    0  502  0.33598981008E+02 -0.17273413798E+02 -0.11560835542E+02  0.39786998723E+02  0.47000000000E+01 0.  1.
         13    1    6    6    0    0  0.48250899506E+02 -0.35518958553E+01 -0.31185248513E+03  0.31558317089E+03  0.00000000000E+00 0. -1.
        -14    1    6    6    0    0 -0.28268818928E+02  0.15092198648E+02 -0.10059798286E+03  0.10557866611E+03  0.00000000000E+00 0.  1.
</event>
<event>
12    1  0.8462562E-002  0.1951318E+03  0.7818608E-02  0.1154157E+00
         21   -1    0    0  501  502  0.00000000000E+00  0.00000000000E+00  0.80565806432E+02  0.80565806432E+02  0.00000000000E+00 0.  1.
         21   -1    0    0  502  503 -0.00000000000E+00 -0.00000000000E+00 -0.51327457927E+03  0.51327457927E+03  0.00000000000E+00 0.  1.
         -6    2    1    2    0  503 -0.64717546812E+02 -0.63291123078E+02 -0.12948155907E+03  0.23325313594E+03  0.17160251793E+03 0.  0.
        -24    2    3    3    0    0 -0.16713624880E+02 -0.85385676119E+02 -0.13642837949E+03  0.17974711656E+03  0.78270455723E+02 0.  0.
          6    2    1    2  501    0  0.64717546812E+02  0.63291123078E+02 -0.30322721377E+03  0.36058724977E+03  0.17286496001E+03 0.  0.
         24    2    5    5    0    0 -0.11904623323E+02  0.70952208021E+02 -0.23120217935E+03  0.25504415543E+03  0.80107038420E+02 0.  0.
          5    1    5    5  501    0  0.76622170136E+02 -0.76610849429E+01 -0.72025034424E+02  0.10554309434E+03  0.47000000000E+01 0. -1.
        -13    1    6    6    0    0  0.18052392908E+02 -0.91798481692E+01 -0.65529514273E+02  0.68587722976E+02  0.00000000000E+00 0.  1.
         14    1    6    6    0    0 -0.29957016231E+02  0.80132056190E+02 -0.16567266508E+03  0.18645643246E+03  0.00000000000E+00 0. -1.
         -5    1    3    3    0  503 -0.48003921932E+02  0.22094553041E+02  0.69468204235E+01  0.53506019371E+02  0.47000000000E+01 0.  1.
         11    1    4    4    0    0  0.26215822676E+02 -0.40827282589E+02 -0.31229043958E+02  0.57700862633E+02  0.00000000000E+00 0. -1.
        -12    1    4    4    0    0 -0.42929447556E+02 -0.44558393531E+02 -0.10519933554E+03  0.12204625393E+03  0.00000000000E+00 0.  1.
</event>
<event>
12    1  0.8462562E-002  0.2382174E+03  0.7818608E-02  0.1121608E+00
         21   -1    0    0  501  502  0.00000000000E+00  0.00000000000E+00  0.19938185336E+03  0.19938185336E+03  0.00000000000E+00 0. -1.
         21   -1    0    0  502  503 -0.00000000000E+00 -0.00000000000E+00 -0.48655423650E+03  0.48655423650E+03  0.00000000000E+00 0.  1.
         -6    2    1    2    0  503  0.16276955497E+03  0.26720859106E+02 -0.36626779375E+03  0.43493085091E+03  0.16674776160E+03 0.  0.
        -24    2    3    3    0    0  0.16652613167E+02  0.11834282978E+02 -0.16824038751E+03  0.18833662054E+03  0.82149223169E+02 0.  0.
          6    2    1    2  501    0 -0.16276955497E+03 -0.26720859106E+02  0.79095410609E+02  0.25100523895E+03  0.17187092152E+03 0.  0.
         24    2    5    5    0    0 -0.13089079595E+03 -0.14559882511E+02 -0.10794426193E+02  0.15474300654E+03  0.80526317388E+02 0.  0.
          5    1    5    5  501    0 -0.31878759022E+02 -0.12160976595E+02  0.89889836802E+02  0.96262232412E+02  0.47000000000E+01 0. -1.
        -13    1    6    6    0    0 -0.91876213525E+02 -0.17926343799E+01 -0.44055922559E+02  0.10190866726E+03  0.00000000000E+00 0.  1.
         14    1    6    6    0    0 -0.39014582427E+02 -0.12767248131E+02  0.33261496365E+02  0.52834339281E+02  0.00000000000E+00 0. -1.
         -5    1    3    3    0  503  0.14611694181E+03  0.14886576128E+02 -0.19802740623E+03  0.24659423037E+03  0.47000000000E+01 0.  1.
         13    1    4    4    0    0  0.17448914432E+02 -0.34298514777E+02 -0.79003499517E+02  0.87877219271E+02  0.00000000000E+00 0. -1.
        -14    1    4    4    0    0 -0.79630126473E+00  0.46132797755E+02 -0.89236887997E+02  0.10045940127E+03  0.00000000000E+00 0.  1.
</event>
<event>
12    1  0.8462562E-002  0.3396221E+03  0.7818608E-02  0.1067006E+00
         21   -1    0    0  503  502  0.00000000000E+00  0.00000000000E+00  0.37835809382E+03  0.37835809382E+03  0.00000000000E+00 0. -1.
         21   -1    0    0  501  503 -0.00000000000E+00 -0.00000000000E+00 -0.34736764103E+03  0.34736764103E+03  0.00000000000E+00 0.  1.
          6    2    1    2  501    0 -0.11681996400E+03 -0.26846172928E+03 -0.11207158990E+03  0.35720179408E+03  0.17121470835E+03 0.  0.
         24    2    3    3    0    0 -0.48669344122E+02 -0.79811837467E+02  0.92516803874E+01  0.12273492097E+03  0.78991346231E+02 0.  0.
         -6    2    1    2    0  502  0.11681996400E+03  0.26846172928E+03  0.14306204269E+03  0.36852394077E+03  0.17211781657E+03 0.  0.
        -24    2    5    5    0    0  0.19018469760E+02  0.49727026404E+02  0.15519103636E+02  0.97047802181E+02  0.79642664342E+02 0.  0.
          5    1    3    3  501    0 -0.68150619882E+02 -0.18864989181E+03 -0.12132327029E+03  0.23446687311E+03  0.47000000000E+01 0. -1.
        -11    1    4    4    0    0 -0.11017431913E+02  0.98338676820E+00 -0.24925549291E+02  0.27269650950E+02  0.00000000000E+00 0.  1.
         12    1    4    4    0    0 -0.37651912209E+02 -0.80795224235E+02  0.34177229678E+02  0.95465270023E+02  0.00000000000E+00 0. -1.
         -5    1    5    5    0  502  0.97801494244E+02  0.21873470287E+03  0.12754293906E+03  0.27147613858E+03  0.47000000000E+01 0.  1.
         11    1    6    6    0    0  0.55224343111E+00  0.58343171843E+02  0.35673250774E+02  0.68387217331E+02  0.00000000000E+00 0. -1.
        -12    1    6    6    0    0  0.18466226329E+02 -0.86161454391E+01 -0.20154147138E+02  0.28660584850E+02  0.00000000000E+00 0.  1.
</event>
<event>
12    1  0.8462562E-002  0.2979090E+03  0.7818608E-02  0.1086345E+00
         21   -1    0    0  501  502  0.00000000000E+00  0.00000000000E+00  0.11831563602E+03  0.11831563602E+03  0.00000000000E+00 0. -1.
         21   -1    0    0  502  503 -0.00000000000E+00 -0.00000000000E+00 -0.92830192042E+03  0.92830192042E+03  0.00000000000E+00 0.  1.
         -6    2    1    2    0  503  0.24200334120E+03  0.23744568355E+02 -0.63472592395E+03  0.70097907383E+03  0.17136289486E+03 0.  0.
        -24    2    3    3    0    0  0.34947584250E+02  0.10346685470E+02 -0.21410833469E+03  0.23194513460E+03  0.81411172064E+02 0.  0.
          6    2    1    2  501    0 -0.24200334120E+03 -0.23744568355E+02 -0.17526036045E+03  0.34563848261E+03  0.17210562175E+03 0.  0.
         24    2    5    5    0    0 -0.18783659016E+03 -0.11907733353E+02 -0.19828386974E+03  0.28541955235E+03  0.81996641097E+02 0.  0.
          5    1    5    5  501    0 -0.54166751045E+02 -0.11836835002E+02  0.23023509290E+02  0.60218930260E+02  0.47000000000E+01 0. -1.
        -13    1    6    6    0    0 -0.19812389299E+02  0.11402788190E+02  0.20063159310E+01  0.22947323414E+02  0.00000000000E+00 0.  1.
         14    1    6    6    0    0 -0.16802420086E+03 -0.23310521543E+02 -0.20029018567E+03  0.26247222894E+03  0.00000000000E+00 0. -1.
         -5    1    3    3    0  503  0.20705575695E+03  0.13397882886E+02 -0.42061758927E+03  0.46903393923E+03  0.47000000000E+01 0.  1.
         13    1    4    4    0    0 -0.17635725514E+02  0.26289843229E+02 -0.53117146046E+02  0.61835312528E+02  0.00000000000E+00 0. -1.
        -14    1    4    4    0    0  0.52583309764E+02 -0.15943157759E+02 -0.16099118864E+03  0.17010982207E+03  0.00000000000E+00 0.  1.
</event>
<event>
12    1  0.8462562E-002  0.2932913E+03  0.7818608E-02  0.1088701E+00
         21   -1    0    0  501  502  0.00000000000E+00  0.00000000000E+00  0.34946584152E+03  0.34946584152E+03  0.00000000000E+00 0.  1.
         21   -1    0    0  502  503 -0.00000000000E+00 -0.00000000000E+00 -0.27399929124E+03  0.27399929124E+03  0.00000000000E+00 0.  1.
         -6    2    1    2    0  503 -0.17858764871E+03  0.15595462037E+03  0.13782046052E+03  0.32405905667E+03  0.17263951165E+03 0.  0.
        -24    2    3    3    0    0 -0.14095608323E+03  0.18259964816E+03  0.13125828224E+03  0.27724832702E+03  0.80166384932E+02 0.  0.
          6    2    1    2  501    0  0.17858764871E+03 -0.15595462037E+03 -0.62353910244E+02  0.29940607609E+03  0.17187378039E+03 0.  0.
         24    2    5    5    0    0  0.10389826160E+03 -0.11775807270E+02 -0.36987314125E+02  0.13499321499E+03  0.76951856940E+02 0.  0.
          5    1    5    5  501    0  0.74689387110E+02 -0.14417881310E+03 -0.25366596120E+02  0.16441286110E+03  0.47000000000E+01 0. -1.
        -13    1    6    6    0    0 -0.69220490008E+01  0.59298508915E+01 -0.19350895208E+02  0.21390068708E+02  0.00000000000E+00 0.  1.
         14    1    6    6    0    0  0.11082031061E+03 -0.17705658161E+02 -0.17636418916E+02  0.11360314628E+03  0.00000000000E+00 0. -1.
         -5    1    3    3    0  503 -0.37631565483E+02 -0.26645027785E+02  0.65621782790E+01  0.46810729648E+02  0.47000000000E+01 0.  1.
         13    1    4    4    0    0 -0.14768675607E+02  0.17240435290E+01 -0.75323855905E+01  0.16668021417E+02  0.00000000000E+00 0. -1.
        -14    1    4    4    0    0 -0.12618740762E+03  0.18087560463E+03  0.13879066783E+03  0.26058030561E+03  0.00000000000E+00 0.  1.
</event>
<event>
12    1  0.8462562E-002  0.2046148E+03  0.7818608E-02  0.1146816E+00
         21   -1    0    0  503  502  0.00000000000E+00  0.00000000000E+00  0.34436963759E+03  0.34436963759E+03  0.00000000000E+00 0. -1.
         21   -1    0    0  501  503 -0.00000000000E+00 -0.00000000000E+00 -0.12666709439E+03  0.12666709439E+03  0.00000000000E+00 0. -1.
          6    2    1    2  501    0  0.94820755240E+02 -0.61971611142E+02  0.16578422709E+03  0.25993791474E+03  0.16508135376E+03 0.  0.
         24    2    3    3    0    0  0.14934402587E+02  0.24355629237E+02  0.70426280312E+02  0.10844715666E+03  0.77360789635E+02 0.  0.
         -6    2    1    2    0  502 -0.94820755240E+02  0.61971611142E+02  0.51918316112E+02  0.21109881724E+03  0.17039877606E+03 0.  0.
        -24    2    5    5    0    0  0.10532236721E+02  0.51346361663E+01  0.34909420414E+02  0.90098457026E+02  0.82229993470E+02 0.  0.
          5    1    3    3  501    0  0.79886352653E+02 -0.86327240378E+02  0.95357946773E+02  0.15149075808E+03  0.47000000000E+01 0. -1.
        -13    1    4    4    0    0  0.44739207379E+02  0.26168119423E+02  0.51666435951E+02  0.73183247775E+02  0.00000000000E+00 0.  1.
         14    1    4    4    0    0 -0.29804804792E+02 -0.18124901861E+01  0.18759844361E+02  0.35263908885E+02  0.00000000000E+00 0. -1.
         -5    1    5    5    0  502 -0.10535299196E+03  0.56836974975E+02  0.17008895698E+02  0.12100036022E+03  0.47000000000E+01 0.  1.
         13    1    6    6    0    0 -0.26875304805E+02  0.26908576137E+02  0.72029703808E+01  0.38707056984E+02  0.00000000000E+00 0. -1.
        -14    1    6    6    0    0  0.37407541526E+02 -0.21773939971E+02  0.27706450033E+02  0.51391400042E+02  0.00000000000E+00 0.  1.
</event>
<event>
12    1  0.8462562E-002  0.1794735E+03  0.7818608E-02  0.1168335E+00
         21   -1    0    0  501  502  0.00000000000E+00  0.00000000000E+00  0.24446760690E+03  0.24446760690E+03  0.00000000000E+00 0. -1.
         21   -1    0    0  502  503 -0.00000000000E+00 -0.00000000000E+00 -0.13505447578E+03  0.13505447578E+03  0.00000000000E+00 0. -1.
         -6    2    1    2    0  503  0.51927903290E+02  0.87940298473E+01  0.24792725840E+02  0.18117782480E+03  0.17157180084E+03 0.  0.
        -24    2    3    3    0    0  0.92356709245E+02 -0.11879727081E+02 -0.15112380922E+02  0.12054449962E+03  0.75044671193E+02 0.  0.
          6    2    1    2  501    0 -0.51927903290E+02 -0.87940298473E+01  0.84620405274E+02  0.19834425788E+03  0.17148174697E+03 0.  0.
         24    2    5    5    0    0 -0.60848111781E+02  0.53287835837E+02  0.37809409986E+02  0.11994089413E+03  0.80088578751E+02 0.  0.
          5    1    5    5  501    0  0.89202084910E+01 -0.62081865684E+02  0.46810995288E+02  0.78403363743E+02  0.47000000000E+01 0. -1.
        -11    1    6    6    0    0 -0.12432503845E+02 -0.12053125556E+02 -0.15054741123E+02  0.22945374649E+02  0.00000000000E+00 0.  1.
         12    1    6    6    0    0 -0.48415607936E+02  0.65340961392E+02  0.52864151109E+02  0.96995519484E+02  0.00000000000E+00 0. -1.
         -5    1    3    3    0  503 -0.40428805955E+02  0.20673756928E+02  0.39905106763E+02  0.60633325179E+02  0.47000000000E+01 0.  1.
         11    1    4    4    0    0  0.44332547888E+02  0.29540658242E+02  0.62172788093E+01  0.53634688844E+02  0.00000000000E+00 0. -1.
        -12    1    4    4    0    0  0.48024161357E+02 -0.41420385323E+02 -0.21329659732E+02  0.66909810780E+02  0.00000000000E+00 0.  1.
</event>
<event>
12    1  0.8462562E-002  0.1860276E+03  0.7818608E-02  0.1164765E+00
         21   -1    0    0  503  502  0.00000000000E+00  0.00000000000E+00  0.28816253542E+03  0.28816253542E+03  0.00000000000E+00 0. -1.
         21   -1    0    0  501  503 -0.00000000000E+00 -0.00000000000E+00 -0.39993810495E+03  0.39993810495E+03  0.00000000000E+00 0. -1.
          6    2    1    2  501    0 -0.92778148525E+01 -0.67031511815E+02 -0.34775514785E+03  0.39438546674E+03  0.17328286728E+03 0.  0.
         24    2    3    3    0    0 -0.65088618097E+01 -0.10522272937E+03 -0.32169588120E+03  0.34782999899E+03  0.79895432638E+02 0.  0.
         -6    2    1    2    0  502  0.92778148525E+01  0.67031511815E+02  0.23597957833E+03  0.29371517364E+03  0.16125427254E+03 0.  0.
        -24    2    5    5    0    0 -0.13712176998E+02  0.69073964394E+02  0.74123195855E+02  0.13015390107E+03  0.80539142311E+02 0.  0.
          5    1    3    3  501    0 -0.27689530429E+01  0.38191217553E+02 -0.26059266653E+02  0.46555467753E+02  0.47000000000E+01 0. -1.
        -13    1    4    4    0    0 -0.12417037238E+02 -0.17301493250E+02 -0.92901632624E+01  0.23234276745E+02  0.00000000000E+00 0.  1.
         14    1    4    4    0    0  0.59081754282E+01 -0.87921236118E+02 -0.31240571794E+03  0.32459572224E+03  0.00000000000E+00 0. -1.
         -5    1    5    5    0  502  0.22989991850E+02 -0.20424525794E+01  0.16185638247E+03  0.16356127257E+03  0.47000000000E+01 0.  1.
         13    1    6    6    0    0 -0.15634366554E+02 -0.14326867350E+02  0.49338443613E+01  0.21772353244E+02  0.00000000000E+00 0. -1.
        -14    1    6    6    0    0  0.19221895562E+01  0.83400831744E+02  0.69189351494E+02  0.10838154782E+03  0.00000000000E+00 0.  1.
</event>
<event>
12    1  0.8462562E-002  0.1904124E+03  0.7818608E-02  0.1158455E+00
         21   -1    0    0  501  502  0.00000000000E+00  0.00000000000E+00  0.47581185197E+03  0.47581185197E+03  0.00000000000E+00 0.  1.
         21   -1    0    0  502  503 -0.00000000000E+00 -0.00000000000E+00 -0.92075206844E+02  0.92075206844E+02  0.00000000000E+00 0.  1.
         -6    2    1    2    0  503  0.74480625916E+02 -0.33997053206E+02  0.72267592781E+02  0.20366512448E+03  0.17191193879E+03 0.  0.
        -24    2    3    3    0    0  0.57056214180E+00 -0.57587053228E+02  0.79521168512E+02  0.12560175286E+03  0.78330005988E+02 0.  0.
          6    2    1    2  501    0 -0.74480625916E+02  0.33997053206E+02  0.31146905235E+03  0.36422193434E+03  0.17012196689E+03 0.  0.
         24    2    5    5    0    0 -0.88361075966E+02  0.70233865848E+02  0.17916913359E+03  0.22626856545E+03  0.79720823015E+02 0.  0.
          5    1    5    5  501    0  0.13880450050E+02 -0.36236812642E+02  0.13229991876E+03  0.13795336889E+03  0.47000000000E+01 0. -1.
        -11    1    6    6    0    0 -0.90791855326E+02  0.50101258293E+02  0.98263129162E+02  0.14285986010E+03  0.00000000000E+00 0.  1.
         12    1    6    6    0    0  0.24307793606E+01  0.20132607555E+02  0.80906004426E+02  0.83408705346E+02  0.00000000000E+00 0. -1.
         -5    1    3    3    0  503  0.73910063774E+02  0.23590000022E+02 -0.72535757316E+01  0.78063371622E+02  0.47000000000E+01 0.  1.
         13    1    4    4    0    0  0.26690193102E+02 -0.52497155399E+02  0.23175836396E+02  0.63288522857E+02  0.00000000000E+00 0. -1.
        -14    1    4    4    0    0 -0.26119630961E+02 -0.50898978292E+01  0.56345332117E+02  0.62313229998E+02  0.00000000000E+00 0.  1.
</event>
<event>
12    1  0.8462562E-002  0.1845121E+03  0.7818608E-02  0.1164390E+00
         21   -1    0    0  501  502  0.00000000000E+00  0.00000000000E+00  0.19804337805E+03  0.19804337805E+03  0.00000000000E+00 0.  1.
         21   -1    0    0  502  503 -0.00000000000E+00 -0.00000000000E+00 -0.17723948620E+03  0.17723948620E+03  0.00000000000E+00 0.  1.
         -6    2    1    2    0  503 -0.23374754567E+02  0.60413728875E+02 -0.31488891262E+02  0.18350369862E+03  0.16877754397E+03 0.  0.
        -24    2    3    3    0    0 -0.11809697197E+02  0.80912049500E+02  0.29475115044E+02  0.11798551973E+03  0.79784533319E+02 0.  0.
          6    2    1    2  501    0  0.23374754567E+02 -0.60413728875E+02  0.52292783112E+02  0.19177916562E+03  0.17276722899E+03 0.  0.
         24    2    5    5    0    0 -0.23140132531E+02  0.23790999281E+02  0.41683370290E+02  0.94883754968E+02  0.78510803192E+02 0.  0.
          5    1    5    5  501    0  0.46514887098E+02 -0.84204728157E+02  0.10609412822E+02  0.96895410655E+02  0.47000000000E+01 0. -1.
        -13    1    6    6    0    0  0.79525336740E+01 -0.15760801448E+02 -0.11972727717E+02  0.21330538275E+02  0.00000000000E+00 0.  1.
         14    1    6    6    0    0 -0.31092666205E+02  0.39551800729E+02  0.53656098007E+02  0.73553216694E+02  0.00000000000E+00 0. -1.
         -5    1    3    3    0  503 -0.11565057370E+02 -0.20498320625E+02 -0.60964006306E+02  0.65518178892E+02  0.47000000000E+01 0.  1.
         13    1    4    4    0    0 -0.34881506219E+01  0.32777292651E+02  0.54046406682E+02  0.63305072337E+02  0.00000000000E+00 0. -1.
        -14    1    4    4    0    0 -0.83215465755E+01  0.48134756849E+02 -0.24571291639E+02  0.54680447393E+02  0.00000000000E+00 0.  1.
</event>
<event>
12    1  0.8462562E-002  0.2275073E+03  0.7818608E-02  0.1128561E+00
         21   -1    0    0  501  502  0.00000000000E+00  0.00000000000E+00  0.18753750412E+03  0.18753750412E+03  0.00000000000E+00 0.  1.
         21   -1    0    0  502  503 -0.00000000000E+00 -0.00000000000E+00 -0.28776219986E+03  0.28776219986E+03  0.00000000000E+00 0.  1.
         -6    2    1    2    0  503 -0.10676179083E+03  0.10239750977E+03 -0.10016343982E+03  0.24779239462E+03  0.17171204433E+03 0.  0.
        -24    2    3    3    0    0 -0.82381329166E+01  0.90362991183E+02 -0.85980945321E+02  0.14741822485E+03  0.78141365813E+02 0.  0.
          6    2    1    2  501    0  0.10676179083E+03 -0.10239750977E+03 -0.61255927076E-01  0.22750730935E+03  0.17284745317E+03 0.  0.
         24    2    5    5    0    0  0.85460636639E+02 -0.14024445275E+03 -0.80695911389E+01  0.18309612050E+03  0.80542188304E+02 0.  0.
          5    1    5    5  501    0  0.21301154192E+02  0.37846942979E+02  0.80083352118E+01  0.44411188856E+02  0.47000000000E+01 0. -1.
        -11    1    6    6    0    0  0.82713150945E+02 -0.62127399757E+02 -0.15403322151E+02  0.10458748239E+03  0.00000000000E+00 0.  1.
         12    1    6    6    0    0  0.27474856943E+01 -0.78117052995E+02  0.73337310126E+01  0.78508638104E+02  0.00000000000E+00 0. -1.
         -5    1    3    3    0  503 -0.98523657915E+02  0.12034518590E+02 -0.14182494494E+02  0.10037416977E+03  0.47000000000E+01 0.  1.
         11    1    4    4    0    0 -0.20893843510E+02 -0.60024113132E+01 -0.94180803046E+01  0.23691388199E+02  0.00000000000E+00 0. -1.
        -12    1    4    4    0    0  0.12655710593E+02  0.96365402496E+02 -0.76562865016E+02  0.12372683665E+03  0.00000000000E+00 0.  1.
</event>
<event>
12    1  0.8462562E-002  0.1814954E+03  0.7818608E-02  0.1166453E+00
         21   -1    0    0  503  502  0.00000000000E+00  0.00000000000E+00  0.70332874576E+03  0.70332874576E+03  0.00000000000E+00 0.  1.
         21   -1    0    0  501  503 -0.00000000000E+00 -0.00000000000E+00 -0.70531357855E+02  0.70531357855E+02  0.00000000000E+00 0.  1.
          6    2    1    2  501    0  0.57295194092E+02 -0.15408167745E+02  0.54134097194E+03  0.57095589425E+03  0.17152385952E+03 0.  0.
         24    2    3    3    0    0  0.72727723324E+02  0.42055450161E+02  0.29511609720E+03  0.31760039445E+03  0.81966560864E+02 0.  0.
         -6    2    1    2    0  502 -0.57295194092E+02  0.15408167745E+02  0.91456415966E+02  0.20290420936E+03  0.17113062629E+03 0.  0.
        -24    2    5    5    0    0 -0.93519090177E+02  0.76554828141E+01  0.10661621124E+03  0.16260304109E+03  0.79172633076E+02 0.  0.
          5    1    3    3  501    0 -0.15432529232E+02 -0.57463617906E+02  0.24622487474E+03  0.25335549980E+03  0.47000000000E+01 0. -1.
        -13    1    4    4    0    0  0.13250714127E+02 -0.15617478970E+02  0.14234721857E+03  0.14381313469E+03  0.00000000000E+00 0.  1.
         14    1    4    4    0    0  0.59477009197E+02  0.57672929131E+02  0.15276887863E+03  0.17378725976E+03  0.00000000000E+00 0. -1.
         -5    1    5    5    0  502  0.36223896085E+02  0.77526849305E+01 -0.15159795272E+02  0.40301168270E+02  0.47000000000E+01 0.  1.
         13    1    6    6    0    0 -0.28001398215E+02  0.24034909776E+02  0.60363998651E+00  0.36906904113E+02  0.00000000000E+00 0. -1.
        -14    1    6    6    0    0 -0.65517691961E+02 -0.16379426962E+02  0.10601257125E+03  0.12569613698E+03  0.00000000000E+00 0.  1.
</event>
<event>
12    1  0.8462562E-002  0.2575713E+03  0.7818608E-02  0.1110775E+00
         21   -1    0    0  503  502  0.00000000000E+00  0.00000000000E+00  0.69239310991E+03  0.69239310991E+03  0.00000000000E+00 0.  1.
         21   -1    0    0  501  503 -0.00000000000E+00 -0.00000000000E+00 -0.14420299222E+03  0.14420299222E+03  0.00000000000E+00 0.  1.
          6    2    1    2  501    0 -0.19234261167E+03 -0.42560380222E+01  0.24224549221E+02  0.25870792540E+03  0.17125760641E+03 0.  0.
         24    2    3    3    0    0 -0.17273772566E+03 -0.89302235645E+01 -0.37173861345E+02  0.19391553089E+03  0.79393113010E+02 0.  0.
         -6    2    1    2    0  502  0.19234261167E+03  0.42560380222E+01  0.52396556847E+03  0.57788817674E+03  0.14966974893E+03 0.  0.
        -24    2    5    5    0    0  0.10119377738E+03 -0.41047803894E+02  0.21327793335E+03  0.25091807917E+03  0.74480217616E+02 0.  0.
          5    1    3    3  501    0 -0.19604886008E+02  0.46741855423E+01  0.61398410566E+02  0.64792394507E+02  0.47000000000E+01 0. -1.
        -11    1    4    4    0    0 -0.13696221998E+03 -0.58916115664E+01  0.66642017169E+01  0.13725076457E+03  0.00000000000E+00 0.  1.
         12    1    4    4    0    0 -0.35775505677E+02 -0.30386119981E+01 -0.43838063062E+02  0.56664766322E+02  0.00000000000E+00 0. -1.
         -5    1    5    5    0  502  0.91148834290E+02  0.45303841916E+02  0.31068763512E+03  0.32697009757E+03  0.47000000000E+01 0.  1.
         13    1    6    6    0    0  0.29408650300E+02 -0.29838664235E+02  0.24248496870E+02  0.48406654462E+02  0.00000000000E+00 0. -1.
        -14    1    6    6    0    0  0.71785127080E+02 -0.11209139659E+02  0.18902943648E+03  0.20251142471E+03  0.00000000000E+00 0.  1.
</event>
<event>
12    1  0.8462562E-002  0.2789287E+03  0.7818608E-02  0.1096480E+00
         21   -1    0    0  503  502  0.00000000000E+00  0.00000000000E+00  0.75321345850E+03  0.75321345850E+03  0.00000000000E+00 0. -1.
         21   -1    0    0  501  503 -0.00000000000E+00 -0.00000000000E+00 -0.47246866478E+03  0.47246866478E+03  0.00000000000E+00 0. -1.
          6    2    1    2  501    0 -0.13863179117E+03 -0.16980332582E+03 -0.40167291717E+03  0.48902180697E+03  0.17247971567E+03 0.  0.
         24    2    3    3    0    0 -0.32575378415E+02 -0.64779362887E+02 -0.76879188387E+02  0.13154306391E+03  0.78330370369E+02 0.  0.
         -6    2    1    2    0  502  0.13863179117E+03  0.16980332582E+03  0.68241771089E+03  0.73666031631E+03  0.17006630032E+03 0.  0.
        -24    2    5    5    0    0  0.13361647072E+03  0.14385826091E+03  0.39983478796E+03  0.45280560318E+03  0.81341847356E+02 0.  0.
          5    1    3    3  501    0 -0.10605641275E+03 -0.10502396294E+03 -0.32479372879E+03  0.35747874305E+03  0.47000000000E+01 0. -1.
        -13    1    4    4    0    0 -0.42013456427E+02 -0.10354433091E+02 -0.92953428204E+01  0.44257747387E+02  0.00000000000E+00 0.  1.
         14    1    4    4    0    0  0.94380780122E+01 -0.54424929796E+02 -0.67583845566E+02  0.87285316528E+02  0.00000000000E+00 0. -1.
         -5    1    5    5    0  502  0.50153204511E+01  0.25945064914E+02  0.28258292293E+03  0.28385471313E+03  0.47000000000E+01 0.  1.
         11    1    6    6    0    0  0.12893403328E+03  0.13398215465E+03  0.40080080264E+03  0.44183309756E+03  0.00000000000E+00 0. -1.
        -12    1    6    6    0    0  0.46824374382E+01  0.98761062600E+01 -0.96601468263E+00  0.10972505620E+02  0.00000000000E+00 0.  1.
</event>
<event>
12    1  0.8462562E-002  0.1772343E+03  0.7818608E-02  0.1171171E+00
         21   -1    0    0  503  502  0.00000000000E+00  0.00000000000E+00  0.10541696602E+04  0.10541696602E+04  0.00000000000E+00 0. -1.
         21   -1    0    0  501  503 -0.00000000000E+00 -0.00000000000E+00 -0.88048968650E+02  0.88048968650E+02  0.00000000000E+00 0. -1.
          6    2    1    2  501    0 -0.39749456935E+02  0.71304420749E+01  0.15541189007E+02  0.17525772652E+03  0.16983191579E+03 0.  0.
         24    2    3    3    0    0 -0.45181169928E+02 -0.20652380853E+02  0.66928462033E+02  0.11640086129E+03  0.81251969381E+02 0.  0.
         -6    2    1    2    0  502  0.39749456935E+02 -0.71304420749E+01  0.95057950257E+03  0.96696090236E+03  0.17257211085E+03 0.  0.
        -24    2    5    5    0    0  0.59502340451E+02  0.43892887446E+02  0.78324181752E+03  0.79084290952E+03  0.80607994240E+02 0.  0.
          5    1    3    3  501    0  0.54317129930E+01  0.27782822928E+02 -0.51387273025E+02  0.58856865231E+02  0.47000000000E+01 0. -1.
        -11    1    4    4    0    0  0.87077194250E+00  0.20200317408E+02  0.47858180277E+02  0.51953984319E+02  0.00000000000E+00 0.  1.
         12    1    4    4    0    0 -0.46051941870E+02 -0.40852698261E+02  0.19070281755E+02  0.64446876972E+02  0.00000000000E+00 0. -1.
         -5    1    5    5    0  502 -0.19752883517E+02 -0.51023329521E+02  0.16733768506E+03  0.17611799284E+03  0.47000000000E+01 0.  1.
         11    1    6    6    0    0 -0.46259641121E+01  0.13562471266E+02  0.44555108212E+03  0.44578145648E+03  0.00000000000E+00 0. -1.
        -12    1    6    6    0    0  0.64128304564E+02  0.30330416180E+02  0.33769073540E+03  0.34506145303E+03  0.00000000000E+00 0.  1.
</event>
<event>
12    1  0.8462562E-002  0.2580710E+03  0.7818608E-02  0.1108341E+00
         21   -1    0    0  503  502  0.00000000000E+00  0.00000000000E+00  0.15085585688E+03  0.15085585688E+03  0.00000000000E+00 0. -1.
         21   -1    0    0  501  503 -0.00000000000E+00 -0.00000000000E+00 -0.61275740919E+03  0.61275740919E+03  0.00000000000E+00 0.  1.
          6    2    1    2  501    0 -0.10487100357E+03  0.16121791336E+03 -0.43310122249E+03  0.50416000300E+03  0.17207991378E+03 0.  0.
         24    2    3    3    0    0 -0.10464270384E+03  0.74760503728E+02 -0.36001991015E+03  0.39085552818E+03  0.81329452365E+02 0.  0.
         -6    2    1    2    0  502  0.10487100357E+03 -0.16121791336E+03 -0.28800329816E+02  0.25945326307E+03  0.17174805309E+03 0.  0.
        -24    2    5    5    0    0  0.12501432666E+03 -0.15532726149E+03 -0.59257740906E+02  0.22216791561E+03  0.78051027141E+02 0.  0.
          5    1    3    3  501    0 -0.22829972751E+00  0.86457409631E+02 -0.73081312342E+02  0.11330447482E+03  0.47000000000E+01 0. -1.
        -13    1    4    4    0    0 -0.97549391280E+02  0.55065803381E+02 -0.19801659010E+03  0.22750537663E+03  0.00000000000E+00 0.  1.
         14    1    4    4    0    0 -0.70933125613E+01  0.19694700347E+02 -0.16200332005E+03  0.16335015155E+03  0.00000000000E+00 0. -1.
         -5    1    5    5    0  502 -0.20143323090E+02 -0.58906518718E+01  0.30457411091E+02  0.37285347456E+02  0.47000000000E+01 0.  1.
         11    1    6    6    0    0  0.87919980301E+02 -0.59710641239E+02 -0.56173924781E+01  0.10642762194E+03  0.00000000000E+00 0. -1.
        -12    1    6    6    0    0  0.37094346358E+02 -0.95616620248E+02 -0.53640348428E+02  0.11574029367E+03  0.00000000000E+00 0.  1.
</event>
<event>
12    1  0.8462562E-002  0.3141765E+03  0.7818608E-02  0.1078546E+00
         21   -1    0    0  503  502  0.00000000000E+00  0.00000000000E+00  0.10609818328E+04  0.10609818328E+04  0.00000000000E+00 0. -1.
         21   -1    0    0  501  503 -0.00000000000E+00 -0.00000000000E+00 -0.92570717597E+02  0.92570717597E+02  0.00000000000E+00 0.  1.
          6    2    1    2  501    0  0.10792889170E+03 -0.23883161761E+03  0.48068266916E+03  0.57339227838E+03  0.17039274999E+03 0.  0.
         24    2    3    3    0    0  0.26953507262E+02 -0.80382330335E+02  0.10089087548E+03  0.15395564900E+03  0.79596246900E+02 0.  0.
         -6    2    1    2    0  502 -0.10792889170E+03  0.23883161761E+03  0.48772844608E+03  0.58016027205E+03  0.17325621753E+03 0.  0.
        -24    2    5    5    0    0 -0.21998010651E+02  0.18006337355E+03  0.38885369936E+03  0.43650746711E+03  0.80155089491E+02 0.  0.
          5    1    3    3  501    0  0.80975384433E+02 -0.15844928728E+03  0.37979179368E+03  0.41943662938E+03  0.47000000000E+01 0. -1.
        -13    1    4    4    0    0  0.41587097474E+02 -0.89724538745E+02  0.87146288461E+02  0.13181219641E+03  0.00000000000E+00 0.  1.
         14    1    4    4    0    0 -0.14633590211E+02  0.93422084100E+01  0.13744587019E+02  0.22143452594E+02  0.00000000000E+00 0. -1.
         -5    1    5    5    0  502 -0.85930881045E+02  0.58768244065E+02  0.98874746722E+02  0.14365280494E+03  0.47000000000E+01 0.  1.
         11    1    6    6    0    0  0.30542746927E+02  0.63424107324E+02  0.13803720987E+03  0.15495079247E+03  0.00000000000E+00 0. -1.
        -12    1    6    6    0    0 -0.52540757578E+02  0.11663926622E+03  0.25081648949E+03  0.28155667463E+03  0.00000000000E+00 0.  1.
</event>
<event>
12    1  0.8462562E-002  0.1968388E+03  0.7818608E-02  0.1152906E+00
         21   -1    0    0  501  502  0.00000000000E+00  0.00000000000E+00  0.21530262384E+03  0.21530262384E+03  0.00000000000E+00 0.  1.
         21   -1    0    0  502  503 -0.00000000000E+00 -0.00000000000E+00 -0.22617026068E+03  0.22617026068E+03  0.00000000000E+00 0.  1.
         -6    2    1    2    0  503  0.12554126505E+02 -0.91200662245E+02 -0.10735472156E+03  0.22421092647E+03  0.17398372459E+03 0.  0.
        -24    2    3    3    0    0 -0.54871659794E+01 -0.21830151129E+02  0.16262863168E+02  0.81238365114E+02  0.76344788684E+02 0.  0.
          6    2    1    2  501    0 -0.12554126505E+02  0.91200662245E+02  0.96487084710E+02  0.21726195805E+03  0.17151627915E+03 0.  0.
         24    2    5    5    0    0 -0.56929495311E+02  0.19421296865E+02  0.87381934112E+02  0.13225346190E+03  0.78976082241E+02 0.  0.
          5    1    5    5  501    0  0.44375368805E+02  0.71779365380E+02  0.91051505984E+01  0.85008496154E+02  0.47000000000E+01 0. -1.
        -11    1    6    6    0    0 -0.17833027270E+02  0.45307724127E+02  0.62321239937E+02  0.79086937445E+02  0.00000000000E+00 0.  1.
         12    1    6    6    0    0 -0.39096468041E+02 -0.25886427262E+02  0.25060694174E+02  0.53166524451E+02  0.00000000000E+00 0. -1.
         -5    1    3    3    0  503  0.18041292485E+02 -0.69370511116E+02 -0.12361758472E+03  0.14297256135E+03  0.47000000000E+01 0.  1.
         13    1    4    4    0    0 -0.34030060494E+02 -0.27373112823E+02 -0.67055025701E+01  0.44184794755E+02  0.00000000000E+00 0. -1.
        -14    1    4    4    0    0  0.28542894515E+02  0.55429616945E+01  0.22968365738E+02  0.37053570359E+02  0.00000000000E+00 0.  1.
</event>
<event>
12    1  0.8462562E-002  0.1718146E+03  0.7818608E-02  0.1176004E+00
         21   -1    0    0  501  502  0.00000000000E+00  0.00000000000E+00  0.29712429441E+03  0.29712429441E+03  0.00000000000E+00 0.  1.
         21   -1    0    0  502  503 -0.00000000000E+00 -0.00000000000E+00 -0.10876694633E+03  0.10876694633E+03  0.00000000000E+00 0.  1.
         -6    2    1    2    0  503 -0.62957506499E+01  0.78121972876E+01  0.15416600636E+03  0.23084065203E+03  0.17152137537E+03 0.  0.
        -24    2    3    3    0    0  0.16472518615E+02 -0.32594135186E+02  0.16269155625E+03  0.18345034933E+03  0.76496840938E+02 0.  0.
          6    2    1    2  501    0  0.62957506499E+01 -0.78121972876E+01  0.34191341721E+02  0.17505058872E+03  0.17138551240E+03 0.  0.
         24    2    5    5    0    0 -0.64047042138E+02 -0.17996572132E+02  0.31789729807E+02  0.10377866067E+03  0.73030974756E+02 0.  0.
          5    1    5    5  501    0  0.70342792787E+02  0.10184374845E+02  0.24016119137E+01  0.71271928050E+02  0.47000000000E+01 0. -1.
        -13    1    6    6    0    0  0.10335413120E+02 -0.16690495668E+02  0.20758856476E+02  0.28571376099E+02  0.00000000000E+00 0.  1.
         14    1    6    6    0    0 -0.74382455257E+02 -0.13060764648E+01  0.11030873331E+02  0.75207284569E+02  0.00000000000E+00 0. -1.
         -5    1    3    3    0  503 -0.22768269265E+02  0.40406332473E+02 -0.85255498936E+01  0.47390302702E+02  0.47000000000E+01 0.  1.
         13    1    4    4    0    0  0.30071323268E+02 -0.16607876440E+02  0.15833034367E+03  0.16201420854E+03  0.00000000000E+00 0. -1.
        -14    1    4    4    0    0 -0.13598804653E+02 -0.15986258745E+02  0.43612125886E+01  0.21436140788E+02  0.00000000000E+00 0.  1.
</event>
<event>
12    1  0.8462562E-002  0.1865957E+03  0.7818608E-02  0.1161577E+00
         21   -1    0    0  503  502  0.00000000000E+00  0.00000000000E+00  0.99914789738E+03  0.99914789738E+03  0.00000000000E+00 0. -1.
         21   -1    0    0  501  503 -0.00000000000E+00 -0.00000000000E+00 -0.39301819950E+02  0.39301819950E+02  0.00000000000E+00 0. -1.
          6    2    1    2  501    0  0.55803946067E+02  0.44020134431E+02  0.30503343285E+03  0.35757982615E+03  0.17252850280E+03 0.  0.
         24    2    3    3    0    0  0.98334821930E+02  0.14321125102E+02  0.16540452074E+03  0.20855221242E+03  0.79123561567E+02 0.  0.
         -6    2    1    2    0  502 -0.55803946067E+02 -0.44020134431E+02  0.65481264458E+03  0.68086989118E+03  0.17248871437E+03 0.  0.
        -24    2    5    5    0    0 -0.32218466018E+02 -0.13438398418E+02  0.62869430231E+03  0.63401079122E+03  0.74125147691E+02 0.  0.
          5    1    3    3  501    0 -0.42530875863E+02  0.29699009329E+02  0.13962891211E+03  0.14902761373E+03  0.47000000000E+01 0. -1.
        -13    1    4    4    0    0  0.25970583880E+02  0.50435129542E+01  0.11941428688E+03  0.12230977132E+03  0.00000000000E+00 0.  1.
         14    1    4    4    0    0  0.72364238050E+02  0.92776121475E+01  0.45990233864E+02  0.86242441099E+02  0.00000000000E+00 0. -1.
         -5    1    5    5    0  502 -0.23585480049E+02 -0.30581736013E+02  0.26118342275E+02  0.46859099969E+02  0.47000000000E+01 0.  1.
         11    1    6    6    0    0  0.22282050683E+02 -0.12248947312E+02  0.14049350423E+03  0.14277587760E+03  0.00000000000E+00 0. -1.
        -12    1    6    6    0    0 -0.54500516701E+02 -0.11894511055E+01  0.48820079808E+03  0.49123491362E+03  0.00000000000E+00 0.  1.
</event>
<event>
12    1  0.8462562E-002  0.2786538E+03  0.7818608E-02  0.1096474E+00
         21   -1    0    0  501  502  0.00000000000E+00  0.00000000000E+00  0.15859926855E+03  0.15859926855E+03  0.00000000000E+00 0. -1.
         21   -1    0    0  502  503 -0.00000000000E+00 -0.00000000000E+00 -0.67069608536E+03  0.67069608536E+03  0.00000000000E+00 0. -1.
         -6    2    1    2    0  503  0.19838606967E+03  0.92677076953E+02 -0.47176349861E+03  0.54773770467E+03  0.17178393775E+03 0.  0.
        -24    2    3    3    0    0  0.19862645622E+03  0.80839518849E+02 -0.30723980351E+03  0.38272157875E+03  0.78051348848E+02 0.  0.
          6    2    1    2  501    0 -0.19838606967E+03 -0.92677076953E+02 -0.40333318204E+02  0.28155764924E+03  0.17234227588E+03 0.  0.
         24    2    5    5    0    0 -0.96426575597E+02 -0.10554464163E+03  0.22911995001E+02  0.16079601504E+03  0.69947430818E+02 0.  0.
          5    1    5    5  501    0 -0.10195949407E+03  0.12867564679E+02 -0.63245313205E+02  0.12076163420E+03  0.47000000000E+01 0. -1.
        -11    1    6    6    0    0  0.10084046422E+02 -0.18759896243E+02 -0.10837205674E+01  0.21325950145E+02  0.00000000000E+00 0.  1.
         12    1    6    6    0    0 -0.10651062202E+03 -0.86784745389E+02  0.23995715568E+02  0.13947006489E+03  0.00000000000E+00 0. -1.
         -5    1    3    3    0  503 -0.24038655171E+00  0.11837558104E+02 -0.16452369510E+03  0.16501612592E+03  0.47000000000E+01 0.  1.
         13    1    4    4    0    0  0.10454534492E+03  0.48682077361E+02 -0.99100872765E+02  0.15205478218E+03  0.00000000000E+00 0. -1.
        -14    1    4    4    0    0  0.94081111307E+02  0.32157441488E+02 -0.20813893075E+03  0.23066679657E+03  0.00000000000E+00 0.  1.
</event>
<event>
12    1  0.8462562E-002  0.1781673E+03  0.7818608E-02  0.1169861E+00
         21   -1    0    0  501  502  0.00000000000E+00  0.00000000000E+00  0.89001934487E+03  0.89001934487E+03  0.00000000000E+00 0.  1.
         21   -1    0    0  502  503 -0.00000000000E+00 -0.00000000000E+00 -0.59940119314E+02  0.59940119314E+02  0.00000000000E+00 0.  1.
         -6    2    1    2    0  503  0.27442614610E+02  0.32788745639E+02  0.11063934302E+03  0.20878651225E+03  0.17182125752E+03 0.  0.
        -24    2    3    3    0    0  0.66570360912E+02  0.65873193323E+02  0.61831142277E+02  0.13786478308E+03  0.80079446220E+02 0.  0.
          6    2    1    2  501    0 -0.27442614610E+02 -0.32788745639E+02  0.71943988254E+03  0.74117295194E+03  0.17296069252E+03 0.  0.
         24    2    5    5    0    0 -0.58908573614E+02  0.67097649203E+01  0.21427058981E+03  0.23346403609E+03  0.71262398920E+02 0.  0.
          5    1    5    5  501    0  0.31465959004E+02 -0.39498510559E+02  0.50516929273E+03  0.50770891585E+03  0.47000000000E+01 0. -1.
        -11    1    6    6    0    0 -0.45641452492E+02 -0.18043918251E+02  0.64319983299E+02  0.80906028348E+02  0.00000000000E+00 0.  1.
         12    1    6    6    0    0 -0.13267121122E+02  0.24753683171E+02  0.14995060651E+03  0.15255800775E+03  0.00000000000E+00 0. -1.
         -5    1    3    3    0  503 -0.39127746302E+02 -0.33084447684E+02  0.48808200738E+02  0.70921729171E+02  0.47000000000E+01 0.  1.
         13    1    4    4    0    0 -0.12032505976E+02  0.37906975690E+02  0.18767749956E+02  0.43976680689E+02  0.00000000000E+00 0. -1.
        -14    1    4    4    0    0  0.78602866888E+02  0.27966217634E+02  0.43063392321E+02  0.93888102388E+02  0.00000000000E+00 0.  1.
</event>
<event>
12    1  0.8462562E-002  0.3137735E+03  0.7818608E-02  0.1078566E+00
         21   -1    0    0  503  502  0.00000000000E+00  0.00000000000E+00  0.66057120724E+03  0.66057120724E+03  0.00000000000E+00 0.  1.
         21   -1    0    0  501  503 -0.00000000000E+00 -0.00000000000E+00 -0.30872426753E+03  0.30872426753E+03  0.00000000000E+00 0. -1.
          6    2    1    2  501    0  0.26171843537E+03  0.83340134349E+01 -0.17267698889E+03  0.35814960417E+03  0.17288088756E+03 0.  0.
         24    2    3    3    0    0  0.13078677668E+03  0.68594602417E+02 -0.75807496922E+02  0.18442503393E+03  0.80345604204E+02 0.  0.
         -6    2    1    2    0  502 -0.26171843537E+03 -0.83340134349E+01  0.52452392860E+03  0.61114587061E+03  0.17264972718E+03 0.  0.
        -24    2    5    5    0    0 -0.20650901008E+03  0.22983546324E+02  0.49153169249E+03  0.53945592826E+03  0.78962517493E+02 0.  0.
          5    1    3    3  501    0  0.13093165869E+03 -0.60260588982E+02 -0.96869491964E+02  0.17372457024E+03  0.47000000000E+01 0. -1.
        -13    1    4    4    0    0  0.11057098471E+03  0.82097611302E+02 -0.44377918702E+02  0.14469056676E+03  0.00000000000E+00 0.  1.
         14    1    4    4    0    0  0.20215791965E+02 -0.13503008885E+02 -0.31429578219E+02  0.39734467164E+02  0.00000000000E+00 0. -1.
         -5    1    5    5    0  502 -0.55209425287E+02 -0.31317559759E+02  0.32992236108E+02  0.71689942343E+02  0.47000000000E+01 0.  1.
         13    1    6    6    0    0 -0.30439568615E+01 -0.78100488218E+01  0.68686414034E+02  0.69195997058E+02  0.00000000000E+00 0. -1.
        -14    1    6    6    0    0 -0.20346505322E+03  0.30793595146E+02  0.42284527846E+03  0.47025993121E+03  0.00000000000E+00 0.  1.
</event>
<event>
12    1  0.8462562E-002  0.2069829E+03  0.7818608E-02  0.1143994E+00
         21   -1    0    0  501  502  0.00000000000E+00  0.00000000000E+00  0.29203224735E+03  0.29203224735E+03  0.00000000000E+00 0.  1.
         21   -1    0    0  502  503 -0.00000000000E+00 -0.00000000000E+00 -0.21716870285E+03  0.21716870285E+03  0.00000000000E+00 0.  1.
         -6    2    1    2    0  503 -0.21442154472E+02  0.11340352453E+03  0.18251477378E+03  0.27589702148E+03  0.17171895192E+03 0.  0.
        -24    2    3    3    0    0 -0.16260587567E+02  0.12282580871E+03  0.20378171192E+03  0.25160709080E+03  0.80178276556E+02 0.  0.
          6    2    1    2  501    0  0.21442154472E+02 -0.11340352453E+03 -0.10765122928E+03  0.23330392872E+03  0.17181912183E+03 0.  0.
         24    2    5    5    0    0  0.21606262639E+01 -0.31579227476E+02 -0.12171026423E+03  0.14794152843E+03  0.77919134382E+02 0.  0.
          5    1    5    5  501    0  0.19281528208E+02 -0.81824297058E+02  0.14059034951E+02  0.85362400288E+02  0.47000000000E+01 0. -1.
        -11    1    6    6    0    0 -0.95302309852E+01 -0.20307844766E+02  0.25927468579E+01  0.22582209767E+02  0.00000000000E+00 0.  1.
         12    1    6    6    0    0  0.11690857249E+02 -0.11271382710E+02 -0.12430301109E+03  0.12535931867E+03  0.00000000000E+00 0. -1.
         -5    1    3    3    0  503 -0.51815669052E+01 -0.94222841778E+01 -0.21266938141E+02  0.24289930684E+02  0.47000000000E+01 0.  1.
         13    1    4    4    0    0  0.18619342047E+02  0.14554335528E+02  0.80352054125E+02  0.83755365100E+02  0.00000000000E+00 0. -1.
        -14    1    4    4    0    0 -0.34879929614E+02  0.10827147318E+03  0.12342965779E+03  0.16785172569E+03  0.00000000000E+00 0.  1.
</event>
<event>
12    1  0.8462562E-002  0.1952272E+03  0.7818608E-02  0.1153919E+00
         21   -1    0    0  501  502  0.00000000000E+00  0.00000000000E+00  0.12001552463E+03  0.12001552463E+03  0.00000000000E+00 0. -1.
         21   -1    0    0  502  503 -0.00000000000E+00 -0.00000000000E+00 -0.39756487006E+03  0.39756487006E+03  0.00000000000E+00 0.  1.
         -6    2    1    2    0  503  0.28718754396E+01 -0.91493668529E+02 -0.25545412075E+03  0.32151275383E+03  0.17243637671E+03 0.  0.
        -24    2    3    3    0    0  0.60679647512E+02 -0.85218925009E+02 -0.21004091562E+03  0.24758332722E+03  0.78968556275E+02 0.  0.
          6    2    1    2  501    0 -0.28718754396E+01  0.91493668529E+02 -0.22095224679E+02  0.19606764086E+03  0.17197378228E+03 0.  0.
         24    2    5    5    0    0  0.24753273607E+02 -0.12494043114E+02 -0.21753096629E+02  0.88369915335E+02  0.81038380140E+02 0.  0.
          5    1    5    5  501    0 -0.27625149047E+02  0.10398771164E+03 -0.34212804987E+00  0.10769772553E+03  0.47000000000E+01 0. -1.
        -11    1    6    6    0    0  0.29254458901E+02 -0.39011611777E+02 -0.33353805212E+02  0.59077961551E+02  0.00000000000E+00 0.  1.
         12    1    6    6    0    0 -0.45011852933E+01  0.26517568663E+02  0.11600708582E+02  0.29291953783E+02  0.00000000000E+00 0. -1.
         -5    1    3    3    0  503 -0.57807772073E+02 -0.62747435203E+01 -0.45413205132E+02  0.73929426608E+02  0.47000000000E+01 0.  1.
         11    1    4    4    0    0  0.44744842632E+02 -0.46199057954E+00 -0.67575923860E+02  0.81048256384E+02  0.00000000000E+00 0. -1.
        -12    1    4    4    0    0  0.15934804880E+02 -0.84756934429E+02 -0.14246499176E+03  0.16653507084E+03  0.00000000000E+00 0.  1.
</event>
<event>
12    1  0.8462562E-002  0.2656093E+03  0.7818608E-02  0.1104082E+00
         21   -1    0    0  501  502  0.00000000000E+00  0.00000000000E+00  0.62218301325E+02  0.62218301325E+02  0.00000000000E+00 0.  1.
         21   -1    0    0  502  503 -0.00000000000E+00 -0.00000000000E+00 -0.15791726074E+04  0.15791726074E+04  0.00000000000E+00 0. -1.
         -6    2    1    2    0  503 -0.18922745882E+03  0.71692851567E+02 -0.11998257452E+04  0.12288735207E+04  0.17205061721E+03 0.  0.
        -24    2    3    3    0    0 -0.21224619687E+03  0.54167641742E+02 -0.99766368064E+03  0.10245977619E+04  0.80530568968E+02 0.  0.
          6    2    1    2  501    0  0.18922745882E+03 -0.71692851567E+02 -0.31712856084E+03  0.41251738800E+03  0.16927248790E+03 0.  0.
         24    2    5    5    0    0  0.20709422159E+02 -0.38673799590E+02 -0.12634077946E+03  0.15578668473E+03  0.79893401758E+02 0.  0.
          5    1    5    5  501    0  0.16851803666E+03 -0.33019051977E+02 -0.19078778138E+03  0.25673070326E+03  0.47000000000E+01 0. -1.
        -11    1    6    6    0    0  0.22391438104E+02 -0.27033265844E+02 -0.69072856770E+01  0.35775474253E+02  0.00000000000E+00 0.  1.
         12    1    6    6    0    0 -0.16820159454E+01 -0.11640533746E+02 -0.11943349378E+03  0.12001121048E+03  0.00000000000E+00 0. -1.
         -5    1    3    3    0  503  0.23018738050E+02  0.17525209825E+02 -0.20216206459E+03  0.20427575881E+03  0.47000000000E+01 0.  1.
         13    1    4    4    0    0 -0.27198634886E+02  0.34025178135E+02 -0.27065538620E+03  0.27413831648E+03  0.00000000000E+00 0. -1.
        -14    1    4    4    0    0 -0.18504756199E+03  0.20142463607E+02 -0.72700829444E+03  0.75045944543E+03  0.00000000000E+00 0.  1.
</event>
<event>
12    1  0.8462562E-002  0.2610762E+03  0.7818608E-02  0.1106591E+00
         21   -1    0    0  503  502  0.00000000000E+00  0.00000000000E+00  0.16961400978E+04  0.16961400978E+04  0.00000000000E+00 0. -1.
         21   -1    0    0  501  503 -0.00000000000E+00 -0.00000000000E+00 -0.44559126111E+02  0.44559126111E+02  0.00000000000E+00 0.  1.
          6    2    1    2  501    0  0.18057472515E+03  0.74778653602E+02  0.11005262147E+04  0.11309270499E+04  0.17215970634E+03 0.  0.
         24    2    3    3    0    0  0.17349054614E+03  0.43833045978E+02  0.10666477670E+04  0.10842616940E+04  0.76587574706E+02 0.  0.
         -6    2    1    2    0  502 -0.18057472515E+03 -0.74778653602E+02  0.55105475704E+03  0.60977217409E+03  0.17309442695E+03 0.  0.
        -24    2    5    5    0    0 -0.12895715099E+03  0.10438782442E+02  0.24772489182E+03  0.29046435630E+03  0.79139151400E+02 0.  0.
          5    1    3    3  501    0  0.70841790156E+01  0.30945607624E+02  0.33878447655E+02  0.46665355876E+02  0.47000000000E+01 0. -1.
        -11    1    4    4    0    0 -0.23717474142E+01  0.21764854922E+01  0.14638316825E+03  0.14641855833E+03  0.00000000000E+00 0.  1.
         12    1    4    4    0    0  0.17586229355E+03  0.41656560486E+02  0.92026459879E+03  0.93784313566E+03  0.00000000000E+00 0. -1.
         -5    1    5    5    0  502 -0.51617574168E+02 -0.85217436044E+02  0.30332986522E+03  0.31930781779E+03  0.47000000000E+01 0.  1.
         11    1    6    6    0    0 -0.50960521606E+02 -0.30239018507E+00  0.17848174285E+03  0.18561465119E+03  0.00000000000E+00 0. -1.
        -12    1    6    6    0    0 -0.77996629382E+02  0.10741172627E+02  0.69243148968E+02  0.10484970512E+03  0.00000000000E+00 0.  1.
</event>
<event>
12    1  0.8462562E-002  0.1784821E+03  0.7818608E-02  0.1170124E+00
         21   -1    0    0  503  502  0.00000000000E+00  0.00000000000E+00  0.97622017906E+03  0.97622017906E+03  0.00000000000E+00 0.  1.
         21   -1    0    0  501  503 -0.00000000000E+00 -0.00000000000E+00 -0.21279527108E+03  0.21279527108E+03  0.00000000000E+00 0.  1.
          6    2    1    2  501    0  0.15176310332E+02  0.23965959838E+02 -0.16569966617E+03  0.24354101559E+03  0.17621339132E+03 0.  0.
         24    2    3    3    0    0  0.57219364499E+02 -0.16713013811E+02 -0.46076910145E+02  0.11029653705E+03  0.80553484924E+02 0.  0.
         -6    2    1    2    0  502 -0.15176310332E+02 -0.23965959838E+02  0.92912457415E+03  0.94547443454E+03  0.17275631524E+03 0.  0.
        -24    2    5    5    0    0  0.57690064585E+02 -0.45596652242E+01  0.47397449032E+03  0.48409627980E+03  0.79677202137E+02 0.  0.
          5    1    3    3  501    0 -0.42043054167E+02  0.40678973649E+02 -0.11962275603E+03  0.13324447853E+03  0.47000000000E+01 0. -1.
        -13    1    4    4    0    0  0.35165093853E+02 -0.17442157213E+02 -0.68428477296E+02  0.78887699796E+02  0.00000000000E+00 0.  1.
         14    1    4    4    0    0  0.22054270646E+02  0.72914340235E+00  0.22351567152E+02  0.31408837259E+02  0.00000000000E+00 0. -1.
         -5    1    5    5    0  502 -0.72866374917E+02 -0.19406294614E+02  0.45515008383E+03  0.46137815475E+03  0.47000000000E+01 0.  1.
         11    1    6    6    0    0  0.10618584308E+02 -0.10675956498E+02  0.10883772265E+02  0.18579205542E+02  0.00000000000E+00 0. -1.
        -12    1    6    6    0    0  0.47071480277E+02  0.61162912734E+01  0.46309071805E+03  0.46551707425E+03  0.00000000000E+00 0.  1.
</event>
<event>
12    1  0.8462562E-002  0.2348091E+03  0.7818608E-02  0.1124161E+00
         21   -1    0    0  503  502  0.00000000000E+00  0.00000000000E+00  0.28095732219E+03  0.28095732219E+03  0.00000000000E+00 0. -1.
         21   -1    0    0  501  503 -0.00000000000E+00 -0.00000000000E+00 -0.19882597146E+03  0.19882597146E+03  0.00000000000E+00 0.  1.
          6    2    1    2  501    0 -0.52586589770E+02 -0.14584372441E+03 -0.34482515480E+01  0.22986495806E+03  0.16967694932E+03 0.  0.
         24    2    3    3    0    0 -0.52805006174E+02 -0.25992034801E+02  0.32542747326E+02  0.10463749619E+03  0.80162464123E+02 0.  0.
         -6    2    1    2    0  502  0.52586589770E+02  0.14584372441E+03  0.85579602275E+02  0.24991833559E+03  0.17635068688E+03 0.  0.
        -24    2    5    5    0    0  0.99053835925E+01  0.14114002933E+02  0.73642464226E+02  0.11085363789E+03  0.81043166236E+02 0.  0.
          5    1    3    3  501    0  0.21841640360E+00 -0.11985168961E+03 -0.35990998874E+02  0.12522746187E+03  0.47000000000E+01 0. -1.
        -11    1    4    4    0    0  0.48671446611E+01 -0.32239858986E+02  0.33325247285E+02  0.46622630891E+02  0.00000000000E+00 0.  1.
         12    1    4    4    0    0 -0.57672150835E+02  0.62478241849E+01 -0.78249995880E+00  0.58014865295E+02  0.00000000000E+00 0. -1.
         -5    1    5    5    0  502  0.42681206178E+02  0.13172972147E+03  0.11937138049E+02  0.13906469770E+03  0.47000000000E+01 0.  1.
         11    1    6    6    0    0 -0.32109269907E+02 -0.76873450182E-01  0.52931436542E+02  0.61909192354E+02  0.00000000000E+00 0. -1.
        -12    1    6    6    0    0  0.42014653500E+02  0.14190876384E+02  0.20711027684E+02  0.48944445538E+02  0.00000000000E+00 0.  1.
</event>
<event>
12    1  0.8462562E-002  0.1857887E+03  0.7818608E-02  0.1163324E+00
         21   -1    0    0  501  502  0.00000000000E+00  0.00000000000E+00  0.78584019264E+02  0.78584019264E+02  0.00000000000E+00 0. -1.
         21   -1    0    0  502  503 -0.00000000000E+00 -0.00000000000E+00 -0.51311774974E+03  0.51311774974E+03  0.00000000000E+00 0. -1.
         -6    2    1    2    0  503 -0.68293333559E+02  0.11459750971E+02 -0.95475288580E+02  0.20507783872E+03  0.16776794659E+03 0.  0.
        -24    2    3    3    0    0 -0.71969632665E+02 -0.13081853955E+02 -0.12547997513E+03  0.16585824205E+03  0.80081017539E+02 0.  0.
          6    2    1    2  501    0  0.68293333559E+02 -0.11459750971E+02 -0.33905844190E+03  0.38662393029E+03  0.17240107642E+03 0.  0.
         24    2    5    5    0    0 -0.83640839525E+00  0.48647285176E+02 -0.19424118947E+03  0.21520075910E+03  0.78831904075E+02 0.  0.
          5    1    5    5  501    0  0.69129741955E+02 -0.60107036147E+02 -0.14481725243E+03  0.17142317119E+03  0.47000000000E+01 0. -1.
        -11    1    6    6    0    0  0.29123452178E+02  0.52012912279E+02 -0.10181991577E+03  0.11798649820E+03  0.00000000000E+00 0.  1.
         12    1    6    6    0    0 -0.29959860573E+02 -0.33656271024E+01 -0.92421273697E+02  0.97214260904E+02  0.00000000000E+00 0. -1.
         -5    1    3    3    0  503  0.36762991054E+01  0.24541604926E+02  0.30004686549E+02  0.39219596662E+02  0.47000000000E+01 0.  1.
         13    1    4    4    0    0 -0.32154520894E+02  0.33759961101E+02 -0.47474326257E+02  0.66539160207E+02  0.00000000000E+00 0. -1.
        -14    1    4    4    0    0 -0.39815111771E+02 -0.46841815056E+02 -0.78005648872E+02  0.99319081847E+02  0.00000000000E+00 0.  1.
</event>
<event>
12    1  0.8462562E-002  0.1749211E+03  0.7818608E-02  0.1173722E+00
         21   -1    0    0  501  502  0.00000000000E+00  0.00000000000E+00  0.37851018243E+03  0.37851018243E+03  0.00000000000E+00 0. -1.
         21   -1    0    0  502  503 -0.00000000000E+00 -0.00000000000E+00 -0.85982345264E+02  0.85982345264E+02  0.00000000000E+00 0. -1.
         -6    2    1    2    0  503  0.32579704989E+01 -0.16248368333E+01  0.21294821463E+03  0.27558001024E+03  0.17488323380E+03 0.  0.
        -24    2    3    3    0    0  0.63459996087E+02 -0.15276286795E+02  0.86896593430E+02  0.13514587202E+03  0.80329650391E+02 0.  0.
          6    2    1    2  501    0 -0.32579704989E+01  0.16248368333E+01  0.79579622531E+02  0.18891251745E+03  0.17129439121E+03 0.  0.
         24    2    5    5    0    0  0.30240121839E+02  0.10692057697E+02  0.11271505937E+03  0.14070065315E+03  0.77866578969E+02 0.  0.
          5    1    5    5  501    0 -0.33498092338E+02 -0.90672208641E+01 -0.33135436844E+02  0.48211864300E+02  0.47000000000E+01 0. -1.
        -13    1    6    6    0    0  0.94349865226E+01 -0.27205555878E+02  0.84004987542E+02  0.88803148442E+02  0.00000000000E+00 0.  1.
         14    1    6    6    0    0  0.20805135317E+02  0.37897613575E+02  0.28710071832E+02  0.51897504707E+02  0.00000000000E+00 0. -1.
         -5    1    3    3    0  503 -0.60202025588E+02  0.13651449962E+02  0.12605162120E+03  0.14043413823E+03  0.47000000000E+01 0.  1.
         13    1    4    4    0    0 -0.88074384956E+01 -0.27010957027E+02  0.13423069036E+02  0.31421991577E+02  0.00000000000E+00 0. -1.
        -14    1    4    4    0    0  0.72267434583E+02  0.11734670231E+02  0.73473524394E+02  0.10372388044E+03  0.00000000000E+00 0.  1.
</event>
<event>
12    1  0.8462562E-002  0.1867287E+03  0.7818608E-02  0.1161508E+00
         21   -1    0    0  501  502  0.00000000000E+00  0.00000000000E+00  0.15073916342E+04  0.15073916342E+04  0.00000000000E+00 0. -1.
         21   -1    0    0  502  503 -0.00000000000E+00 -0.00000000000E+00 -0.26958398532E+02  0.26958398532E+02  0.00000000000E+00 0. -1.
         -6    2    1    2    0  503 -0.39073408833E+02 -0.62906030033E+02  0.45035093897E+03  0.48752800640E+03  0.17141671127E+03 0.  0.
        -24    2    3    3    0    0 -0.22368505299E+02 -0.59299933051E+02  0.12726753203E+03  0.16395879344E+03  0.81661674901E+02 0.  0.
          6    2    1    2  501    0  0.39073408833E+02  0.62906030033E+02  0.10300822967E+04  0.10468220263E+04  0.17112252029E+03 0.  0.
         24    2    5    5    0    0  0.51363574369E+02 -0.22508514847E+02  0.49326454323E+03  0.50309223766E+03  0.81529381070E+02 0.  0.
          5    1    5    5  501    0 -0.12290165536E+02  0.85414544880E+02  0.53681775344E+03  0.54372978864E+03  0.47000000000E+01 0. -1.
        -11    1    6    6    0    0  0.16668507779E+02 -0.50261182676E+02  0.31202816543E+03  0.31648949691E+03  0.00000000000E+00 0.  1.
         12    1    6    6    0    0  0.34695066590E+02  0.27752667829E+02  0.18123637780E+03  0.18660274075E+03  0.00000000000E+00 0. -1.
         -5    1    3    3    0  503 -0.16704903534E+02 -0.36060969823E+01  0.32308340693E+03  0.32356921296E+03  0.47000000000E+01 0.  1.
         11    1    4    4    0    0 -0.19424193281E+02  0.11914403094E+02  0.64472920413E+01  0.23681635509E+02  0.00000000000E+00 0. -1.
        -12    1    4    4    0    0 -0.29443120178E+01 -0.71214336145E+02  0.12082023999E+03  0.14027715793E+03  0.00000000000E+00 0.  1.
</event>
<event>
12    1  0.8462562E-002  0.3276537E+03  0.7818608E-02  0.1072283E+00
         21   -1    0    0  503  502  0.00000000000E+00  0.00000000000E+00  0.27575305175E+03  0.27575305175E+03  0.00000000000E+00 0. -1.
         21   -1    0    0  501  503 -0.00000000000E+00 -0.00000000000E+00 -0.43271836001E+03  0.43271836001E+03  0.00000000000E+00 0. -1.
          6    2    1    2  501    0 -0.22791771523E+03 -0.15947298930E+03 -0.19217335390E+03  0.37985196433E+03  0.17314386395E+03 0.  0.
         24    2    3    3    0    0 -0.31752721103E+02 -0.32524838476E+02 -0.33276980940E+02  0.97245019514E+02  0.79266234580E+02 0.  0.
         -6    2    1    2    0  502  0.22791771523E+03  0.15947298930E+03  0.35208045634E+02  0.32861944743E+03  0.17138557560E+03 0.  0.
        -24    2    5    5    0    0  0.13593086285E+03  0.54029917347E+02 -0.38787525230E+02  0.17026144498E+03  0.78025996240E+02 0.  0.
          5    1    3    3  501    0 -0.19616499412E+03 -0.12694815082E+03 -0.15889637296E+03  0.28260694481E+03  0.47000000000E+01 0. -1.
        -11    1    4    4    0    0 -0.87808737624E+01 -0.15763341044E+02 -0.57265793595E+02  0.60041300627E+02  0.00000000000E+00 0.  1.
         12    1    4    4    0    0 -0.22971847341E+02 -0.16761497433E+02  0.23988812655E+02  0.37203718887E+02  0.00000000000E+00 0. -1.
         -5    1    5    5    0  502  0.91986852373E+02  0.10544307195E+03  0.73995570864E+02  0.15835800245E+03  0.47000000000E+01 0.  1.
         13    1    6    6    0    0  0.48408058011E+02  0.35929613572E+02  0.19732629864E+02  0.63432278007E+02  0.00000000000E+00 0. -1.
        -14    1    6    6    0    0  0.87522804843E+02  0.18100303775E+02 -0.58520155095E+02  0.10682916698E+03  0.00000000000E+00 0.  1.
</event>
<event>
12    1  0.8462562E-002  0.1963871E+03  0.7818608E-02  0.1157147E+00
         21   -1    0    0  503  502  0.00000000000E+00  0.00000000000E+00  0.46081089113E+02  0.46081089113E+02  0.00000000000E+00 0. -1.
         21   -1    0    0  501  503 -0.00000000000E+00 -0.00000000000E+00 -0.10955091219E+04  0.10955091219E+04  0.00000000000E+00 0. -1.
          6    2    1    2  501    0  0.32887107023E+02  0.24763632270E+01 -0.85962215403E+03  0.88176988137E+03  0.19359799021E+03 0.  0.
         24    2    3    3    0    0 -0.25316589589E+02  0.66514086389E+02 -0.36914673150E+03  0.38369686424E+03  0.76739304504E+02 0.  0.
         -6    2    1    2    0  502 -0.32887107023E+02 -0.24763632270E+01 -0.18980587871E+03  0.25982032959E+03  0.17433484418E+03 0.  0.
        -24    2    5    5    0    0 -0.11739788665E+02  0.48496366097E+02 -0.18042340621E+03  0.20364605614E+03  0.80183480275E+02 0.  0.
          5    1    3    3  501    0  0.58203696612E+02 -0.64037723162E+02 -0.49047542253E+03  0.49807301713E+03  0.47000000000E+01 0. -1.
        -11    1    4    4    0    0 -0.39168207251E+02  0.19240818544E+02 -0.26400516402E+03  0.26758752622E+03  0.00000000000E+00 0.  1.
         12    1    4    4    0    0  0.13851617662E+02  0.47273267845E+02 -0.10514156748E+03  0.11610933802E+03  0.00000000000E+00 0. -1.
         -5    1    5    5    0  502 -0.21147318358E+02 -0.50972729323E+02 -0.93824725013E+01  0.56174273459E+02  0.47000000000E+01 0.  1.
         11    1    6    6    0    0 -0.34992924134E+02  0.51956979981E+02 -0.86344572825E+02  0.10667435383E+03  0.00000000000E+00 0. -1.
        -12    1    6    6    0    0  0.23253135469E+02 -0.34606138849E+01 -0.94078833384E+02  0.96971702308E+02  0.00000000000E+00 0.  1.
</event>
<event>
12    1  0.8462562E-002  0.2544779E+03  0.7818608E-02  0.1110691E+00
         21   -1    0    0  503  502  0.00000000000E+00  0.00000000000E+00  0.43884859083E+03  0.43884859083E+03  0.00000000000E+00 0.  1.
         21   -1    0    0  501  503 -0.00000000000E+00 -0.00000000000E+00 -0.17347629138E+03  0.17347629138E+03  0.00000000000E+00 0. -1.
          6    2    1    2  501    0 -0.14530950444E+03  0.11795293710E+03  0.13066270301E+02  0.25481313695E+03  0.17242754968E+03 0.  0.
         24    2    3    3    0    0 -0.13896289854E+03  0.24968262269E+02  0.54561769820E+01  0.16118390710E+03  0.77565332142E+02 0.  0.
         -6    2    1    2    0  502  0.14530950444E+03 -0.11795293710E+03  0.25230602914E+03  0.35751174527E+03  0.17067093546E+03 0.  0.
        -24    2    5    5    0    0  0.14856602554E+03 -0.92730719705E+02  0.11228525550E+03  0.21512258757E+03  0.54762201896E+02 0.  0.
          5    1    3    3  501    0 -0.63466059000E+01  0.92984674835E+02  0.76100933191E+01  0.93629229843E+02  0.47000000000E+01 0. -1.
        -13    1    4    4    0    0 -0.47351544552E+02  0.45104515374E+02  0.14393413846E+02  0.66960857526E+02  0.00000000000E+00 0.  1.
         14    1    4    4    0    0 -0.91611353989E+02 -0.20136253105E+02 -0.89372368639E+01  0.94223049577E+02  0.00000000000E+00 0. -1.
         -5    1    5    5    0  502 -0.32565210964E+01 -0.25222217399E+02  0.14002077364E+03  0.14238915770E+03  0.47000000000E+01 0.  1.
         13    1    6    6    0    0  0.14250188163E+03 -0.94216276091E+02  0.11720590132E+03  0.20717315524E+03  0.00000000000E+00 0. -1.
        -14    1    6    6    0    0  0.60641439093E+01  0.14855563863E+01 -0.49206458118E+01  0.79494323278E+01  0.00000000000E+00 0.  1.
</event>
<event>
12    1  0.8462562E-002  0.2796119E+03  0.7818608E-02  0.1096161E+00
         21   -1    0    0  501  502  0.00000000000E+00  0.00000000000E+00  0.61204707382E+03  0.61204707382E+03  0.00000000000E+00 0.  1.
         21   -1    0    0  502  503 -0.00000000000E+00 -0.00000000000E+00 -0.12915013217E+03  0.12915013217E+03  0.00000000000E+00 0.  1.
         -6    2    1    2    0  503  0.21721868575E+03  0.19162852045E+02  0.29143611413E+03  0.40387849987E+03  0.17501903239E+03 0.  0.
        -24    2    3    3    0    0  0.14409084042E+03  0.63470010318E+02  0.25705163096E+03  0.31160071966E+03  0.78923095548E+02 0.  0.
          6    2    1    2  501    0 -0.21721868575E+03 -0.19162852045E+02  0.19146082752E+03  0.33731870613E+03  0.17197525605E+03 0.  0.
         24    2    5    5    0    0 -0.19890125257E+03 -0.18623306622E+02  0.89028273640E+02  0.23315375251E+03  0.80784299088E+02 0.  0.
          5    1    5    5  501    0 -0.18317433175E+02 -0.53954542362E+00  0.10243255388E+03  0.10416495361E+03  0.47000000000E+01 0. -1.
        -11    1    6    6    0    0 -0.69535030559E+02 -0.45364102991E+02  0.27818971462E+02  0.87560935858E+02  0.00000000000E+00 0.  1.
         12    1    6    6    0    0 -0.12936622201E+03  0.26740796370E+02  0.61209302178E+02  0.14559281666E+03  0.00000000000E+00 0. -1.
         -5    1    3    3    0  503  0.73127845331E+02 -0.44307158273E+02  0.34384483168E+02  0.92277780206E+02  0.47000000000E+01 0.  1.
         11    1    4    4    0    0 -0.16169375884E+01 -0.11078077516E+02  0.27351348048E+02  0.29553925774E+02  0.00000000000E+00 0. -1.
        -12    1    4    4    0    0  0.14570777801E+03  0.74548087834E+02  0.22970028291E+03  0.28204679389E+03  0.00000000000E+00 0.  1.
</event>
<event>
12    1  0.8462562E-002  0.2176649E+03  0.7818608E-02  0.1136065E+00
         21   -1    0    0  501  502  0.00000000000E+00  0.00000000000E+00  0.80282201845E+03  0.80282201845E+03  0.00000000000E+00 0.  1.
         21   -1    0    0  502  503 -0.00000000000E+00 -0.00000000000E+00 -0.58576379806E+02  0.58576379806E+02  0.00000000000E+00 0.  1.
         -6    2    1    2    0  503  0.10501472868E+03 -0.77149986925E+02  0.34678551124E+03  0.40823999091E+03  0.17152109390E+03 0.  0.
        -24    2    3    3    0    0  0.49439900162E+02 -0.14287441066E+02  0.29393971332E+03  0.30896748921E+03  0.80074462984E+02 0.  0.
          6    2    1    2  501    0 -0.10501472868E+03  0.77149986925E+02  0.39746012740E+03  0.45315840734E+03  0.17434957858E+03 0.  0.
         24    2    5    5    0    0 -0.79829626085E+02  0.77590264353E+02  0.40412844593E+03  0.42668125288E+03  0.79649685671E+02 0.  0.
          5    1    5    5  501    0 -0.25185102590E+02 -0.44027742801E+00 -0.66683185237E+01  0.26477154466E+02  0.47000000000E+01 0. -1.
        -11    1    6    6    0    0 -0.50389106713E+02  0.40565796864E+02  0.34473946883E+03  0.35075625057E+03  0.00000000000E+00 0.  1.
         12    1    6    6    0    0 -0.29440519373E+02  0.37024467489E+02  0.59388977099E+02  0.75925002303E+02  0.00000000000E+00 0. -1.
         -5    1    3    3    0  503  0.55574828513E+02 -0.62862545859E+02  0.52845797922E+02  0.99272501701E+02  0.47000000000E+01 0.  1.
         11    1    4    4    0    0  0.73370206031E-01  0.10102737153E+02  0.19869453097E+03  0.19895121844E+03  0.00000000000E+00 0. -1.
        -12    1    4    4    0    0  0.49366529956E+02 -0.24390178219E+02  0.95245182349E+02  0.11001627077E+03  0.00000000000E+00 0.  1.
</event>
<event>
12    1  0.8462562E-002  0.1768947E+03  0.7818608E-02  0.1170978E+00
         21   -1    0    0  501  502  0.00000000000E+00  0.00000000000E+00  0.10352354275E+04  0.10352354275E+04  0.00000000000E+00 0. -1.
         21   -1    0    0  502  503 -0.00000000000E+00 -0.00000000000E+00 -0.32178558354E+02  0.32178558354E+02  0.00000000000E+00 0. -1.
         -6    2    1    2    0  503 -0.34646992768E+02  0.24319459581E+02  0.36625168868E+03  0.40649601402E+03  0.17119246401E+03 0.  0.
        -24    2    3    3    0    0  0.20789887763E+01 -0.17517374940E+02  0.33109864591E+03  0.34048885638E+03  0.77428466209E+02 0.  0.
          6    2    1    2  501    0  0.34646992768E+02 -0.24319459581E+02  0.63680518046E+03  0.66091797182E+03  0.17175528347E+03 0.  0.
         24    2    5    5    0    0  0.28241681886E+02  0.51254159401E+02  0.30893567027E+03  0.32435756773E+03  0.79636687060E+02 0.  0.
          5    1    5    5  501    0  0.64053108820E+01 -0.75573618982E+02  0.32786951019E+03  0.33656040410E+03  0.47000000000E+01 0. -1.
        -13    1    6    6    0    0 -0.27310316522E+02  0.14799111365E+02  0.75249661599E+02  0.81408713640E+02  0.00000000000E+00 0.  1.
         14    1    6    6    0    0  0.55551998408E+02  0.36455048037E+02  0.23368600867E+03  0.24294885409E+03  0.00000000000E+00 0. -1.
         -5    1    3    3    0  503 -0.36725981545E+02  0.41836834521E+02  0.35153042767E+02  0.66007157634E+02  0.47000000000E+01 0.  1.
         11    1    4    4    0    0 -0.13387482153E+02  0.26889899596E+02  0.91023987868E+02  0.95852270427E+02  0.00000000000E+00 0. -1.
        -12    1    4    4    0    0  0.15466470929E+02 -0.44407274537E+02  0.24007465804E+03  0.24463658596E+03  0.00000000000E+00 0.  1.
</event>
<event>
12    1  0.8462562E-002  0.2280598E+03  0.7818608E-02  0.1128133E+00
         21   -1    0    0  503  502  0.00000000000E+00  0.00000000000E+00  0.14143796407E+04  0.14143796407E+04  0.00000000000E+00 0.  1.
         21   -1    0    0  501  503 -0.00000000000E+00 -0.00000000000E+00 -0.40625809802E+02  0.40625809802E+02  0.00000000000E+00 0.  1.
          6    2    1    2  501    0 -0.14563927531E+03 -0.14438622247E+02  0.45880392617E+03  0.51206079625E+03  0.17402857257E+03 0.  0.
         24    2    3    3    0    0 -0.14825007429E+02 -0.33425464925E+02  0.26218117637E+03  0.27508934520E+03  0.74820692660E+02 0.  0.
         -6    2    1    2    0  502  0.14563927531E+03  0.14438622247E+02  0.91494990472E+03  0.94294465423E+03  0.17490574742E+03 0.  0.
        -24    2    5    5    0    0  0.14738586585E+03  0.54121711842E+02  0.59245465788E+03  0.61797839074E+03  0.79012762447E+02 0.  0.
          5    1    3    3  501    0 -0.13081426788E+03  0.18986842678E+02  0.19662274980E+03  0.23697145105E+03  0.47000000000E+01 0. -1.
        -13    1    4    4    0    0  0.13898408173E+01  0.16758162856E+02  0.15210448148E+03  0.15303117645E+03  0.00000000000E+00 0.  1.
         14    1    4    4    0    0 -0.16214848247E+02 -0.50183627781E+02  0.11007669489E+03  0.12205816875E+03  0.00000000000E+00 0. -1.
         -5    1    5    5    0  502 -0.17465905396E+01 -0.39683089595E+02  0.32249524683E+03  0.32496626349E+03  0.47000000000E+01 0.  1.
         11    1    6    6    0    0  0.53526962777E+02  0.40132814731E+02  0.37198629611E+03  0.37795447220E+03  0.00000000000E+00 0. -1.
        -12    1    6    6    0    0  0.93858903074E+02  0.13988897111E+02  0.22046836177E+03  0.24002391854E+03  0.00000000000E+00 0.  1.
</event>
<event>
12    1  0.8462562E-002  0.1808445E+03  0.7818608E-02  0.1167334E+00
         21   -1    0    0  501  502  0.00000000000E+00  0.00000000000E+00  0.25978918172E+03  0.25978918172E+03  0.00000000000E+00 0. -1.
         21   -1    0    0  502  503 -0.00000000000E+00 -0.00000000000E+00 -0.14109168043E+03  0.14109168043E+03  0.00000000000E+00 0. -1.
         -6    2    1    2    0  503  0.20798405323E+02 -0.51568052626E+02 -0.83564534796E+01  0.18103750518E+03  0.17208402091E+03 0.  0.
        -24    2    3    3    0    0 -0.27624161108E+02  0.27440231225E+02 -0.16438386120E+01  0.88009535971E+02  0.78910808194E+02 0.  0.
          6    2    1    2  501    0 -0.20798405323E+02  0.51568052626E+02  0.12705395477E+03  0.21984335697E+03  0.17057712762E+03 0.  0.
         24    2    5    5    0    0  0.27767905864E+01  0.64693942125E+02  0.14379073735E+02  0.10388734094E+03  0.79955019432E+02 0.  0.
          5    1    5    5  501    0 -0.23575195910E+02 -0.13125889499E+02  0.11267488104E+03  0.11595601603E+03  0.47000000000E+01 0. -1.
        -11    1    6    6    0    0 -0.36616904566E+02  0.33972753161E+02  0.19603064000E+02  0.53658417565E+02  0.00000000000E+00 0.  1.
         12    1    6    6    0    0  0.39393695153E+02  0.30721188964E+02 -0.52239902644E+01  0.50228923375E+02  0.00000000000E+00 0. -1.
         -5    1    3    3    0  503  0.48422566431E+02 -0.79008283851E+02 -0.67126148676E+01  0.93027969209E+02  0.47000000000E+01 0.  1.
         11    1    4    4    0    0 -0.15182334203E+02  0.17947887276E+01 -0.38495743436E+02  0.41420366985E+02  0.00000000000E+00 0. -1.
        -12    1    4    4    0    0 -0.12441826905E+02  0.25645442498E+02  0.36851904824E+02  0.46589168986E+02  0.00000000000E+00 0.  1.
</event>
<event>
12    1  0.8462562E-002  0.2349159E+03  0.7818608E-02  0.1123308E+00
         21   -1    0    0  501  502  0.00000000000E+00  0.00000000000E+00  0.35927373295E+02  0.35927373295E+02  0.00000000000E+00 0.  1.
         21   -1    0    0  502  503 -0.00000000000E+00 -0.00000000000E+00 -0.15414823505E+04  0.15414823505E+04  0.00000000000E+00 0. -1.
         -6    2    1    2    0  503 -0.54408219526E+01  0.15985449568E+03 -0.69477649167E+03  0.73341654917E+03  0.17205347681E+03 0.  0.
        -24    2    3    3    0    0  0.58715844929E+02  0.62371672273E+02 -0.31807660209E+03  0.33902603765E+03  0.80175766037E+02 0.  0.
          6    2    1    2  501    0  0.54408219526E+01 -0.15985449568E+03 -0.81077848558E+03  0.84399317468E+03  0.17140497041E+03 0.  0.
         24    2    5    5    0    0 -0.33522857271E+01 -0.12650038324E+03 -0.78909773962E+03  0.80298146531E+03  0.78041054432E+02 0.  0.
          5    1    5    5  501    0  0.87931076797E+01 -0.33354112445E+02 -0.21680745961E+02  0.41011709366E+02  0.47000000000E+01 0. -1.
        -13    1    6    6    0    0  0.35985812407E+02 -0.42198553271E+02 -0.31443667629E+03  0.31929002488E+03  0.00000000000E+00 0.  1.
         14    1    6    6    0    0 -0.39338098134E+02 -0.84301829966E+02 -0.47466106334E+03  0.48369144043E+03  0.00000000000E+00 0. -1.
         -5    1    3    3    0  503 -0.64156666882E+02  0.97482823408E+02 -0.37669988958E+03  0.39439051152E+03  0.47000000000E+01 0.  1.
         13    1    4    4    0    0  0.16521565398E+02  0.44411356968E+02 -0.26356607306E+03  0.26779172060E+03  0.00000000000E+00 0. -1.
        -14    1    4    4    0    0  0.42194279531E+02  0.17960315305E+02 -0.54510529024E+02  0.71234317050E+02  0.00000000000E+00 0.  1.
</event>
<event>
12    1  0.8462562E-002  0.1815281E+03  0.7818608E-02  0.1166425E+00
         21   -1    0    0  503  502  0.00000000000E+00  0.00000000000E+00  0.15773472439E+04  0.15773472439E+04  0.00000000000E+00 0. -1.
         21   -1    0    0  501  503 -0.00000000000E+00 -0.00000000000E+00 -0.12594195130E+03  0.12594195130E+03  0.00000000000E+00 0. -1.
          6    2    1    2  501    0 -0.49685817404E+02  0.23377198935E+02 -0.52400542312E+02  0.18856663821E+03  0.17261629798E+03 0.  0.
         24    2    3    3    0    0 -0.39277159719E+02  0.74957958556E+02 -0.30624048242E+01  0.11628070092E+03  0.79689599432E+02 0.  0.
         -6    2    1    2    0  502  0.49685817404E+02 -0.23377198935E+02  0.15038058349E+04  0.15147225570E+04  0.17302387600E+03 0.  0.
        -24    2    5    5    0    0  0.59449804363E+02 -0.18047575433E+02  0.14942344396E+04  0.14993134059E+04  0.10650884713E+03 0.  0.
          5    1    3    3  501    0 -0.10408657684E+02 -0.51580759621E+02 -0.49338137488E+02  0.72285937282E+02  0.47000000000E+01 0. -1.
        -13    1    4    4    0    0 -0.41738187456E+02  0.18022987616E+02  0.25933775761E+02  0.52339899694E+02  0.00000000000E+00 0.  1.
         14    1    4    4    0    0  0.24610277366E+01  0.56934970940E+02 -0.28996180586E+02  0.63940801230E+02  0.00000000000E+00 0. -1.
         -5    1    5    5    0  502 -0.97639869594E+01 -0.53296235019E+01  0.95713953097E+01  0.15409151054E+02  0.47000000000E+01 0.  1.
         13    1    6    6    0    0 -0.16922626302E+02 -0.13111875762E+02  0.88922618267E+03  0.88948383938E+03  0.00000000000E+00 0. -1.
        -14    1    6    6    0    0  0.76372430665E+02 -0.49356996712E+01  0.60500825690E+03  0.60982956653E+03  0.00000000000E+00 0.  1.
</event>
<event>
12    1  0.8462562E-002  0.3150273E+03  0.7818608E-02  0.1078255E+00
         21   -1    0    0  501  502  0.00000000000E+00  0.00000000000E+00  0.36633374837E+03  0.36633374837E+03  0.00000000000E+00 0. -1.
         21   -1    0    0  502  503 -0.00000000000E+00 -0.00000000000E+00 -0.26908235634E+03  0.26908235634E+03  0.00000000000E+00 0. -1.
         -6    2    1    2    0  503  0.71073072923E+02  0.25340238081E+03  0.37564818880E+02  0.31478437772E+03  0.16856435135E+03 0.  0.
        -24    2    3    3    0    0 -0.46493658250E+01  0.18590624782E+03 -0.12101625388E+02  0.20174252094E+03  0.77271248448E+02 0.  0.
          6    2    1    2  501    0 -0.71073072923E+02 -0.25340238081E+03  0.59686573147E+02  0.32063172698E+03  0.17314175995E+03 0.  0.
         24    2    5    5    0    0 -0.14723060545E+01 -0.69769407634E+02 -0.18375206630E+02  0.10925276150E+03  0.82027920553E+02 0.  0.
          5    1    5    5  501    0 -0.69600766869E+02 -0.18363297318E+03  0.78061779777E+02  0.21137896548E+03  0.47000000000E+01 0. -1.
        -11    1    6    6    0    0 -0.39772786936E+02 -0.51620364756E+02 -0.83303892623E+01  0.65695753465E+02  0.00000000000E+00 0.  1.
         12    1    6    6    0    0  0.38300480881E+02 -0.18149042879E+02 -0.10044817368E+02  0.43557008036E+02  0.00000000000E+00 0. -1.
         -5    1    3    3    0  503  0.75722438748E+02  0.67496132988E+02  0.49666444268E+02  0.11304185678E+03  0.47000000000E+01 0.  1.
         11    1    4    4    0    0  0.25442757024E+02  0.14587607610E+03 -0.24647500695E+02  0.15011549805E+03  0.00000000000E+00 0. -1.
        -12    1    4    4    0    0 -0.30092122849E+02  0.40030171720E+02  0.12545875307E+02  0.51627022892E+02  0.00000000000E+00 0.  1.
</event>
<event>
12    1  0.8462562E-002  0.1884090E+03  0.7818608E-02  0.1160765E+00
         21   -1    0    0  503  502  0.00000000000E+00  0.00000000000E+00  0.89613199059E+03  0.89613199059E+03  0.00000000000E+00 0. -1.
         21   -1    0    0  501  503 -0.00000000000E+00 -0.00000000000E+00 -0.42198961571E+02  0.42198961571E+02  0.00000000000E+00 0.  1.
          6    2    1    2  501    0 -0.54557919160E+02  0.48587644190E+02  0.29048964299E+03  0.34422121201E+03  0.16960744206E+03 0.  0.
         24    2    3    3    0    0 -0.77376565349E+02  0.78405308640E+02  0.16988173758E+03  0.21781654211E+03  0.80310123665E+02 0.  0.
         -6    2    1    2    0  502  0.54557919160E+02 -0.48587644190E+02  0.56344338603E+03  0.59410974015E+03  0.17366809830E+03 0.  0.
        -24    2    5    5    0    0  0.62471661796E+02 -0.13420934979E+02  0.18616156934E+03  0.21508073867E+03  0.86722339817E+02 0.  0.
          5    1    3    3  501    0  0.22818646190E+02 -0.29817664449E+02  0.12060790540E+03  0.12640466990E+03  0.47000000000E+01 0. -1.
        -13    1    4    4    0    0 -0.15646754149E+02  0.71320858438E+02  0.10586758260E+03  0.12860571842E+03  0.00000000000E+00 0.  1.
         14    1    4    4    0    0 -0.61729811200E+02  0.70844502020E+01  0.64014154981E+02  0.89210823690E+02  0.00000000000E+00 0. -1.
         -5    1    5    5    0  502 -0.79137426369E+01 -0.35166709211E+02  0.37728181669E+03  0.37902900149E+03  0.47000000000E+01 0.  1.
         11    1    6    6    0    0 -0.14911519458E+01  0.29395660278E+02  0.67542410061E+02  0.73677035324E+02  0.00000000000E+00 0. -1.
        -12    1    6    6    0    0  0.63962813742E+02 -0.42816595257E+02  0.11861915928E+03  0.14140370334E+03  0.00000000000E+00 0.  1.
</event>
<event>
12    1  0.8462562E-002  0.3704804E+03  0.7818608E-02  0.1054644E+00
         21   -1    0    0  503  502  0.00000000000E+00  0.00000000000E+00  0.95819550444E+02  0.95819550444E+02  0.00000000000E+00 0. -1.
         21   -1    0    0  501  503 -0.00000000000E+00 -0.00000000000E+00 -0.17052293913E+04  0.17052293913E+04  0.00000000000E+00 0.  1.
          6    2    1    2  501    0  0.23002165938E+03  0.23260729165E+03 -0.11697466918E+04  0.12270138645E+04  0.17389532702E+03 0.  0.
         24    2    3    3    0    0  0.21820971188E+03  0.17930892266E+03 -0.10998628263E+04  0.11382102447E+04  0.77827734270E+02 0.  0.
         -6    2    1    2    0  502 -0.23002165938E+03 -0.23260729165E+03 -0.43966314904E+03  0.57403507724E+03  0.17086974386E+03 0.  0.
        -24    2    5    5    0    0 -0.10606300858E+03 -0.40068367585E+02 -0.14586507738E+03  0.20150805634E+03  0.80461419960E+02 0.  0.
          5    1    3    3  501    0  0.11811947493E+02  0.53298368995E+02 -0.69883865502E+02  0.88803619850E+02  0.47000000000E+01 0. -1.
        -13    1    4    4    0    0  0.16205077826E+03  0.94063629091E+02 -0.62416377303E+03  0.65168154540E+03  0.00000000000E+00 0.  1.
         14    1    4    4    0    0  0.56158933620E+02  0.85245293568E+02 -0.47569905330E+03  0.48652869926E+03  0.00000000000E+00 0. -1.
         -5    1    5    5    0  502 -0.12395865080E+03 -0.19253892407E+03 -0.29379807166E+03  0.37252702090E+03  0.47000000000E+01 0.  1.
         13    1    6    6    0    0 -0.40120926204E+02 -0.58150497913E+02 -0.74868868516E+02  0.10293938313E+03  0.00000000000E+00 0. -1.
        -14    1    6    6    0    0 -0.65942082375E+02  0.18082130327E+02 -0.70996208866E+02  0.98568673211E+02  0.00000000000E+00 0.  1.
</event>
<event>
12    1  0.8462562E-002  0.2138633E+03  0.7818608E-02  0.1138772E+00
         21   -1    0    0  501  502  0.00000000000E+00  0.00000000000E+00  0.31152106488E+02  0.31152106488E+02  0.00000000000E+00 0.  1.
         21   -1    0    0  502  503 -0.00000000000E+00 -0.00000000000E+00 -0.19070899566E+04  0.19070899566E+04  0.00000000000E+00 0.  1.
         -6    2    1    2    0  503 -0.45484505296E+02  0.11431197019E+03 -0.46679602124E+03  0.51296377383E+03  0.17348556442E+03 0.  0.
        -24    2    3    3    0    0  0.36619781443E+02  0.88869385671E+02 -0.19514002576E+03  0.22799446164E+03  0.68286666212E+02 0.  0.
          6    2    1    2  501    0  0.45484505296E+02 -0.11431197019E+03 -0.14091418288E+04  0.14252782892E+04  0.17493267622E+03 0.  0.
         24    2    5    5    0    0  0.74386464926E+01 -0.11566567003E+03 -0.65019484031E+03  0.66536254306E+03  0.80747152625E+02 0.  0.
          5    1    5    5  501    0  0.38045858804E+02  0.13536998379E+01 -0.75894698852E+03  0.75991574616E+03  0.47000000000E+01 0. -1.
        -11    1    6    6    0    0  0.24042073505E+02 -0.68693870660E+02 -0.20790447131E+03  0.22027514239E+03  0.00000000000E+00 0.  1.
         12    1    6    6    0    0 -0.16603427013E+02 -0.46971799371E+02 -0.44229036900E+03  0.44508740067E+03  0.00000000000E+00 0. -1.
         -5    1    3    3    0  503 -0.82104286739E+02  0.25442584522E+02 -0.27165599549E+03  0.28496931219E+03  0.47000000000E+01 0.  1.
         11    1    4    4    0    0  0.26697572103E+01  0.27247357608E+02 -0.12747124716E+03  0.13037816134E+03  0.00000000000E+00 0. -1.
        -12    1    4    4    0    0  0.33950024232E+02  0.61622028063E+02 -0.67668778594E+02  0.97616300301E+02  0.00000000000E+00 0.  1.
</event>
<event>
12    1  0.8462562E-002  0.2433849E+03  0.7818608E-02  0.1117564E+00
         21   -1    0    0  501  502  0.00000000000E+00  0.00000000000E+00  0.64155229926E+03  0.64155229926E+03  0.00000000000E+00 0.  1.
         21   -1    0    0  502  503 -0.00000000000E+00 -0.00000000000E+00 -0.95476355198E+02  0.95476355198E+02  0.00000000000E+00 0. -1.
         -6    2    1    2    0  503 -0.14177926434E+01  0.17125957804E+03  0.34007731269E+03  0.41819705397E+03  0.17292872560E+03 0.  0.
        -24    2    3    3    0    0  0.66164186717E+02  0.10457537812E+03  0.22344026404E+03  0.26772978986E+03  0.80249482671E+02 0.  0.
          6    2    1    2  501    0  0.14177926434E+01 -0.17125957804E+03  0.20599863137E+03  0.31883160049E+03  0.17287654594E+03 0.  0.
         24    2    5    5    0    0 -0.32157926259E+02 -0.66378679952E+02  0.17217303731E+03  0.20353375794E+03  0.79637770383E+02 0.  0.
          5    1    5    5  501    0  0.33575718902E+02 -0.10488089808E+03  0.33825594068E+02  0.11529784255E+03  0.47000000000E+01 0. -1.
        -11    1    6    6    0    0 -0.29994243186E+02 -0.83727796178E+02  0.12656141376E+03  0.15468610129E+03  0.00000000000E+00 0.  1.
         12    1    6    6    0    0 -0.21636830733E+01  0.17349116225E+02  0.45611623542E+02  0.48847656652E+02  0.00000000000E+00 0. -1.
         -5    1    3    3    0  503 -0.67581979361E+02  0.66684199914E+02  0.11663704865E+03  0.15046726412E+03  0.47000000000E+01 0.  1.
         11    1    4    4    0    0  0.16672055176E+02 -0.11154307630E+02  0.45966819418E+02  0.50153010776E+02  0.00000000000E+00 0. -1.
        -12    1    4    4    0    0  0.49492131541E+02  0.11572968575E+03  0.17747344462E+03  0.21757677908E+03  0.00000000000E+00 0.  1.
</event>
<event>
12    1  0.8462562E-002  0.2069510E+03  0.7818608E-02  0.1144222E+00
         21   -1    0    0  501  502  0.00000000000E+00  0.00000000000E+00  0.19341073587E+03  0.19341073587E+03  0.00000000000E+00 0.  1.
         21   -1    0    0  502  503 -0.00000000000E+00 -0.00000000000E+00 -0.22792773729E+03  0.22792773729E+03  0.00000000000E+00 0. -1.
         -6    2    1    2    0  503  0.40913459932E+02  0.10697822024E+03 -0.55797303711E+02  0.21329624077E+03  0.17106635091E+03 0.  0.
        -24    2    3    3    0    0  0.69736886703E+02  0.11028555642E+03 -0.13392591706E+02  0.16170188058E+03  0.94562145424E+02 0.  0.
          6    2    1    2  501    0 -0.40913459932E+02 -0.10697822024E+03  0.21280302293E+02  0.20804223239E+03  0.17236724858E+03 0.  0.
         24    2    5    5    0    0  0.48162880291E+01 -0.28384329134E+02 -0.44679184488E+02  0.95610237546E+02  0.79474657761E+02 0.  0.
          5    1    5    5  501    0 -0.45729747961E+02 -0.78593891109E+02  0.65959486781E+02  0.11243199484E+03  0.47000000000E+01 0. -1.
        -11    1    6    6    0    0  0.38091063096E+00 -0.30578194574E+02  0.16147936346E+02  0.34582176400E+02  0.00000000000E+00 0.  1.
         12    1    6    6    0    0  0.44353773982E+01  0.21938654402E+01 -0.60827120834E+02  0.61028061146E+02  0.00000000000E+00 0. -1.
         -5    1    3    3    0  503 -0.28823426770E+02 -0.33073361792E+01 -0.42404712006E+02  0.51594360193E+02  0.47000000000E+01 0.  1.
         11    1    4    4    0    0  0.27226622963E+02 -0.73603053757E+01 -0.22787034219E+02  0.36258957814E+02  0.00000000000E+00 0. -1.
        -12    1    4    4    0    0  0.42510263739E+02  0.11764586180E+03  0.93944425137E+01  0.12544292276E+03  0.00000000000E+00 0.  1.
</event>
<event>
12    1  0.8462562E-002  0.2596948E+03  0.7818608E-02  0.1108050E+00
         21   -1    0    0  503  502  0.00000000000E+00  0.00000000000E+00  0.11010183233E+04  0.11010183233E+04  0.00000000000E+00 0.  1.
         21   -1    0    0  501  503 -0.00000000000E+00 -0.00000000000E+00 -0.20717829565E+03  0.20717829565E+03  0.00000000000E+00 0. -1.
          6    2    1    2  501    0 -0.10062052875E+03 -0.15937228906E+03 -0.10532357733E+03  0.27583558611E+03  0.17166303416E+03 0.  0.
         24    2    3    3    0    0 -0.13201048156E+03 -0.13816338537E+03 -0.11508750655E+03  0.23643290794E+03  0.78354945573E+02 0.  0.
         -6    2    1    2    0  502  0.10062052875E+03  0.15937228906E+03  0.99916360498E+03  0.10323610328E+04  0.17865434581E+03 0.  0.
        -24    2    5    5    0    0  0.33015289539E+02  0.83722539675E+02  0.26969449082E+03  0.29585534279E+03  0.81827822215E+02 0.  0.
          5    1    3    3  501    0  0.31389952809E+02 -0.21208903684E+02  0.97639292175E+01  0.39402678165E+02  0.47000000000E+01 0. -1.
        -13    1    4    4    0    0 -0.60586940234E+02 -0.35532933562E+02 -0.59926660918E+01  0.70493111304E+02  0.00000000000E+00 0.  1.
         14    1    4    4    0    0 -0.71423541324E+02 -0.10263045181E+03 -0.10909484046E+03  0.16593979664E+03  0.00000000000E+00 0. -1.
         -5    1    5    5    0  502  0.67605239210E+02  0.75649749382E+02  0.72946911416E+03  0.73650569004E+03  0.47000000000E+01 0.  1.
         11    1    6    6    0    0  0.50218543964E+02  0.57670440545E+02  0.11542334757E+03  0.13845696456E+03  0.00000000000E+00 0. -1.
        -12    1    6    6    0    0 -0.17203254425E+02  0.26052099129E+02  0.15427114325E+03  0.15739837823E+03  0.00000000000E+00 0.  1.
</event>
<event>
12    1  0.8462562E-002  0.1747598E+03  0.7818608E-02  0.1173393E+00
         21   -1    0    0  503  502  0.00000000000E+00  0.00000000000E+00  0.25944624716E+02  0.25944624716E+02  0.00000000000E+00 0.  1.
         21   -1    0    0  501  503 -0.00000000000E+00 -0.00000000000E+00 -0.32712593777E+04  0.32712593777E+04  0.00000000000E+00 0.  1.
          6    2    1    2  501    0  0.20246828934E+02 -0.65097269474E+01 -0.29479599594E+04  0.29531354358E+04  0.17346085854E+03 0.  0.
         24    2    3    3    0    0  0.43871261041E+01  0.59582397888E+02 -0.17964875606E+04  0.17996492095E+04  0.88319945700E+02 0.  0.
         -6    2    1    2    0  502 -0.20246828934E+02  0.65097269474E+01 -0.29735479357E+03  0.34406856658E+03  0.17178764398E+03 0.  0.
        -24    2    5    5    0    0  0.39629770037E+02  0.18419249427E+02 -0.25384957368E+03  0.26895639721E+03  0.77383138467E+02 0.  0.
          5    1    3    3  501    0  0.15859702830E+02 -0.66092124836E+02 -0.11514723988E+04  0.11534862263E+04  0.47000000000E+01 0. -1.
        -11    1    4    4    0    0 -0.34544396959E+02  0.47686570629E+01 -0.88430798755E+03  0.88499529507E+03  0.00000000000E+00 0.  1.
         12    1    4    4    0    0  0.38931523063E+02  0.54813740825E+02 -0.91217957303E+03  0.91465391439E+03  0.00000000000E+00 0. -1.
         -5    1    5    5    0  502 -0.59876598971E+02 -0.11909522480E+02 -0.43505219885E+02  0.75112169369E+02  0.47000000000E+01 0.  1.
         11    1    6    6    0    0  0.27690278603E+02 -0.87746721816E+01 -0.25405924064E+02  0.38590249786E+02  0.00000000000E+00 0. -1.
        -12    1    6    6    0    0  0.11939491434E+02  0.27193921609E+02 -0.22844364962E+03  0.23036614742E+03  0.00000000000E+00 0.  1.
</event>
<event>
12    1  0.8462562E-002  0.2280702E+03  0.7818608E-02  0.1128841E+00
         21   -1    0    0  503  502  0.00000000000E+00  0.00000000000E+00  0.36436354180E+03  0.36436354180E+03  0.00000000000E+00 0.  1.
         21   -1    0    0  501  503 -0.00000000000E+00 -0.00000000000E+00 -0.15492776725E+03  0.15492776725E+03  0.00000000000E+00 0.  1.
          6    2    1    2  501    0 -0.12565286935E+03 -0.64818011195E+02  0.22794855576E+02  0.22458663365E+03  0.17300153878E+03 0.  0.
         24    2    3    3    0    0 -0.68006666002E+02 -0.81332521119E+02 -0.38566436162E+02  0.13866159700E+03  0.80621230907E+02 0.  0.
         -6    2    1    2    0  502  0.12565286935E+03  0.64818011195E+02  0.18664091898E+03  0.29470467540E+03  0.17895808144E+03 0.  0.
        -24    2    5    5    0    0  0.15377776357E+03  0.27001778462E+02  0.11755611688E+03  0.21094384319E+03  0.79379895152E+02 0.  0.
          5    1    3    3  501    0 -0.57646203350E+02  0.16514509924E+02  0.61361291738E+02  0.85925036644E+02  0.47000000000E+01 0. -1.
        -11    1    4    4    0    0 -0.50010989059E+02 -0.22318091656E+02  0.15188019461E+02  0.56831964396E+02  0.00000000000E+00 0.  1.
         12    1    4    4    0    0 -0.17995676942E+02 -0.59014429462E+02 -0.53754455623E+02  0.81829632608E+02  0.00000000000E+00 0. -1.
         -5    1    5    5    0  502 -0.28124894214E+02  0.37816232733E+02  0.69084802096E+02  0.83760832214E+02  0.47000000000E+01 0.  1.
         11    1    6    6    0    0  0.74953548436E+02 -0.25346861899E+02  0.66893570498E+02  0.10361103998E+03  0.00000000000E+00 0. -1.
        -12    1    6    6    0    0  0.78824215129E+02  0.52348640361E+02  0.50662546386E+02  0.10733280321E+03  0.00000000000E+00 0.  1.
</event>
<event>
12    1  0.8462562E-002  0.2255546E+03  0.7818608E-02  0.1132042E+00
         21   -1    0    0  501  502  0.00000000000E+00  0.00000000000E+00  0.19136117506E+03  0.19136117506E+03  0.00000000000E+00 0.  1.
         21   -1    0    0  502  503 -0.00000000000E+00 -0.00000000000E+00 -0.25198506880E+03  0.25198506880E+03  0.00000000000E+00 0. -1.
         -6    2    1    2    0  503 -0.12584468606E+03  0.21562270242E+02 -0.34070535497E+02  0.21623405423E+03  0.17115650239E+03 0.  0.
        -24    2    3    3    0    0 -0.32158976412E+02 -0.46096618147E+02 -0.26464468830E+02  0.10032598885E+03  0.78777141095E+02 0.  0.
          6    2    1    2  501    0  0.12584468606E+03 -0.21562270242E+02 -0.26553358240E+02  0.22711218964E+03  0.18593829445E+03 0.  0.
         24    2    5    5    0    0  0.12964290575E+03 -0.46707543580E+02  0.33346599606E+02  0.16186798535E+03  0.78104873956E+02 0.  0.
          5    1    5    5  501    0 -0.37982196940E+01  0.25145273337E+02 -0.59899957846E+02  0.65244204295E+02  0.47000000000E+01 0. -1.
        -13    1    6    6    0    0  0.42421927182E+02  0.18133956441E+02  0.25953084357E+02  0.52934137092E+02  0.00000000000E+00 0.  1.
         14    1    6    6    0    0  0.87220978570E+02 -0.64841500021E+02  0.73935152490E+01  0.10893384825E+03  0.00000000000E+00 0. -1.
         -5    1    3    3    0  503 -0.93685709645E+02  0.67658888390E+02 -0.76060666665E+01  0.11590806538E+03  0.47000000000E+01 0.  1.
         11    1    4    4    0    0  0.17901054307E+02  0.10637870839E+02 -0.89355791971E+01  0.22659581128E+02  0.00000000000E+00 0. -1.
        -12    1    4    4    0    0 -0.50060030719E+02 -0.56734488987E+02 -0.17528889633E+02  0.77666407719E+02  0.00000000000E+00 0.  1.
</event>
<event>
12    1  0.8462562E-002  0.1926116E+03  0.7818608E-02  0.1156508E+00
         21   -1    0    0  503  502  0.00000000000E+00  0.00000000000E+00  0.59687644123E+02  0.59687644123E+02  0.00000000000E+00 0.  1.
         21   -1    0    0  501  503 -0.00000000000E+00 -0.00000000000E+00 -0.62027774063E+03  0.62027774063E+03  0.00000000000E+00 0.  1.
          6    2    1    2  501    0  0.83819064152E+02 -0.28297733073E+01 -0.25096845793E+03  0.31532200506E+03  0.17149098189E+03 0.  0.
         24    2    3    3    0    0  0.55300215323E+02 -0.63942703894E+02 -0.20524701276E+03  0.23370916556E+03  0.73122189681E+02 0.  0.
         -6    2    1    2    0  502 -0.83819064152E+02  0.28297733073E+01 -0.30962163858E+03  0.36464337969E+03  0.17339432559E+03 0.  0.
        -24    2    5    5    0    0  0.46142618627E+01  0.29526261246E+02 -0.74765393330E+02  0.11222962898E+03  0.78182696710E+02 0.  0.
          5    1    3    3  501    0  0.28518848829E+02  0.61112930586E+02 -0.45721445175E+02  0.81612839506E+02  0.47000000000E+01 0. -1.
        -13    1    4    4    0    0  0.60197693765E+02 -0.66092635487E+02 -0.12716577790E+03  0.15544495447E+03  0.00000000000E+00 0.  1.
         14    1    4    4    0    0 -0.48974784415E+01  0.21499315935E+01 -0.78081234853E+02  0.78264211087E+02  0.00000000000E+00 0. -1.
         -5    1    5    5    0  502 -0.88433326014E+02 -0.26696487938E+02 -0.23485624525E+03  0.25241375072E+03  0.47000000000E+01 0.  1.
         13    1    6    6    0    0  0.13738156650E+02 -0.21511058837E+02 -0.46835464674E+02  0.53338760313E+02  0.00000000000E+00 0. -1.
        -14    1    6    6    0    0 -0.91238947872E+01  0.51037320083E+02 -0.27929928655E+02  0.58890868664E+02  0.00000000000E+00 0.  1.
</event>
<event>
12    1  0.8462562E-002  0.1829570E+03  0.7818608E-02  0.1165318E+00
         21   -1    0    0  501  502  0.00000000000E+00  0.00000000000E+00  0.29557527350E+02  0.29557527350E+02  0.00000000000E+00 0. -1.
         21   -1    0    0  502  503 -0.00000000000E+00 -0.00000000000E+00 -0.11722172894E+04  0.11722172894E+04  0.00000000000E+00 0. -1.
         -6    2    1    2    0  503  0.54006800902E+02 -0.21476207064E+02 -0.44661203852E+03  0.48208342337E+03  0.17194229300E+03 0.  0.
        -24    2    3    3    0    0 -0.36578996021E+02 -0.32544142129E+02 -0.27586654260E+03  0.28842289521E+03  0.68470964775E+02 0.  0.
          6    2    1    2  501    0 -0.54006800902E+02  0.21476207064E+02 -0.69604772353E+03  0.71969139338E+03  0.17347998807E+03 0.  0.
         24    2    5    5    0    0 -0.92534045619E+02  0.50882290301E+02 -0.54730736858E+03  0.56318308846E+03  0.80487752888E+02 0.  0.
          5    1    5    5  501    0  0.38527244717E+02 -0.29406083237E+02 -0.14874035496E+03  0.15650830492E+03  0.47000000000E+01 0. -1.
        -11    1    6    6    0    0  0.90416460736E+01  0.22716112997E+02 -0.15701195039E+03  0.15890414003E+03  0.00000000000E+00 0.  1.
         12    1    6    6    0    0 -0.10157569169E+03  0.28166177304E+02 -0.39029541819E+03  0.40427894843E+03  0.00000000000E+00 0. -1.
         -5    1    3    3    0  503  0.90585796923E+02  0.11067935065E+02 -0.17074549591E+03  0.19366052816E+03  0.47000000000E+01 0.  1.
         13    1    4    4    0    0  0.11929316570E+02  0.32362270476E+01 -0.13009106989E+03  0.13067696133E+03  0.00000000000E+00 0. -1.
        -14    1    4    4    0    0 -0.48508312591E+02 -0.35780369177E+02 -0.14577547272E+03  0.15774593388E+03  0.00000000000E+00 0.  1.
</event>
<event>
12    1  0.8462562E-002  0.2052223E+03  0.7818608E-02  0.1147518E+00
         21   -1    0    0  501  502  0.00000000000E+00  0.00000000000E+00  0.34951666565E+02  0.34951666565E+02  0.00000000000E+00 0.  1.
         21   -1    0    0  502  503 -0.00000000000E+00 -0.00000000000E+00 -0.13637611554E+04  0.13637611554E+04  0.00000000000E+00 0. -1.
         -6    2    1    2    0  503 -0.17890963251E+02  0.10203212824E+03 -0.92938584265E+03  0.94965221811E+03  0.16538031649E+03 0.  0.
        -24    2    3    3    0    0 -0.51580862928E+02  0.15898960066E+02 -0.58770779839E+03  0.59564669847E+03  0.80505718855E+02 0.  0.
          6    2    1    2  501    0  0.17890963251E+02 -0.10203212824E+03 -0.39942364623E+03  0.44906060390E+03  0.17715963155E+03 0.  0.
         24    2    5    5    0    0  0.56644525573E+02 -0.11948177271E+03 -0.24756953734E+03  0.29130101125E+03  0.77981453256E+02 0.  0.
          5    1    5    5  501    0 -0.38753562323E+02  0.17449644473E+02 -0.15185410889E+03  0.15775959265E+03  0.47000000000E+01 0. -1.
        -11    1    6    6    0    0 -0.17038302252E+02 -0.30620371208E+02 -0.35695136178E+02  0.50020532017E+02  0.00000000000E+00 0.  1.
         12    1    6    6    0    0  0.73682827825E+02 -0.88861401502E+02 -0.21187440116E+03  0.24128047924E+03  0.00000000000E+00 0. -1.
         -5    1    3    3    0  503  0.33689899677E+02  0.86133168172E+02 -0.34167804427E+03  0.35400551964E+03  0.47000000000E+01 0.  1.
         11    1    4    4    0    0  0.12670630237E+02  0.27992040365E+02 -0.22577502453E+03  0.22785622857E+03  0.00000000000E+00 0. -1.
        -12    1    4    4    0    0 -0.64251493165E+02 -0.12093080300E+02 -0.36193277386E+03  0.36779046991E+03  0.00000000000E+00 0.  1.
</event>
<event>
12    1  0.8462562E-002  0.2166704E+03  0.7818608E-02  0.1136888E+00
         21   -1    0    0  501  502  0.00000000000E+00  0.00000000000E+00  0.71726625553E+02  0.71726625553E+02  0.00000000000E+00 0.  1.
         21   -1    0    0  502  503 -0.00000000000E+00 -0.00000000000E+00 -0.73379566181E+03  0.73379566181E+03  0.00000000000E+00 0. -1.
         -6    2    1    2    0  503  0.41566412230E+02 -0.12232277191E+03 -0.47156616306E+03  0.51896119406E+03  0.17394093146E+03 0.  0.
        -24    2    3    3    0    0  0.58245897155E+02 -0.96439862913E+02 -0.19077269791E+03  0.23644537102E+03  0.82576991427E+02 0.  0.
          6    2    1    2  501    0 -0.41566412230E+02  0.12232277191E+03 -0.19050287320E+03  0.28656109331E+03  0.17069062173E+03 0.  0.
         24    2    5    5    0    0 -0.77085172998E+02  0.66569686200E+02 -0.65966391799E+02  0.14548872134E+03  0.80260551795E+02 0.  0.
          5    1    5    5  501    0  0.35518760767E+02  0.55753085711E+02 -0.12453648140E+03  0.14107237196E+03  0.47000000000E+01 0. -1.
        -13    1    6    6    0    0  0.66900360415E+01 -0.21697636731E+01  0.10657265838E+02  0.12768781139E+02  0.00000000000E+00 0.  1.
         14    1    6    6    0    0 -0.83775209039E+02  0.68739449873E+02 -0.76623657636E+02  0.13271994021E+03  0.00000000000E+00 0. -1.
         -5    1    3    3    0  503 -0.16679484925E+02 -0.25882908998E+02 -0.28079346515E+03  0.28251582304E+03  0.47000000000E+01 0.  1.
         13    1    4    4    0    0 -0.73704815945E+01 -0.67139635131E+02 -0.99948380578E+02  0.12063056571E+03  0.00000000000E+00 0. -1.
        -14    1    4    4    0    0  0.65616378750E+02 -0.29300227783E+02 -0.90824317330E+02  0.11581480530E+03  0.00000000000E+00 0.  1.
</event>
<event>
12    1  0.8462562E-002  0.2158609E+03  0.7818608E-02  0.1137220E+00
         21   -1    0    0  503  502  0.00000000000E+00  0.00000000000E+00  0.75720151812E+02  0.75720151812E+02  0.00000000000E+00 0.  1.
         21   -1    0    0  501  503 -0.00000000000E+00 -0.00000000000E+00 -0.73293005070E+03  0.73293005070E+03  0.00000000000E+00 0.  1.
          6    2    1    2  501    0  0.41768623358E+02 -0.12333788272E+03 -0.16521760271E+03  0.27183228934E+03  0.17216005945E+03 0.  0.
         24    2    3    3    0    0  0.82362309442E+02 -0.11491681171E+03 -0.15718284885E+03  0.22934218394E+03  0.88893001597E+02 0.  0.
         -6    2    1    2    0  502 -0.41768623358E+02  0.12333788272E+03 -0.49199229617E+03  0.53681791317E+03  0.17076358277E+03 0.  0.
        -24    2    5    5    0    0 -0.27733341733E+02  0.12266527285E+03 -0.23529839282E+03  0.27969675194E+03  0.83958513431E+02 0.  0.
          5    1    3    3  501    0 -0.40593686083E+02 -0.84210710042E+01 -0.80347538651E+01  0.42490105393E+02  0.47000000000E+01 0. -1.
        -13    1    4    4    0    0  0.84932520696E+02 -0.12178036917E+03 -0.16263033873E+03  0.22021039590E+03  0.00000000000E+00 0.  1.
         14    1    4    4    0    0 -0.25702112549E+01  0.68635574587E+01  0.54474898797E+01  0.91317880436E+01  0.00000000000E+00 0. -1.
         -5    1    5    5    0  502 -0.14035281626E+02  0.67260986982E+00 -0.25669390335E+03  0.25712116123E+03  0.47000000000E+01 0.  1.
         11    1    6    6    0    0  0.17916964930E+02  0.80032749085E+00 -0.13153698474E+02  0.22241356522E+02  0.00000000000E+00 0. -1.
        -12    1    6    6    0    0 -0.45650306663E+02  0.12186494536E+03 -0.22214469435E+03  0.25745539542E+03  0.00000000000E+00 0.  1.
</event>
<event>
12    1  0.8462562E-002  0.2193159E+03  0.7818608E-02  0.1134425E+00
         21   -1    0    0  503  502  0.00000000000E+00  0.00000000000E+00  0.84145110445E+03  0.84145110445E+03  0.00000000000E+00 0. -1.
         21   -1    0    0  501  503 -0.00000000000E+00 -0.00000000000E+00 -0.61934559086E+02  0.61934559086E+02  0.00000000000E+00 0. -1.
          6    2    1    2  501    0 -0.92264787041E+02  0.98937791218E+02  0.51584418370E+03  0.56053071653E+03  0.17262092821E+03 0.  0.
         24    2    3    3    0    0 -0.89037278959E+02  0.47658746759E+02  0.18503226249E+03  0.22571946459E+03  0.80705299366E+02 0.  0.
         -6    2    1    2    0  502  0.92264787041E+02 -0.98937791218E+02  0.26367236166E+03  0.34285494700E+03  0.17240917297E+03 0.  0.
        -24    2    5    5    0    0  0.66709139855E+02  0.15146768154E+02  0.60961164349E+02  0.10879876293E+03  0.58663219565E+02 0.  0.
          5    1    3    3  501    0 -0.32275080818E+01  0.51279044459E+02  0.33081192121E+03  0.33481125194E+03  0.47000000000E+01 0. -1.
        -11    1    4    4    0    0 -0.24226507935E+02 -0.46899276069E+00  0.42631479257E+00  0.24234796992E+02  0.00000000000E+00 0.  1.
         12    1    4    4    0    0 -0.64810771024E+02  0.48127739520E+02  0.18460594770E+03  0.20148466760E+03  0.00000000000E+00 0. -1.
         -5    1    5    5    0  502  0.25555647185E+02 -0.11408455937E+03  0.20271119731E+03  0.23405618408E+03  0.47000000000E+01 0.  1.
         13    1    6    6    0    0  0.37719128464E+02 -0.21424088886E+02  0.31508505745E+02  0.53614458600E+02  0.00000000000E+00 0. -1.
        -14    1    6    6    0    0  0.28990011391E+02  0.36570857040E+02  0.29452658604E+02  0.55184304326E+02  0.00000000000E+00 0.  1.
</event>
<event>
12    1  0.8462562E-002  0.2270192E+03  0.7818608E-02  0.1128915E+00
         21   -1    0    0  501  502  0.00000000000E+00  0.00000000000E+00  0.49165976010E+02  0.49165976010E+02  0.00000000000E+00 0. -1.
         21   -1    0    0  502  503 -0.00000000000E+00 -0.00000000000E+00 -0.10682904665E+04  0.10682904665E+04  0.00000000000E+00 0.  1.
         -6    2    1    2    0  503  0.30404999949E+02 -0.14344481403E+03 -0.42455650364E+03  0.48102200498E+03  0.17214257405E+03 0.  0.
        -24    2    3    3    0    0 -0.11222387517E+02 -0.75114934468E+01 -0.14532062755E+03  0.16764448261E+03  0.82487715710E+02 0.  0.
          6    2    1    2  501    0 -0.30404999949E+02  0.14344481403E+03 -0.59456798683E+03  0.63643443750E+03  0.17331134869E+03 0.  0.
         24    2    5    5    0    0  0.40754521291E+02  0.12401737139E+03 -0.40425942943E+03  0.43227631248E+03  0.79974274884E+02 0.  0.
          5    1    5    5  501    0 -0.71159521240E+02  0.19427442646E+02 -0.19030855740E+03  0.20415812502E+03  0.47000000000E+01 0. -1.
        -13    1    6    6    0    0  0.36643054952E+02  0.49449125531E+02 -0.28495055453E+03  0.29152143664E+03  0.00000000000E+00 0.  1.
         14    1    6    6    0    0  0.41114663392E+01  0.74568245856E+02 -0.11930887489E+03  0.14075487584E+03  0.00000000000E+00 0. -1.
         -5    1    3    3    0  503  0.41627387466E+02 -0.13593332059E+03 -0.27923587609E+03  0.31337752238E+03  0.47000000000E+01 0.  1.
         13    1    4    4    0    0 -0.16597490439E+02 -0.13155798416E+02  0.91739402433E+00  0.21198899326E+02  0.00000000000E+00 0. -1.
        -14    1    4    4    0    0  0.53751029220E+01  0.56443049687E+01 -0.14623802157E+03  0.14644558328E+03  0.00000000000E+00 0.  1.
</event>
<event>
12    1  0.8462562E-002  0.2050926E+03  0.7818608E-02  0.1146172E+00
         21   -1    0    0  503  502  0.00000000000E+00  0.00000000000E+00  0.61327227758E+02  0.61327227758E+02  0.00000000000E+00 0. -1.
         21   -1    0    0  501  503 -0.00000000000E+00 -0.00000000000E+00 -0.10331479528E+04  0.10331479528E+04  0.00000000000E+00 0.  1.
          6    2    1    2  501    0 -0.11046591145E+03  0.14694443180E+02 -0.80551261169E+03  0.83042713866E+03  0.16834494581E+03 0.  0.
         24    2    3    3    0    0 -0.12477207229E+02  0.30063210757E+02 -0.20776707272E+03  0.22449000948E+03  0.78543812646E+02 0.  0.
         -6    2    1    2    0  502  0.11046591145E+03 -0.14694443180E+02 -0.16630811336E+03  0.26404804191E+03  0.17217530489E+03 0.  0.
        -24    2    5    5    0    0  0.56137629130E+02  0.57129174758E+02 -0.74022227010E+02  0.13501715734E+03  0.79593760253E+02 0.  0.
          5    1    3    3  501    0 -0.97988704218E+02 -0.15368767577E+02 -0.59774553897E+03  0.60593712919E+03  0.47000000000E+01 0. -1.
        -13    1    4    4    0    0 -0.67504886766E+01 -0.55921943133E+01 -0.17651444166E+03  0.17673197178E+03  0.00000000000E+00 0.  1.
         14    1    4    4    0    0 -0.57267185519E+01  0.35655405071E+02 -0.31252631063E+02  0.47758037695E+02  0.00000000000E+00 0. -1.
         -5    1    5    5    0  502  0.54328282317E+02 -0.71823617938E+02 -0.92285886355E+02  0.12903088457E+03  0.47000000000E+01 0.  1.
         11    1    6    6    0    0  0.67591706206E+02  0.20481522440E+02 -0.30364786291E+02  0.76877511379E+02  0.00000000000E+00 0. -1.
        -12    1    6    6    0    0 -0.11454077076E+02  0.36647652318E+02 -0.43657440719E+02  0.58139645959E+02  0.00000000000E+00 0.  1.
</event>
<event>
12    1  0.8462562E-002  0.1932107E+03  0.7818608E-02  0.1155897E+00
         21   -1    0    0  501  502  0.00000000000E+00  0.00000000000E+00  0.43128472439E+02  0.43128472439E+02  0.00000000000E+00 0.  1.
         21   -1    0    0  502  503 -0.00000000000E+00 -0.00000000000E+00 -0.17370215617E+04  0.17370215617E+04  0.00000000000E+00 0.  1.
         -6    2    1    2    0  503  0.44375126194E+02 -0.73521101456E+02 -0.14810472332E+04  0.14935967624E+04  0.17307766289E+03 0.  0.
        -24    2    3    3    0    0 -0.15612245689E+02 -0.95739370204E+02 -0.11128512139E+04  0.11198554951E+04  0.78922343698E+02 0.  0.
          6    2    1    2  501    0 -0.44375126194E+02  0.73521101456E+02 -0.21284585602E+03  0.28655327174E+03  0.17156606580E+03 0.  0.
         24    2    5    5    0    0 -0.66160857817E+02  0.51212556792E+00 -0.74457275428E+02  0.12850765205E+03  0.81196116853E+02 0.  0.
          5    1    5    5  501    0  0.21785731623E+02  0.73008975888E+02 -0.13838858059E+03  0.15804561968E+03  0.47000000000E+01 0. -1.
        -11    1    6    6    0    0 -0.98815561356E+01  0.27949348137E+02  0.19679511342E+01  0.29709999068E+02  0.00000000000E+00 0.  1.
         12    1    6    6    0    0 -0.56279301681E+02 -0.27437222569E+02 -0.76425226563E+02  0.98797652984E+02  0.00000000000E+00 0. -1.
         -5    1    3    3    0  503  0.59987371882E+02  0.22218268748E+02 -0.36819601932E+03  0.37374126731E+03  0.47000000000E+01 0.  1.
         11    1    4    4    0    0 -0.18027767501E+02 -0.31684556198E+00 -0.59084718862E+02  0.61774629057E+02  0.00000000000E+00 0. -1.
        -12    1    4    4    0    0  0.24155218124E+01 -0.95422524642E+02 -0.10537664950E+04  0.10580808660E+04  0.00000000000E+00 0.  1.
</event>
<event>
12    1  0.8462562E-002  0.1889169E+03  0.7818608E-02  0.1159633E+00
         21   -1    0    0  503  502  0.00000000000E+00  0.00000000000E+00  0.12502002629E+03  0.12502002629E+03  0.00000000000E+00 0.  1.
         21   -1    0    0  501  503 -0.00000000000E+00 -0.00000000000E+00 -0.51257525413E+03  0.51257525413E+03  0.00000000000E+00 0.  1.
          6    2    1    2  501    0  0.75376875632E+02 -0.18419442904E+01 -0.40681133298E+03  0.44853658218E+03  0.17321818257E+03 0.  0.
         24    2    3    3    0    0  0.19730994308E+02  0.54486511014E+02 -0.29844313678E+03  0.31424170167E+03  0.79507541494E+02 0.  0.
         -6    2    1    2    0  502 -0.75376875632E+02  0.18419442904E+01  0.19256105141E+02  0.18905869824E+03  0.17230010927E+03 0.  0.
        -24    2    5    5    0    0  0.18705173542E+02 -0.80297028985E+01  0.40785612281E+02  0.91927389833E+02  0.79829939162E+02 0.  0.
          5    1    3    3  501    0  0.55645881324E+02 -0.56328455304E+02 -0.10836819619E+03  0.13429488051E+03  0.47000000000E+01 0. -1.
        -11    1    4    4    0    0  0.25058716224E+02 -0.12300252701E+02 -0.54071462842E+02  0.60851939732E+02  0.00000000000E+00 0.  1.
         12    1    4    4    0    0 -0.53277219156E+01  0.66786763715E+02 -0.24437167394E+03  0.25338976193E+03  0.00000000000E+00 0. -1.
         -5    1    5    5    0  502 -0.94082049174E+02  0.98716471889E+01 -0.21529507140E+02  0.97131308406E+02  0.47000000000E+01 0.  1.
         13    1    6    6    0    0  0.28704594455E+02  0.97098984952E+01 -0.14073224421E+02  0.33410949062E+02  0.00000000000E+00 0. -1.
        -14    1    6    6    0    0 -0.99994209130E+01 -0.17739601394E+02  0.54858836703E+02  0.58516440771E+02  0.00000000000E+00 0.  1.
</event>
<event>
12    1  0.8462562E-002  0.1806363E+03  0.7818608E-02  0.1167990E+00
         21   -1    0    0  501  502  0.00000000000E+00  0.00000000000E+00  0.59269319036E+02  0.59269319036E+02  0.00000000000E+00 0. -1.
         21   -1    0    0  502  503 -0.00000000000E+00 -0.00000000000E+00 -0.76695667882E+03  0.76695667882E+03  0.00000000000E+00 0. -1.
         -6    2    1    2    0  503 -0.16340299995E+02  0.48243730501E+02 -0.57600353106E+03  0.60268604884E+03  0.16987037040E+03 0.  0.
        -24    2    3    3    0    0 -0.34637865528E+02  0.43534171331E+01 -0.52687951617E+03  0.53415562238E+03  0.80631695964E+02 0.  0.
          6    2    1    2  501    0  0.16340299995E+02 -0.48243730501E+02 -0.13168382872E+03  0.22353994901E+03  0.17330613122E+03 0.  0.
         24    2    5    5    0    0 -0.35908687989E+02  0.24159104912E+02 -0.74675397914E+02  0.11750137818E+03  0.79731189609E+02 0.  0.
          5    1    5    5  501    0  0.52248987984E+02 -0.72402835413E+02 -0.57008430807E+02  0.10603857083E+03  0.47000000000E+01 0. -1.
        -13    1    6    6    0    0 -0.34119505073E+02  0.29554391260E+02 -0.26132482933E+01  0.45215392686E+02  0.00000000000E+00 0.  1.
         14    1    6    6    0    0 -0.17891829165E+01 -0.53952863480E+01 -0.72062149621E+02  0.72285985490E+02  0.00000000000E+00 0. -1.
         -5    1    3    3    0  503  0.18297565534E+02  0.43890313368E+02 -0.49124014887E+02  0.68530426459E+02  0.47000000000E+01 0.  1.
         11    1    4    4    0    0  0.25280100210E+02  0.92361585678E+01 -0.19881744474E+03  0.20063092091E+03  0.00000000000E+00 0. -1.
        -12    1    4    4    0    0 -0.59917965738E+02 -0.48827414347E+01 -0.32806207143E+03  0.33352470148E+03  0.00000000000E+00 0.  1.
</event>
<event>
12    1  0.8462562E-002  0.2008248E+03  0.7818608E-02  0.1149257E+00
         21   -1    0    0  501  502  0.00000000000E+00  0.00000000000E+00  0.23265862740E+03  0.23265862740E+03  0.00000000000E+00 0.  1.
         21   -1    0    0  502  503 -0.00000000000E+00 -0.00000000000E+00 -0.26841914984E+03  0.26841914984E+03  0.00000000000E+00 0. -1.
         -6    2    1    2    0  503 -0.10098927617E+03 -0.15933567428E+02 -0.16763639227E+03  0.26082405384E+03  0.17168143340E+03 0.  0.
        -24    2    3    3    0    0 -0.54570044090E+01 -0.13322390094E+02 -0.13876954364E+03  0.16088097932E+03  0.80115156422E+02 0.  0.
          6    2    1    2  501    0  0.10098927617E+03  0.15933567428E+02  0.13187586983E+03  0.24025372340E+03  0.17285223196E+03 0.  0.
         24    2    5    5    0    0  0.83098368018E+02 -0.25627629430E+02  0.14951883484E+03  0.19146046676E+03  0.82092108057E+02 0.  0.
          5    1    5    5  501    0  0.17890908154E+02  0.41561196858E+02 -0.17642965009E+02  0.48793256636E+02  0.47000000000E+01 0. -1.
        -13    1    6    6    0    0  0.98168279202E+02 -0.11886672487E+02  0.12888486646E+03  0.16244880063E+03  0.00000000000E+00 0.  1.
         14    1    6    6    0    0 -0.15069911184E+02 -0.13740956943E+02  0.20633968373E+02  0.29011666130E+02  0.00000000000E+00 0. -1.
         -5    1    3    3    0  503 -0.95532271763E+02 -0.26111773346E+01 -0.28866848627E+02  0.99943074522E+02  0.47000000000E+01 0.  1.
         13    1    4    4    0    0  0.29345689523E+02  0.17067142989E+02 -0.45230547816E+02  0.56553154811E+02  0.00000000000E+00 0. -1.
        -14    1    4    4    0    0 -0.34802693932E+02 -0.30389533083E+02 -0.93538995827E+02  0.10432782451E+03  0.00000000000E+00 0.  1.
</event>
<event>
12    1  0.8462562E-002  0.1872683E+03  0.7818608E-02  0.1161334E+00
         21   -1    0    0  501  502  0.00000000000E+00  0.00000000000E+00  0.30742697398E+03  0.30742697398E+03  0.00000000000E+00 0.  1.
         21   -1    0    0  502  503 -0.00000000000E+00 -0.00000000000E+00 -0.12856469962E+03  0.12856469962E+03  0.00000000000E+00 0.  1.
         -6    2    1    2    0  503  0.69876718333E+02  0.12209057637E+02  0.16548873886E+03  0.24991187704E+03  0.17331360807E+03 0.  0.
        -24    2    3    3    0    0 -0.29086685352E+02  0.16044255896E+02  0.62466420417E+02  0.10692882870E+03  0.80176476072E+02 0.  0.
          6    2    1    2  501    0 -0.69876718333E+02 -0.12209057637E+02  0.13373535505E+02  0.18607979656E+03  0.17150808256E+03 0.  0.
         24    2    5    5    0    0 -0.91216098973E+02  0.85527023216E+01 -0.37330726078E+02  0.12709308631E+03  0.79784359687E+02 0.  0.
          5    1    5    5  501    0  0.21339380639E+02 -0.20761759959E+02  0.50704261583E+02  0.58986710244E+02  0.47000000000E+01 0. -1.
        -13    1    6    6    0    0  0.97936960667E+01  0.15872327103E+02  0.13114493891E+01  0.18696714947E+02  0.00000000000E+00 0.  1.
         14    1    6    6    0    0 -0.10100979504E+03 -0.73196247815E+01 -0.38642175467E+02  0.10839637137E+03  0.00000000000E+00 0. -1.
         -5    1    3    3    0  503  0.98963403685E+02 -0.38351982593E+01  0.10302231844E+03  0.14298304834E+03  0.47000000000E+01 0.  1.
         13    1    4    4    0    0  0.23667468826E+01  0.20871660952E+02 -0.13223865477E+02  0.24821328326E+02  0.00000000000E+00 0. -1.
        -14    1    4    4    0    0 -0.31453432234E+02 -0.48274050554E+01  0.75690285894E+02  0.82107500374E+02  0.00000000000E+00 0.  1.
</event>
<event>
12    1  0.8462562E-002  0.2467154E+03  0.7818608E-02  0.1115409E+00
         21   -1    0    0  501  502  0.00000000000E+00  0.00000000000E+00  0.80100202222E+02  0.80100202222E+02  0.00000000000E+00 0. -1.
         21   -1    0    0  502  503 -0.00000000000E+00 -0.00000000000E+00 -0.78290113951E+03  0.78290113951E+03  0.00000000000E+00 0. -1.
         -6    2    1    2    0  503  0.12375686129E+03 -0.12637204095E+03 -0.42562390245E+03  0.49192777718E+03  0.17190572467E+03 0.  0.
        -24    2    3    3    0    0  0.98308155275E+02 -0.17298617976E+02 -0.20586194110E+03  0.24522541016E+03  0.88275859758E+02 0.  0.
          6    2    1    2  501    0 -0.12375686129E+03  0.12637204095E+03 -0.27717703484E+03  0.37107356455E+03  0.17199659362E+03 0.  0.
         24    2    5    5    0    0 -0.40849785913E+02  0.24268874204E+02 -0.46238507168E+02  0.10526661699E+03  0.81764159898E+02 0.  0.
          5    1    5    5  501    0 -0.82907075380E+02  0.10210316675E+03 -0.23093852767E+03  0.26580694756E+03  0.47000000000E+01 0. -1.
        -13    1    6    6    0    0 -0.24047122359E+02 -0.26262485091E+02 -0.36758148517E+02  0.51177570275E+02  0.00000000000E+00 0.  1.
         14    1    6    6    0    0 -0.16802663554E+02  0.50531359295E+02 -0.94803586511E+01  0.54089046718E+02  0.00000000000E+00 0. -1.
         -5    1    3    3    0  503  0.25448706017E+02 -0.10907342298E+03 -0.21976196135E+03  0.24670236702E+03  0.47000000000E+01 0.  1.
         13    1    4    4    0    0  0.61569183182E+02 -0.52866753919E+02 -0.11159537775E+03  0.13798255804E+03  0.00000000000E+00 0. -1.
        -14    1    4    4    0    0  0.36738972093E+02  0.35568135943E+02 -0.94266563343E+02  0.10724285211E+03  0.00000000000E+00 0.  1.
</event>
<event>
12    1  0.8462562E-002  0.2176994E+03  0.7818608E-02  0.1136156E+00
         21   -1    0    0  503  502  0.00000000000E+00  0.00000000000E+00  0.72659394771E+03  0.72659394771E+03  0.00000000000E+00 0.  1.
         21   -1    0    0  501  503 -0.00000000000E+00 -0.00000000000E+00 -0.65072737566E+02  0.65072737566E+02  0.00000000000E+00 0. -1.
          6    2    1    2  501    0 -0.84774371633E+02  0.97810545799E+02  0.28745749059E+03  0.35886572190E+03  0.17146195061E+03 0.  0.
         24    2    3    3    0    0 -0.59852035201E+02 -0.13014601223E+02  0.12848037352E+03  0.16341969402E+03  0.80294109679E+02 0.  0.
         -6    2    1    2    0  502  0.84774371633E+02 -0.97810545799E+02  0.37406371956E+03  0.43280096337E+03  0.17504116846E+03 0.  0.
        -24    2    5    5    0    0  0.32221493827E+02 -0.10761723678E+03  0.15723444813E+03  0.20942907817E+03  0.80735201658E+02 0.  0.
          5    1    3    3  501    0 -0.24922336432E+02  0.11082514702E+03  0.15897711706E+03  0.19544602788E+03  0.47000000000E+01 0. -1.
        -13    1    4    4    0    0  0.17051962182E+00  0.19724205553E+02  0.72256478016E+02  0.74900413730E+02  0.00000000000E+00 0.  1.
         14    1    4    4    0    0 -0.60022554823E+02 -0.32738806775E+02  0.56223895507E+02  0.88519280287E+02  0.00000000000E+00 0. -1.
         -5    1    5    5    0  502  0.52552877806E+02  0.98066909808E+01  0.21682927143E+03  0.22337188521E+03  0.47000000000E+01 0.  1.
         11    1    6    6    0    0  0.58378483235E+02 -0.65706814384E+02  0.88004636750E+02  0.12437945510E+03  0.00000000000E+00 0. -1.
        -12    1    6    6    0    0 -0.26156989409E+02 -0.41910422397E+02  0.69229811377E+02  0.85049623066E+02  0.00000000000E+00 0.  1.
</event>
<event>
12    1  0.8462562E-002  0.1942008E+03  0.7818608E-02  0.1154901E+00
         21   -1    0    0  503  502  0.00000000000E+00  0.00000000000E+00  0.22908782471E+03  0.22908782471E+03  0.00000000000E+00 0. -1.
         21   -1    0    0  501  503 -0.00000000000E+00 -0.00000000000E+00 -0.48954583065E+03  0.48954583065E+03  0.00000000000E+00 0. -1.
          6    2    1    2  501    0 -0.77149987118E+02  0.42961604795E+02 -0.42335246691E+03  0.46576951932E+03  0.17296275288E+03 0.  0.
         24    2    3    3    0    0  0.19363039445E+02 -0.17517703472E+02 -0.18049670376E+03  0.19749070405E+03  0.75774143915E+02 0.  0.
         -6    2    1    2    0  502  0.77149987118E+02 -0.42961604795E+02  0.16289446098E+03  0.25286413604E+03  0.17206930545E+03 0.  0.
        -24    2    5    5    0    0  0.29855505317E+02 -0.85249326869E+02  0.67353348994E+02  0.13808080307E+03  0.79818767390E+02 0.  0.
          5    1    3    3  501    0 -0.96513026563E+02  0.60479308267E+02 -0.24285576315E+03  0.26827881527E+03  0.47000000000E+01 0. -1.
        -11    1    4    4    0    0  0.36873954100E+02  0.18395245714E+01 -0.16027337651E+03  0.16447074986E+03  0.00000000000E+00 0.  1.
         12    1    4    4    0    0 -0.17510914655E+02 -0.19357228043E+02 -0.20223327250E+02  0.33019954189E+02  0.00000000000E+00 0. -1.
         -5    1    5    5    0  502  0.47294481801E+02  0.42287722074E+02  0.95541111986E+02  0.11478333296E+03  0.47000000000E+01 0.  1.
         11    1    6    6    0    0 -0.18659724313E+02 -0.40725165292E+02  0.55249615885E+02  0.71128366036E+02  0.00000000000E+00 0. -1.
        -12    1    6    6    0    0  0.48515229630E+02 -0.44524161577E+02  0.12103733109E+02  0.66952437038E+02  0.00000000000E+00 0.  1.
</event>
<event>
12    1  0.8462562E-002  0.2860470E+03  0.7818608E-02  0.1092456E+00
         21   -1    0    0  501  502  0.00000000000E+00  0.00000000000E+00  0.84776175264E+02  0.84776175264E+02  0.00000000000E+00 0.  1.
         21   -1    0    0  502  503 -0.00000000000E+00 -0.00000000000E+00 -0.11306828191E+04  0.11306828191E+04  0.00000000000E+00 0. -1.
         -6    2    1    2    0  503 -0.14690008333E+03  0.17456488822E+03 -0.75605706776E+03  0.80835957216E+03  0.17254093289E+03 0.  0.
        -24    2    3    3    0    0 -0.15790827696E+03  0.93039423415E+02 -0.59101378569E+03  0.62389017987E+03  0.79688791066E+02 0.  0.
          6    2    1    2  501    0  0.14690008333E+03 -0.17456488822E+03 -0.28984957603E+03  0.40709942215E+03  0.17223422456E+03 0.  0.
         24    2    5    5    0    0  0.46385361513E+01 -0.72712225249E+02 -0.73240476026E+02  0.12861440466E+03  0.76608837872E+02 0.  0.
          5    1    5    5  501    0  0.14226154718E+03 -0.10185266297E+03 -0.21660910001E+03  0.27848501749E+03  0.47000000000E+01 0. -1.
        -11    1    6    6    0    0  0.32764381262E+02 -0.15377894532E+02 -0.75004966175E+01  0.36962707818E+02  0.00000000000E+00 0.  1.
         12    1    6    6    0    0 -0.28125845111E+02 -0.57334330717E+02 -0.65739979408E+02  0.91651696845E+02  0.00000000000E+00 0. -1.
         -5    1    3    3    0  503  0.11008193623E+02  0.81525464805E+02 -0.16504328207E+03  0.18446939229E+03  0.47000000000E+01 0.  1.
         11    1    4    4    0    0 -0.80957766756E+02  0.73237272396E+02 -0.43890935442E+03  0.45228230063E+03  0.00000000000E+00 0. -1.
        -12    1    4    4    0    0 -0.76950510199E+02  0.19802151019E+02 -0.15210443127E+03  0.17160787924E+03  0.00000000000E+00 0.  1.
</event>
<event>
12    1  0.8462562E-002  0.1875975E+03  0.7818608E-02  0.1160826E+00
         21   -1    0    0  501  502  0.00000000000E+00  0.00000000000E+00  0.78199041375E+03  0.78199041375E+03  0.00000000000E+00 0. -1.
         21   -1    0    0  502  503 -0.00000000000E+00 -0.00000000000E+00 -0.53022375821E+02  0.53022375821E+02  0.00000000000E+00 0. -1.
         -6    2    1    2    0  503 -0.37757164636E+02  0.66705250874E+02  0.52936580864E+03  0.56162351261E+03  0.17122387854E+03 0.  0.
        -24    2    3    3    0    0  0.57849354461E+01  0.11378673848E+02  0.44249991076E+03  0.44970962241E+03  0.79181018995E+02 0.  0.
          6    2    1    2  501    0  0.37757164636E+02 -0.66705250874E+02  0.19960222929E+03  0.27338927696E+03  0.17036857939E+03 0.  0.
         24    2    5    5    0    0 -0.20805444837E+02 -0.36095852036E+02  0.18560130366E+03  0.20567937780E+03  0.78232892477E+02 0.  0.
          5    1    5    5  501    0  0.58562609473E+02 -0.30609398838E+02  0.14000925634E+02  0.67709899159E+02  0.47000000000E+01 0. -1.
        -13    1    6    6    0    0  0.19893689179E+02  0.12597171525E+02  0.34267667399E+02  0.41577886292E+02  0.00000000000E+00 0.  1.
         14    1    6    6    0    0 -0.40699134016E+02 -0.48693023561E+02  0.15133363626E+03  0.16410149151E+03  0.00000000000E+00 0. -1.
         -5    1    3    3    0  503 -0.43542100082E+02  0.55326577026E+02  0.86865897878E+02  0.11191389020E+03  0.47000000000E+01 0.  1.
         13    1    4    4    0    0  0.84739709767E+01  0.30774498643E+02  0.72786190463E+02  0.79477716833E+02  0.00000000000E+00 0. -1.
        -14    1    4    4    0    0 -0.26890355305E+01 -0.19395824795E+02  0.36971372029E+03  0.37023190558E+03  0.00000000000E+00 0.  1.
</event>
<event>
12    1  0.8462562E-002  0.1776369E+03  0.7818608E-02  0.1170535E+00
         21   -1    0    0  503  502  0.00000000000E+00  0.00000000000E+00  0.21807405376E+03  0.21807405376E+03  0.00000000000E+00 0. -1.
         21   -1    0    0  501  503 -0.00000000000E+00 -0.00000000000E+00 -0.14332262627E+03  0.14332262627E+03  0.00000000000E+00 0. -1.
          6    2    1    2  501    0  0.41483911374E+02 -0.17773228188E+02  0.39436623128E+02  0.18028343442E+03  0.17002960606E+03 0.  0.
         24    2    3    3    0    0 -0.17069177269E+02  0.22310588092E+02 -0.23314465891E+02  0.85441641466E+02  0.77250182025E+02 0.  0.
         -6    2    1    2    0  502 -0.41483911374E+02  0.17773228188E+02  0.35314804356E+02  0.18111324562E+03  0.17180823551E+03 0.  0.
        -24    2    5    5    0    0 -0.62332716458E+02  0.68224411665E+02  0.25961748959E+02  0.12552939695E+03  0.80893010828E+02 0.  0.
          5    1    3    3  501    0  0.58553088643E+02 -0.40083816280E+02  0.62751089019E+02  0.94841792952E+02  0.47000000000E+01 0. -1.
        -11    1    4    4    0    0  0.29450334298E+02  0.18999073015E+02 -0.14751043691E+02  0.38024732158E+02  0.00000000000E+00 0.  1.
         12    1    4    4    0    0 -0.46519511567E+02  0.33115150773E+01 -0.85634222002E+01  0.47416909308E+02  0.00000000000E+00 0. -1.
         -5    1    5    5    0  502  0.20848805084E+02 -0.50451183477E+02  0.93530553967E+01  0.55583848669E+02  0.47000000000E+01 0.  1.
         11    1    6    6    0    0 -0.15455835306E+02  0.60552119506E+02 -0.13311884664E+02  0.63895604661E+02  0.00000000000E+00 0. -1.
        -12    1    6    6    0    0 -0.46876881152E+02  0.76722921589E+01  0.39273633624E+02  0.61633792286E+02  0.00000000000E+00 0.  1.
</event>
<event>
12    1  0.8462562E-002  0.2178183E+03  0.7818608E-02  0.1135787E+00
         21   -1    0    0  501  502  0.00000000000E+00  0.00000000000E+00  0.82693653221E+02  0.82693653221E+02  0.00000000000E+00 0. -1.
         21   -1    0    0  502  503 -0.00000000000E+00 -0.00000000000E+00 -0.12192070788E+04  0.12192070788E+04  0.00000000000E+00 0.  1.
         -6    2    1    2    0  503 -0.52924992800E+02 -0.12179484407E+03 -0.10423869995E+04  0.10646148610E+04  0.17087746136E+03 0.  0.
        -24    2    3    3    0    0 -0.76346696403E+02 -0.43055265247E+02 -0.41484105876E+03  0.43169741369E+03  0.81160205987E+02 0.  0.
          6    2    1    2  501    0  0.52924992800E+02  0.12179484407E+03 -0.94126426148E+02  0.23728587101E+03  0.17265503635E+03 0.  0.
         24    2    5    5    0    0  0.61829142947E+02  0.76386733034E+02 -0.12905103719E+03  0.17912231803E+03  0.75979330851E+02 0.  0.
          5    1    5    5  501    0 -0.89041501470E+01  0.45408111038E+02  0.34924611044E+02  0.58163552973E+02  0.47000000000E+01 0. -1.
        -11    1    6    6    0    0  0.23242089528E+02 -0.91786606141E+01 -0.86218059665E+01  0.26434410801E+02  0.00000000000E+00 0.  1.
         12    1    6    6    0    0  0.38587053419E+02  0.85565393648E+02 -0.12042923123E+03  0.15268790723E+03  0.00000000000E+00 0. -1.
         -5    1    3    3    0  503  0.23421703604E+02 -0.78739578825E+02 -0.62754594070E+03  0.63291744735E+03  0.47000000000E+01 0.  1.
         11    1    4    4    0    0 -0.15215289061E+02 -0.20249451496E+02 -0.22226115773E+02  0.33697856452E+02  0.00000000000E+00 0. -1.
        -12    1    4    4    0    0 -0.61131407342E+02 -0.22805813751E+02 -0.39261494299E+03  0.39799955724E+03  0.00000000000E+00 0.  1.
</event>
<event>
12    1  0.8462562E-002  0.2072970E+03  0.7818608E-02  0.1143915E+00
         21   -1    0    0  503  502  0.00000000000E+00  0.00000000000E+00  0.99526251953E+03  0.99526251953E+03  0.00000000000E+00 0.  1.
         21   -1    0    0  501  503 -0.00000000000E+00 -0.00000000000E+00 -0.90738966921E+02  0.90738966921E+02  0.00000000000E+00 0.  1.
          6    2    1    2  501    0 -0.78931625390E+02 -0.83506128513E+02  0.58810592381E+02  0.21547789934E+03  0.17253569005E+03 0.  0.
         24    2    3    3    0    0 -0.11745614042E+03 -0.51180664922E+02  0.21320323455E+02  0.15257572037E+03  0.80058658928E+02 0.  0.
         -6    2    1    2    0  502  0.78931625390E+02  0.83506128513E+02  0.84571296023E+03  0.87052358712E+03  0.17139845283E+03 0.  0.
        -24    2    5    5    0    0  0.57851566300E+02  0.29345959461E+02  0.23334803981E+03  0.25538898512E+03  0.81019978888E+02 0.  0.
          5    1    3    3  501    0  0.38524515034E+02 -0.32325463592E+02  0.37490268926E+02  0.62902178970E+02  0.47000000000E+01 0. -1.
        -13    1    4    4    0    0 -0.72593615369E+02  0.83718332778E+01  0.26753870612E+02  0.77818315180E+02  0.00000000000E+00 0.  1.
         14    1    4    4    0    0 -0.44862525054E+02 -0.59552498199E+02 -0.54335471567E+01  0.74757405190E+02  0.00000000000E+00 0. -1.
         -5    1    5    5    0  502  0.21080059090E+02  0.54160169053E+02  0.61236492043E+03  0.61513460200E+03  0.47000000000E+01 0.  1.
         13    1    6    6    0    0 -0.15887554112E+02 -0.63418385980E+01  0.17293572032E+02  0.24324903414E+02  0.00000000000E+00 0. -1.
        -14    1    6    6    0    0  0.73739120412E+02  0.35687798059E+02  0.21605446777E+03  0.23106408171E+03  0.00000000000E+00 0.  1.
</event>
<event>
12    1  0.8462562E-002  0.1863623E+03  0.7818608E-02  0.1162072E+00
         21   -1    0    0  503  502  0.00000000000E+00  0.00000000000E+00  0.19336996772E+04  0.19336996772E+04  0.00000000000E+00 0. -1.
         21   -1    0    0  501  503 -0.00000000000E+00 -0.00000000000E+00 -0.17989110381E+02  0.17989110381E+02  0.00000000000E+00 0. -1.
          6    2    1    2  501    0  0.39028904058E+02 -0.58435092922E+02  0.10494944992E+04  0.10659125771E+04  0.17260649720E+03 0.  0.
         24    2    3    3    0    0  0.25516522490E+02  0.26243397225E+02  0.61593406558E+03  0.62392867390E+03  0.92587300159E+02 0.  0.
         -6    2    1    2    0  502 -0.39028904058E+02  0.58435092922E+02  0.86621606759E+03  0.88577621038E+03  0.17126384235E+03 0.  0.
        -24    2    5    5    0    0 -0.28958105734E+02  0.76623053974E+02  0.33099893023E+03  0.35013482192E+03  0.79526331641E+02 0.  0.
          5    1    3    3  501    0  0.13512381569E+02 -0.84678490147E+02  0.43356043360E+03  0.44198390325E+03  0.47000000000E+01 0. -1.
        -13    1    4    4    0    0  0.60321114763E+02  0.18774473461E+02  0.43023529725E+03  0.43484885735E+03  0.00000000000E+00 0.  1.
         14    1    4    4    0    0 -0.34804592274E+02  0.74689237642E+01  0.18569876833E+03  0.18907981655E+03  0.00000000000E+00 0. -1.
         -5    1    5    5    0  502 -0.10070798324E+02 -0.18187961051E+02  0.53521713736E+03  0.53564138846E+03  0.47000000000E+01 0.  1.
         11    1    6    6    0    0 -0.12795782685E+02  0.90424116901E+02  0.28864338944E+03  0.30274619607E+03  0.00000000000E+00 0. -1.
        -12    1    6    6    0    0 -0.16162323049E+02 -0.13801062928E+02  0.42355540789E+02  0.47388625848E+02  0.00000000000E+00 0.  1.
</event>
<event>
12    1  0.8462562E-002  0.2464949E+03  0.7818608E-02  0.1115619E+00
         21   -1    0    0  501  502  0.00000000000E+00  0.00000000000E+00  0.36765280644E+03  0.36765280644E+03  0.00000000000E+00 0.  1.
         21   -1    0    0  502  503 -0.00000000000E+00 -0.00000000000E+00 -0.19907256619E+03  0.19907256619E+03  0.00000000000E+00 0. -1.
         -6    2    1    2    0  503  0.82054424513E+01  0.17549589868E+03  0.20169854384E+03  0.31849964346E+03  0.17289760137E+03 0.  0.
        -24    2    3    3    0    0 -0.32175829485E+02  0.17870640149E+03  0.19329331920E+03  0.27686201321E+03  0.79492170526E+02 0.  0.
          6    2    1    2  501    0 -0.82054424513E+01 -0.17549589868E+03 -0.33118303579E+02  0.24822572917E+03  0.17220061222E+03 0.  0.
         24    2    5    5    0    0 -0.21020883659E+02 -0.19959293727E+03 -0.17564786433E+02  0.21646246898E+03  0.79172347409E+02 0.  0.
          5    1    5    5  501    0  0.12815441208E+02  0.24097038594E+02 -0.15553517147E+02  0.31763260192E+02  0.47000000000E+01 0. -1.
        -13    1    6    6    0    0 -0.23887208421E+02 -0.26177685036E+02  0.17485607118E+02  0.39517292117E+02  0.00000000000E+00 0.  1.
         14    1    6    6    0    0  0.28663247619E+01 -0.17341525224E+03 -0.35050393550E+02  0.17694517686E+03  0.00000000000E+00 0. -1.
         -5    1    3    3    0  503  0.40381271937E+02 -0.32105028158E+01  0.84052246417E+01  0.41637630250E+02  0.47000000000E+01 0.  1.
         11    1    4    4    0    0 -0.20803479743E+02  0.48553216699E+02  0.13335878348E+02  0.54479769388E+02  0.00000000000E+00 0. -1.
        -12    1    4    4    0    0 -0.11372349743E+02  0.13015318480E+03  0.17995744085E+03  0.22238224382E+03  0.00000000000E+00 0.  1.
</event>
<event>
12    1  0.8462562E-002  0.2131212E+03  0.7818608E-02  0.1139259E+00
         21   -1    0    0  503  502  0.00000000000E+00  0.00000000000E+00  0.15571633783E+04  0.15571633783E+04  0.00000000000E+00 0. -1.
         21   -1    0    0  501  503 -0.00000000000E+00 -0.00000000000E+00 -0.30829758405E+02  0.30829758405E+02  0.00000000000E+00 0.  1.
          6    2    1    2  501    0  0.10945793844E+03 -0.58552736570E+02  0.95166694017E+03  0.97508007009E+03  0.17234185454E+03 0.  0.
         24    2    3    3    0    0  0.27505687282E+02 -0.82882540878E+02  0.68382202508E+03  0.69388423195E+03  0.78972697477E+02 0.  0.
         -6    2    1    2    0  502 -0.10945793844E+03  0.58552736570E+02  0.57466667975E+03  0.61291306664E+03  0.17323732622E+03 0.  0.
        -24    2    5    5    0    0 -0.15472136970E+02 -0.27176380049E+02  0.20460623367E+03  0.22156969303E+03  0.79066271940E+02 0.  0.
          5    1    3    3  501    0  0.81952251163E+02  0.24329804308E+02  0.26784491509E+03  0.28119583814E+03  0.47000000000E+01 0. -1.
        -11    1    4    4    0    0  0.93604274981E+01 -0.25735837178E+02  0.48166984260E+02  0.55407664550E+02  0.00000000000E+00 0.  1.
         12    1    4    4    0    0  0.18145259784E+02 -0.57146703699E+02  0.63565504082E+03  0.63847656740E+03  0.00000000000E+00 0. -1.
         -5    1    5    5    0  502 -0.93985801475E+02  0.85729116619E+02  0.37006044608E+03  0.39134337361E+03  0.47000000000E+01 0.  1.
         11    1    6    6    0    0  0.27508985021E+02 -0.12904176756E+02  0.13607282617E+03  0.13942408708E+03  0.00000000000E+00 0. -1.
        -12    1    6    6    0    0 -0.42981121991E+02 -0.14272203293E+02  0.68533407496E+02  0.82145605953E+02  0.00000000000E+00 0.  1.
</event>
<event>
12    1  0.8462562E-002  0.1829174E+03  0.7818608E-02  0.1165073E+00
         21   -1    0    0  503  502  0.00000000000E+00  0.00000000000E+00  0.70693041654E+02  0.70693041654E+02  0.00000000000E+00 0.  1.
         21   -1    0    0  501  503 -0.00000000000E+00 -0.00000000000E+00 -0.13689175139E+04  0.13689175139E+04  0.00000000000E+00 0.  1.
          6    2    1    2  501    0 -0.56548263432E+02  0.23412747743E+02 -0.12313954491E+04  0.12448673784E+04  0.17208769501E+03 0.  0.
         24    2    3    3    0    0 -0.39346290267E+02 -0.18647197579E+02 -0.11306063536E+04  0.11342080875E+04  0.79129074358E+02 0.  0.
         -6    2    1    2    0  502  0.56548263432E+02 -0.23412747743E+02 -0.66829023149E+02  0.19474317720E+03  0.17237437129E+03 0.  0.
        -24    2    5    5    0    0 -0.34951612465E+02  0.30634499625E+01 -0.25919487043E+02  0.90969883534E+02  0.79829192418E+02 0.  0.
          5    1    3    3  501    0 -0.17201973165E+02  0.42059945322E+02 -0.10078909550E+03  0.11065929085E+03  0.47000000000E+01 0. -1.
        -11    1    4    4    0    0 -0.47173431218E+02 -0.20137052255E+02 -0.36770571854E+03  0.37126584671E+03  0.00000000000E+00 0.  1.
         12    1    4    4    0    0  0.78271409509E+01  0.14898546758E+01 -0.76290063510E+03  0.76294224083E+03  0.00000000000E+00 0. -1.
         -5    1    5    5    0  502  0.91499875897E+02 -0.26476197705E+02 -0.40909536106E+02  0.10377329367E+03  0.47000000000E+01 0.  1.
         13    1    6    6    0    0 -0.29810075472E+01  0.29309219184E+02  0.14762997914E+02  0.32952433030E+02  0.00000000000E+00 0. -1.
        -14    1    6    6    0    0 -0.31970604918E+02 -0.26245769221E+02 -0.40682484957E+02  0.58017450505E+02  0.00000000000E+00 0.  1.
</event>
<event>
12    1  0.8462562E-002  0.1816773E+03  0.7818608E-02  0.1166703E+00
         21   -1    0    0  501  502  0.00000000000E+00  0.00000000000E+00  0.45075554445E+03  0.45075554445E+03  0.00000000000E+00 0. -1.
         21   -1    0    0  502  503 -0.00000000000E+00 -0.00000000000E+00 -0.10907470265E+03  0.10907470265E+03  0.00000000000E+00 0. -1.
         -6    2    1    2    0  503 -0.57365855015E+02 -0.85505065464E+01  0.77879224820E+01  0.17971038394E+03  0.16991532561E+03 0.  0.
        -24    2    3    3    0    0 -0.52020592615E+01 -0.65111767876E+02  0.13988459911E+01  0.10235957161E+03  0.78796709278E+02 0.  0.
          6    2    1    2  501    0  0.57365855015E+02  0.85505065464E+01  0.33389291932E+03  0.38011986316E+03  0.17217048617E+03 0.  0.
         24    2    5    5    0    0  0.33457028611E+01 -0.55824637484E+02  0.16892614293E+03  0.19492142007E+03  0.79565912042E+02 0.  0.
          5    1    5    5  501    0  0.54020152154E+02  0.64375144031E+02  0.16496677640E+03  0.18519844309E+03  0.47000000000E+01 0. -1.
        -13    1    6    6    0    0 -0.28312415681E+02 -0.43574383786E+01  0.96170315796E+02  0.10034595055E+03  0.00000000000E+00 0.  1.
         14    1    6    6    0    0  0.31658118542E+02 -0.51467199106E+02  0.72755827131E+02  0.94575469520E+02  0.00000000000E+00 0. -1.
         -5    1    3    3    0  503 -0.52163795754E+02  0.56561261329E+02  0.63890764909E+01  0.77350812336E+02  0.47000000000E+01 0.  1.
         13    1    4    4    0    0  0.35466638729E+02 -0.17036915124E+02  0.18272107388E+01  0.39388800930E+02  0.00000000000E+00 0. -1.
        -14    1    4    4    0    0 -0.40668697990E+02 -0.48074852752E+02 -0.42836474771E+00  0.62970770677E+02  0.00000000000E+00 0.  1.
</event>
<event>
12    1  0.8462562E-002  0.1803023E+03  0.7818608E-02  0.1167998E+00
         21   -1    0    0  501  502  0.00000000000E+00  0.00000000000E+00  0.49493072723E+03  0.49493072723E+03  0.00000000000E+00 0.  1.
         21   -1    0    0  502  503 -0.00000000000E+00 -0.00000000000E+00 -0.69089007877E+02  0.69089007877E+02  0.00000000000E+00 0.  1.
         -6    2    1    2    0  503 -0.96929375785E+01 -0.49242981447E+02  0.28302539510E+03  0.33557757604E+03  0.17317653134E+03 0.  0.
        -24    2    3    3    0    0  0.54219310970E+02 -0.36440036511E+02  0.10864647397E+03  0.14935515782E+03  0.78963896292E+02 0.  0.
          6    2    1    2  501    0  0.96929375785E+01  0.49242981447E+02  0.14281632425E+03  0.22844215907E+03  0.17108621600E+03 0.  0.
         24    2    5    5    0    0  0.36261876550E+02  0.85713587692E+02  0.13483974895E+03  0.18237992517E+03  0.80118265096E+02 0.  0.
          5    1    5    5  501    0 -0.26568938971E+02 -0.36470606246E+02  0.79765753004E+01  0.46062233896E+02  0.47000000000E+01 0. -1.
        -13    1    6    6    0    0  0.14120675622E+02  0.33833855814E+02  0.48591631970E+00  0.36665506869E+02  0.00000000000E+00 0.  1.
         14    1    6    6    0    0  0.22141200928E+02  0.51879731878E+02  0.13435383263E+03  0.14571441830E+03  0.00000000000E+00 0. -1.
         -5    1    3    3    0  503 -0.63912248548E+02 -0.12802944935E+02  0.17437892113E+03  0.18622241822E+03  0.47000000000E+01 0.  1.
         11    1    4    4    0    0  0.16542135994E+01  0.15814451054E+02 -0.21577869449E+01  0.16046474045E+02  0.00000000000E+00 0. -1.
        -12    1    4    4    0    0  0.52565097370E+02 -0.52254487565E+02  0.11080426091E+03  0.13330868377E+03  0.00000000000E+00 0.  1.
</event>
